 Entering Gaussian System, Link 0=g16
 Initial command:
 /software/gaussian/g16-c01/avx2/g16/l1.exe "/local_scratch/16833624/Gau-4363.inp" -scrdir="/local_scratch/16833624/"
 Entering Link 1 = /software/gaussian/g16-c01/avx2/g16/l1.exe PID=      4364.
  
 Copyright (c) 1988-2019, Gaussian, Inc.  All Rights Reserved.
  
 This is part of the Gaussian(R) 16 program.  It is based on
 the Gaussian(R) 09 system (copyright 2009, Gaussian, Inc.),
 the Gaussian(R) 03 system (copyright 2003, Gaussian, Inc.),
 the Gaussian(R) 98 system (copyright 1998, Gaussian, Inc.),
 the Gaussian(R) 94 system (copyright 1995, Gaussian, Inc.),
 the Gaussian 92(TM) system (copyright 1992, Gaussian, Inc.),
 the Gaussian 90(TM) system (copyright 1990, Gaussian, Inc.),
 the Gaussian 88(TM) system (copyright 1988, Gaussian, Inc.),
 the Gaussian 86(TM) system (copyright 1986, Carnegie Mellon
 University), and the Gaussian 82(TM) system (copyright 1983,
 Carnegie Mellon University). Gaussian is a federally registered
 trademark of Gaussian, Inc.
  
 This software contains proprietary and confidential information,
 including trade secrets, belonging to Gaussian, Inc.
  
 This software is provided under written license and may be
 used, copied, transmitted, or stored only in accord with that
 written license.
  
 The following legend is applicable only to US Government
 contracts under FAR:
  
                    RESTRICTED RIGHTS LEGEND
  
 Use, reproduction and disclosure by the US Government is
 subject to restrictions as set forth in subparagraphs (a)
 and (c) of the Commercial Computer Software - Restricted
 Rights clause in FAR 52.227-19.
  
 Gaussian, Inc.
 340 Quinnipiac St., Bldg. 40, Wallingford CT 06492
  
  
 ---------------------------------------------------------------
 Warning -- This program may not be used in any manner that
 competes with the business of Gaussian, Inc. or will provide
 assistance to any competitor of Gaussian, Inc.  The licensee
 of this program is prohibited from giving any competitor of
 Gaussian, Inc. access to this program.  By using this program,
 the user acknowledges that Gaussian, Inc. is engaged in the
 business of creating and licensing software in the field of
 computational chemistry and represents and warrants to the
 licensee that it is not a competitor of Gaussian, Inc. and that
 it will not use this program in any manner prohibited above.
 ---------------------------------------------------------------
  

 Cite this work as:
 Gaussian 16, Revision C.01,
 M. J. Frisch, G. W. Trucks, H. B. Schlegel, G. E. Scuseria, 
 M. A. Robb, J. R. Cheeseman, G. Scalmani, V. Barone, 
 G. A. Petersson, H. Nakatsuji, X. Li, M. Caricato, A. V. Marenich, 
 J. Bloino, B. G. Janesko, R. Gomperts, B. Mennucci, H. P. Hratchian, 
 J. V. Ortiz, A. F. Izmaylov, J. L. Sonnenberg, D. Williams-Young, 
 F. Ding, F. Lipparini, F. Egidi, J. Goings, B. Peng, A. Petrone, 
 T. Henderson, D. Ranasinghe, V. G. Zakrzewski, J. Gao, N. Rega, 
 G. Zheng, W. Liang, M. Hada, M. Ehara, K. Toyota, R. Fukuda, 
 J. Hasegawa, M. Ishida, T. Nakajima, Y. Honda, O. Kitao, H. Nakai, 
 T. Vreven, K. Throssell, J. A. Montgomery, Jr., J. E. Peralta, 
 F. Ogliaro, M. J. Bearpark, J. J. Heyd, E. N. Brothers, K. N. Kudin, 
 V. N. Staroverov, T. A. Keith, R. Kobayashi, J. Normand, 
 K. Raghavachari, A. P. Rendell, J. C. Burant, S. S. Iyengar, 
 J. Tomasi, M. Cossi, J. M. Millam, M. Klene, C. Adamo, R. Cammi, 
 J. W. Ochterski, R. L. Martin, K. Morokuma, O. Farkas, 
 J. B. Foresman, and D. J. Fox, Gaussian, Inc., Wallingford CT, 2019.
 
 ******************************************
 Gaussian 16:  ES64L-G16RevC.01  3-Jul-2019
                23-May-2023 
 ******************************************
 %chk=geometry.chk
 %mem=10GB
 %nprocshared=24
 Will use up to   24 processors via shared memory.
 ------------------------------------
 #P wB97XD/6-311+G* pop=(NBO,saveNBO)
 ------------------------------------
 1/38=1,172=1/1;
 2/12=2,17=6,18=5,40=1/2;
 3/5=4,6=6,7=11,11=2,25=1,30=1,74=-58/1,2,3;
 4//1;
 5/5=2,38=5/2;
 6/7=2,8=2,9=2,10=2,28=1,40=1,73=1/1,7;
 99/5=1,9=1/99;
 Leave Link    1 at Tue May 23 16:50:25 2023, MaxMem=  1342177280 cpu:               3.6 elap:               0.2
 (Enter /software/gaussian/g16-c01/avx2/g16/l101.exe)
 -------
 TitleMe
 -------
 Symbolic Z-matrix:
 Charge =  1 Multiplicity = 1
 C                     0.51932   1.23303  -0.03195 
 C                     1.94454   1.26916  -0.03673 
 C                     2.62038   0.09283  -0.02499 
 C                    -0.19603   0.03013   0.00103 
 H                    -0.02069   2.17424  -0.04337 
 H                     2.48282   2.20891  -0.03612 
 H                    -1.2777    0.0399    0.01167 
 N                     4.09213   0.09594   0.03663 
 O                     4.63931  -1.02169   0.14459 
 O                     4.6649    1.1984   -0.02328 
 C                     0.49429  -1.16713   0.021 
 H                    -0.03251  -2.11493   0.05448 
 C                     1.96291  -1.21653  -0.02111 
 H                     2.44359  -1.96306   0.61514 
 Br                    2.17304  -1.94912  -1.90619 
 
 ITRead=  0  0  0  0  0  0  0  0  0  0  0  0  0  0  0
 MicOpt= -1 -1 -1 -1 -1 -1 -1 -1 -1 -1 -1 -1 -1 -1 -1
 NAtoms=     15 NQM=       15 NQMF=       0 NMMI=      0 NMMIF=      0
                NMic=       0 NMicF=      0.
                    Isotopes and Nuclear Properties:
 (Nuclear quadrupole moments (NQMom) in fm**2, nuclear magnetic moments (NMagM)
  in nuclear magnetons)

  Atom         1           2           3           4           5           6           7           8           9          10
 IAtWgt=          12          12          12          12           1           1           1          14          16          16
 AtmWgt=  12.0000000  12.0000000  12.0000000  12.0000000   1.0078250   1.0078250   1.0078250  14.0030740  15.9949146  15.9949146
 NucSpn=           0           0           0           0           1           1           1           2           0           0
 AtZEff=  -0.0000000  -0.0000000  -0.0000000  -0.0000000  -0.0000000  -0.0000000  -0.0000000  -0.0000000  -0.0000000  -0.0000000
 NQMom=    0.0000000   0.0000000   0.0000000   0.0000000   0.0000000   0.0000000   0.0000000   2.0440000   0.0000000   0.0000000
 NMagM=    0.0000000   0.0000000   0.0000000   0.0000000   2.7928460   2.7928460   2.7928460   0.4037610   0.0000000   0.0000000
 AtZNuc=   6.0000000   6.0000000   6.0000000   6.0000000   1.0000000   1.0000000   1.0000000   7.0000000   8.0000000   8.0000000

  Atom        11          12          13          14          15
 IAtWgt=          12           1          12           1          79
 AtmWgt=  12.0000000   1.0078250  12.0000000   1.0078250  78.9183361
 NucSpn=           0           1           0           1           3
 AtZEff=  -0.0000000  -0.0000000  -0.0000000  -0.0000000  -0.0000000
 NQMom=    0.0000000   0.0000000   0.0000000   0.0000000  31.3000000
 NMagM=    0.0000000   2.7928460   0.0000000   2.7928460   2.1063990
 AtZNuc=   6.0000000   1.0000000   6.0000000   1.0000000  35.0000000
 Leave Link  101 at Tue May 23 16:50:25 2023, MaxMem=  1342177280 cpu:               3.6 elap:               0.2
 (Enter /software/gaussian/g16-c01/avx2/g16/l202.exe)
                          Input orientation:                          
 ---------------------------------------------------------------------
 Center     Atomic      Atomic             Coordinates (Angstroms)
 Number     Number       Type             X           Y           Z
 ---------------------------------------------------------------------
      1          6           0        0.519325    1.233035   -0.031949
      2          6           0        1.944544    1.269164   -0.036729
      3          6           0        2.620378    0.092834   -0.024990
      4          6           0       -0.196034    0.030131    0.001027
      5          1           0       -0.020694    2.174238   -0.043366
      6          1           0        2.482817    2.208911   -0.036119
      7          1           0       -1.277701    0.039903    0.011670
      8          7           0        4.092135    0.095941    0.036630
      9          8           0        4.639307   -1.021693    0.144592
     10          8           0        4.664899    1.198397   -0.023275
     11          6           0        0.494285   -1.167126    0.020997
     12          1           0       -0.032511   -2.114927    0.054479
     13          6           0        1.962912   -1.216532   -0.021113
     14          1           0        2.443591   -1.963064    0.615139
     15         35           0        2.173040   -1.949122   -1.906188
 ---------------------------------------------------------------------
                    Distance matrix (angstroms):
                    1          2          3          4          5
     1  C    0.000000
     2  C    1.425685   0.000000
     3  C    2.390508   1.356702   0.000000
     4  C    1.399930   2.473601   2.817230   0.000000
     5  H    1.085179   2.163646   3.362713   2.151722   0.000000
     6  H    2.192636   1.082988   2.120572   3.453216   2.503762
     7  H    2.157491   3.449100   3.898611   1.081764   2.477596
     8  N    3.750021   2.448260   1.473049   4.288821   4.608805
     9  O    4.699917   3.541560   2.312359   4.950501   5.653752
    10  O    4.145728   2.721308   2.324293   4.999410   4.786173
    11  C    2.400875   2.835858   2.471818   1.382159   3.381429
    12  H    3.394236   3.920348   3.452295   2.151945   4.290297
    13  C    2.843315   2.485813   1.465168   2.493131   3.928423
    14  H    3.786367   3.334858   2.160495   3.364161   4.860411
    15  Br   4.046438   3.728867   2.812223   3.628694   5.028386
                    6          7          8          9         10
     6  H    0.000000
     7  H    4.341472   0.000000
     8  N    2.657035   5.370187   0.000000
     9  O    3.888432   6.012956   1.249063   0.000000
    10  O    2.404742   6.054571   1.243807   2.226574   0.000000
    11  C    3.918564   2.144048   3.813149   4.149413   4.794964
    12  H    5.003064   2.489101   4.679845   4.798871   5.748897
    13  C    3.464706   3.475813   2.501901   2.688589   3.623896
    14  H    4.222683   4.268966   2.700346   2.434905   3.916199
    15  Br   4.569721   4.420635   3.411707   3.338906   4.434139
                   11         12         13         14         15
    11  C    0.000000
    12  H    1.084878   0.000000
    13  C    1.470061   2.189643   0.000000
    14  H    2.187765   2.543321   1.092328   0.000000
    15  Br   2.672784   2.955700   2.033309   2.535839   0.000000
 Stoichiometry    C6H5BrNO2(1+)
 Framework group  C1[X(C6H5BrNO2)]
 Deg. of freedom    39
 Full point group                 C1      NOp   1
 Largest Abelian subgroup         C1      NOp   1
 Largest concise Abelian subgroup C1      NOp   1
                         Standard orientation:                         
 ---------------------------------------------------------------------
 Center     Atomic      Atomic             Coordinates (Angstroms)
 Number     Number       Type             X           Y           Z
 ---------------------------------------------------------------------
      1          6           0        0.297446    2.607122   -0.440760
      2          6           0        1.249725    1.547120   -0.487009
      3          6           0        0.948945    0.381098    0.137941
      4          6           0       -0.920534    2.486251    0.238740
      5          1           0        0.537748    3.538844   -0.942520
      6          1           0        2.198654    1.666028   -0.995198
      7          1           0       -1.616751    3.313925    0.259989
      8          7           0        1.937994   -0.710204    0.164722
      9          8           0        1.630043   -1.713526    0.841972
     10          8           0        2.987903   -0.546735   -0.481828
     11          6           0       -1.221754    1.300329    0.881560
     12          1           0       -2.154263    1.179731    1.422709
     13          6           0       -0.310813    0.146997    0.848521
     14          1           0       -0.208979   -0.419992    1.776601
     15         35           0       -1.414972   -1.058243   -0.360850
 ---------------------------------------------------------------------
 Rotational constants (GHZ):           1.1632866           0.9594188           0.5957573
 Leave Link  202 at Tue May 23 16:50:25 2023, MaxMem=  1342177280 cpu:               0.4 elap:               0.1
 (Enter /software/gaussian/g16-c01/avx2/g16/l301.exe)
 Standard basis: 6-311+G(d) (5D, 7F)
 Ernie: Thresh=  0.10000D-02 Tol=  0.10000D-05 Strict=F.
 There are   273 symmetry adapted cartesian basis functions of A   symmetry.
 There are   261 symmetry adapted basis functions of A   symmetry.
   261 basis functions,   443 primitive gaussians,   273 cartesian basis functions
    49 alpha electrons       49 beta electrons
       nuclear repulsion energy       772.8921063467 Hartrees.
 IExCor= 4639 DFT=T Ex+Corr=wB97XD ExCW=0 ScaHFX=  1.000000
 ScaDFX=  1.000000  1.000000  1.000000  1.000000 ScalE2=  1.000000  1.000000
 IRadAn=      5 IRanWt=     -1 IRanGd=            0 ICorTp=0 IEmpDi=121
 HFx  wShort=  0.000000 wLong=  0.200000 cFull=  0.222036 cShort=  0.000000 cLong=  0.777964
 DFx  wShort=  0.000000 wLong=  0.200000 cFull=  0.000000 cShort=  0.000000 cLong=  1.000000
 NAtoms=   15 NActive=   15 NUniq=   15 SFac= 1.00D+00 NAtFMM=   60 NAOKFM=F Big=F
 Integral buffers will be    131072 words long.
 Raffenetti 2 integral format.
 Two-electron integral symmetry is turned on.
 R6Disp:  Grimme-D2 Dispersion energy=       -0.0080346582 Hartrees.
 Nuclear repulsion after empirical dispersion term =      772.8840716885 Hartrees.
 Leave Link  301 at Tue May 23 16:50:25 2023, MaxMem=  1342177280 cpu:               2.0 elap:               0.1
 (Enter /software/gaussian/g16-c01/avx2/g16/l302.exe)
 NPDir=0 NMtPBC=     1 NCelOv=     1 NCel=       1 NClECP=     1 NCelD=      1
         NCelK=      1 NCelE2=     1 NClLst=     1 CellRange=     0.0.
 One-electron integrals computed using PRISM.
 One-electron integral symmetry used in STVInt
 NBasis=   261 RedAO= T EigKep=  2.52D-06  NBF=   261
 NBsUse=   261 1.00D-06 EigRej= -1.00D+00 NBFU=   261
 Precomputing XC quadrature grid using
 IXCGrd= 4 IRadAn=           5 IRanWt=          -1 IRanGd=           0 AccXCQ= 0.00D+00.
 Generated NRdTot=       0 NPtTot=           0 NUsed=           0 NTot=          32
 NSgBfM=   273   273   273   273   273 MxSgAt=    15 MxSgA2=    15.
 Leave Link  302 at Tue May 23 16:50:26 2023, MaxMem=  1342177280 cpu:               9.3 elap:               0.4
 (Enter /software/gaussian/g16-c01/avx2/g16/l303.exe)
 DipDrv:  MaxL=1.
 Leave Link  303 at Tue May 23 16:50:26 2023, MaxMem=  1342177280 cpu:               1.1 elap:               0.1
 (Enter /software/gaussian/g16-c01/avx2/g16/l401.exe)
 ExpMin= 3.50D-02 ExpMax= 4.40D+05 ExpMxC= 1.51D+04 IAcc=3 IRadAn=         5 AccDes= 0.00D+00
 Harris functional with IExCor= 4639 and IRadAn=       5 diagonalized for initial guess.
 HarFok:  IExCor= 4639 AccDes= 0.00D+00 IRadAn=         5 IDoV= 1 UseB2=F ITyADJ=14
 ICtDFT=  3500011 ScaDFX=  1.000000  1.000000  1.000000  1.000000
 FoFCou: FMM=F IPFlag=           0 FMFlag=      100000 FMFlg1=           0
         NFxFlg=           0 DoJE=T BraDBF=F KetDBF=T FulRan=T
         wScrn=  0.000000 ICntrl=       500 IOpCl=  0 I1Cent=   200000004 NGrid=           0
         NMat0=    1 NMatS0=      1 NMatT0=    0 NMatD0=    1 NMtDS0=    0 NMtDT0=    0
 Petite list used in FoFCou.
 Harris En= -2970.59984798255    
 JPrj=0 DoOrth=F DoCkMO=F.
 Leave Link  401 at Tue May 23 16:50:26 2023, MaxMem=  1342177280 cpu:              15.4 elap:               0.7
 (Enter /software/gaussian/g16-c01/avx2/g16/l502.exe)
 Integral symmetry usage will be decided dynamically.
 Closed shell SCF:
 Using DIIS extrapolation, IDIIS=  1040.
 NGot=  1342177280 LenX=  1342018707 LenY=  1341943737
 Requested convergence on RMS density matrix=1.00D-08 within 128 cycles.
 Requested convergence on MAX density matrix=1.00D-06.
 Requested convergence on             energy=1.00D-06.
 No special actions if energy rises.
 Fock matrices will be formed incrementally for  20 cycles.

 Cycle   1  Pass 1  IDiag  1:
 FoFJK:  IHMeth= 1 ICntrl=       0 DoSepK=T KAlg= 0 I1Cent=           0 FoldK=F
 IRaf=         1 NMat=       1 IRICut=       1 DoRegI=T DoRafI=F ISym2E= 0 IDoP0=0 IntGTp=1.
 FoFCou: FMM=F IPFlag=           0 FMFlag=      100000 FMFlg1=           0
         NFxFlg=           0 DoJE=T BraDBF=F KetDBF=F FulRan=T
         wScrn=  0.000000 ICntrl=       500 IOpCl=  0 I1Cent=           0 NGrid=           0
         NMat0=    1 NMatS0=      1 NMatT0=    0 NMatD0=    1 NMtDS0=    0 NMtDT0=    0
 Symmetry not used in FoFCou.
 E= -3009.70011037519    
 DIIS: error= 2.90D-01 at cycle   1 NSaved=   1.
 NSaved= 1 IEnMin= 1 EnMin= -3009.70011037519     IErMin= 1 ErrMin= 2.90D-01
 ErrMax= 2.90D-01  0.00D+00 EMaxC= 1.00D-01 BMatC= 1.19D+01 BMatP= 1.19D+01
 IDIUse=3 WtCom= 0.00D+00 WtEn= 1.00D+00
 Coeff-Com:  0.100D+01
 Coeff-En:   0.100D+01
 Coeff:      0.100D+01
 Gap=     0.315 Goal=   None    Shift=    0.000
 GapD=    0.315 DampG=1.000 DampE=0.250 DampFc=0.2500 IDamp=-1.
 Damping current iteration by 2.50D-01
 RMSDP=4.22D-02 MaxDP=3.94D+00              OVMax= 2.61D-01

 Cycle   2  Pass 1  IDiag  1:
 RMSU=  5.39D-03    CP:  9.17D-01
 E= -3009.99113693956     Delta-E=       -0.291026564367 Rises=F Damp=T
 DIIS: error= 2.19D-01 at cycle   2 NSaved=   2.
 NSaved= 2 IEnMin= 2 EnMin= -3009.99113693956     IErMin= 2 ErrMin= 2.19D-01
 ErrMax= 2.19D-01  0.00D+00 EMaxC= 1.00D-01 BMatC= 5.46D+00 BMatP= 1.19D+01
 IDIUse=3 WtCom= 0.00D+00 WtEn= 1.00D+00
 Coeff-Com: -0.183D+01 0.283D+01
 Coeff-En:   0.000D+00 0.100D+01
 Coeff:      0.000D+00 0.100D+01
 Gap=     0.269 Goal=   None    Shift=    0.000
 RMSDP=3.36D-02 MaxDP=3.25D+00 DE=-2.91D-01 OVMax= 7.13D-02

 Cycle   3  Pass 1  IDiag  1:
 RMSU=  5.00D-03    CP:  6.28D-01  3.00D+00
 E= -3010.37623920864     Delta-E=       -0.385102269081 Rises=F Damp=F
 DIIS: error= 6.59D-02 at cycle   3 NSaved=   3.
 NSaved= 3 IEnMin= 3 EnMin= -3010.37623920864     IErMin= 3 ErrMin= 6.59D-02
 ErrMax= 6.59D-02  0.00D+00 EMaxC= 1.00D-01 BMatC= 7.36D-01 BMatP= 5.46D+00
 IDIUse=3 WtCom= 3.41D-01 WtEn= 6.59D-01
 Coeff-Com:  0.261D+01-0.342D+01 0.181D+01
 Coeff-En:   0.371D-01 0.000D+00 0.963D+00
 Coeff:      0.914D+00-0.117D+01 0.125D+01
 Gap=     0.263 Goal=   None    Shift=    0.000
 RMSDP=1.13D-02 MaxDP=7.52D-01 DE=-3.85D-01 OVMax= 7.52D-02

 Cycle   4  Pass 1  IDiag  1:
 RMSU=  5.38D-03    CP:  6.70D-01  1.70D+00  2.07D+00
 E= -3010.48570536164     Delta-E=       -0.109466152998 Rises=F Damp=F
 DIIS: error= 3.76D-02 at cycle   4 NSaved=   4.
 NSaved= 4 IEnMin= 4 EnMin= -3010.48570536164     IErMin= 4 ErrMin= 3.76D-02
 ErrMax= 3.76D-02  0.00D+00 EMaxC= 1.00D-01 BMatC= 2.22D-01 BMatP= 7.36D-01
 IDIUse=3 WtCom= 6.24D-01 WtEn= 3.76D-01
 Coeff-Com: -0.260D-01 0.484D-01 0.349D+00 0.629D+00
 Coeff-En:   0.000D+00 0.000D+00 0.190D+00 0.810D+00
 Coeff:     -0.162D-01 0.302D-01 0.289D+00 0.697D+00
 Gap=     0.253 Goal=   None    Shift=    0.000
 RMSDP=5.81D-03 MaxDP=7.35D-01 DE=-1.09D-01 OVMax= 3.21D-02

 Cycle   5  Pass 1  IDiag  1:
 RMSU=  1.55D-03    CP:  6.26D-01  1.99D+00  1.93D+00  5.48D-01
 E= -3010.52875554267     Delta-E=       -0.043050181024 Rises=F Damp=F
 DIIS: error= 6.60D-03 at cycle   5 NSaved=   5.
 NSaved= 5 IEnMin= 5 EnMin= -3010.52875554267     IErMin= 5 ErrMin= 6.60D-03
 ErrMax= 6.60D-03  0.00D+00 EMaxC= 1.00D-01 BMatC= 9.12D-03 BMatP= 2.22D-01
 IDIUse=3 WtCom= 9.34D-01 WtEn= 6.60D-02
 Coeff-Com: -0.107D+00 0.148D+00 0.110D+00 0.390D+00 0.459D+00
 Coeff-En:   0.000D+00 0.000D+00 0.000D+00 0.000D+00 0.100D+01
 Coeff:     -0.100D+00 0.139D+00 0.103D+00 0.364D+00 0.495D+00
 Gap=     0.245 Goal=   None    Shift=    0.000
 RMSDP=1.56D-03 MaxDP=1.95D-01 DE=-4.31D-02 OVMax= 2.34D-02

 Cycle   6  Pass 1  IDiag  1:
 RMSU=  5.56D-04    CP:  6.34D-01  1.98D+00  2.00D+00  7.31D-01  6.23D-01
 E= -3010.53140882062     Delta-E=       -0.002653277958 Rises=F Damp=F
 DIIS: error= 2.86D-03 at cycle   6 NSaved=   6.
 NSaved= 6 IEnMin= 6 EnMin= -3010.53140882062     IErMin= 6 ErrMin= 2.86D-03
 ErrMax= 2.86D-03  0.00D+00 EMaxC= 1.00D-01 BMatC= 6.70D-04 BMatP= 9.12D-03
 IDIUse=3 WtCom= 9.71D-01 WtEn= 2.86D-02
 Coeff-Com: -0.960D-01 0.129D+00 0.207D-02 0.166D+00 0.339D+00 0.459D+00
 Coeff-En:   0.000D+00 0.000D+00 0.000D+00 0.000D+00 0.100D+00 0.900D+00
 Coeff:     -0.933D-01 0.126D+00 0.202D-02 0.162D+00 0.332D+00 0.471D+00
 Gap=     0.244 Goal=   None    Shift=    0.000
 RMSDP=4.54D-04 MaxDP=4.48D-02 DE=-2.65D-03 OVMax= 8.14D-03

 Cycle   7  Pass 1  IDiag  1:
 RMSU=  2.16D-04    CP:  6.32D-01  1.97D+00  1.99D+00  6.91D-01  7.44D-01
                    CP:  6.49D-01
 E= -3010.53188135507     Delta-E=       -0.000472534451 Rises=F Damp=F
 DIIS: error= 3.37D-04 at cycle   7 NSaved=   7.
 NSaved= 7 IEnMin= 7 EnMin= -3010.53188135507     IErMin= 7 ErrMin= 3.37D-04
 ErrMax= 3.37D-04  0.00D+00 EMaxC= 1.00D-01 BMatC= 1.59D-05 BMatP= 6.70D-04
 IDIUse=3 WtCom= 9.97D-01 WtEn= 3.37D-03
 Coeff-Com: -0.353D-01 0.470D-01-0.119D-01 0.343D-01 0.843D-01 0.183D+00
 Coeff-Com:  0.698D+00
 Coeff-En:   0.000D+00 0.000D+00 0.000D+00 0.000D+00 0.000D+00 0.000D+00
 Coeff-En:   0.100D+01
 Coeff:     -0.352D-01 0.469D-01-0.118D-01 0.342D-01 0.840D-01 0.183D+00
 Coeff:      0.699D+00
 Gap=     0.245 Goal=   None    Shift=    0.000
 RMSDP=1.35D-04 MaxDP=1.08D-02 DE=-4.73D-04 OVMax= 1.47D-03

 Cycle   8  Pass 1  IDiag  1:
 RMSU=  5.95D-05    CP:  6.31D-01  1.97D+00  2.00D+00  7.02D-01  7.87D-01
                    CP:  6.97D-01  9.02D-01
 E= -3010.53189901402     Delta-E=       -0.000017658947 Rises=F Damp=F
 DIIS: error= 1.03D-04 at cycle   8 NSaved=   8.
 NSaved= 8 IEnMin= 8 EnMin= -3010.53189901402     IErMin= 8 ErrMin= 1.03D-04
 ErrMax= 1.03D-04  0.00D+00 EMaxC= 1.00D-01 BMatC= 2.19D-06 BMatP= 1.59D-05
 IDIUse=3 WtCom= 9.99D-01 WtEn= 1.03D-03
 Coeff-Com:  0.431D-02-0.598D-02-0.345D-02-0.130D-01-0.277D-01-0.302D-01
 Coeff-Com:  0.171D+00 0.905D+00
 Coeff-En:   0.000D+00 0.000D+00 0.000D+00 0.000D+00 0.000D+00 0.000D+00
 Coeff-En:   0.000D+00 0.100D+01
 Coeff:      0.431D-02-0.597D-02-0.345D-02-0.129D-01-0.277D-01-0.301D-01
 Coeff:      0.171D+00 0.905D+00
 Gap=     0.245 Goal=   None    Shift=    0.000
 RMSDP=6.32D-05 MaxDP=4.44D-03 DE=-1.77D-05 OVMax= 1.26D-03

 Cycle   9  Pass 1  IDiag  1:
 RMSU=  2.40D-05    CP:  6.32D-01  1.96D+00  2.00D+00  7.06D-01  7.99D-01
                    CP:  6.99D-01  1.04D+00  1.21D+00
 E= -3010.53190320369     Delta-E=       -0.000004189666 Rises=F Damp=F
 DIIS: error= 2.16D-05 at cycle   9 NSaved=   9.
 NSaved= 9 IEnMin= 9 EnMin= -3010.53190320369     IErMin= 9 ErrMin= 2.16D-05
 ErrMax= 2.16D-05  0.00D+00 EMaxC= 1.00D-01 BMatC= 2.33D-07 BMatP= 2.19D-06
 IDIUse=1 WtCom= 1.00D+00 WtEn= 0.00D+00
 Coeff-Com:  0.647D-02-0.869D-02 0.683D-03-0.882D-02-0.180D-01-0.308D-01
 Coeff-Com: -0.579D-01 0.251D+00 0.866D+00
 Coeff:      0.647D-02-0.869D-02 0.683D-03-0.882D-02-0.180D-01-0.308D-01
 Coeff:     -0.579D-01 0.251D+00 0.866D+00
 Gap=     0.245 Goal=   None    Shift=    0.000
 RMSDP=3.98D-05 MaxDP=4.65D-03 DE=-4.19D-06 OVMax= 7.60D-04

 Cycle  10  Pass 1  IDiag  1:
 RMSU=  8.24D-06    CP:  6.31D-01  1.96D+00  2.00D+00  7.04D-01  8.06D-01
                    CP:  6.88D-01  1.08D+00  1.50D+00  1.05D+00
 E= -3010.53190404807     Delta-E=       -0.000000844382 Rises=F Damp=F
 DIIS: error= 1.33D-05 at cycle  10 NSaved=  10.
 NSaved=10 IEnMin=10 EnMin= -3010.53190404807     IErMin=10 ErrMin= 1.33D-05
 ErrMax= 1.33D-05  0.00D+00 EMaxC= 1.00D-01 BMatC= 6.46D-08 BMatP= 2.33D-07
 IDIUse=1 WtCom= 1.00D+00 WtEn= 0.00D+00
 Coeff-Com:  0.612D-03-0.796D-03 0.447D-03-0.253D-03 0.182D-02 0.298D-02
 Coeff-Com: -0.399D-01-0.864D-01 0.207D+00 0.914D+00
 Coeff:      0.612D-03-0.796D-03 0.447D-03-0.253D-03 0.182D-02 0.298D-02
 Coeff:     -0.399D-01-0.864D-01 0.207D+00 0.914D+00
 Gap=     0.245 Goal=   None    Shift=    0.000
 RMSDP=1.40D-05 MaxDP=1.38D-03 DE=-8.44D-07 OVMax= 4.16D-04

 Cycle  11  Pass 1  IDiag  1:
 RMSU=  7.42D-06    CP:  6.31D-01  1.96D+00  2.00D+00  7.04D-01  8.07D-01
                    CP:  6.85D-01  1.07D+00  1.63D+00  1.17D+00  1.36D+00
 E= -3010.53190426034     Delta-E=       -0.000000212271 Rises=F Damp=F
 DIIS: error= 6.47D-06 at cycle  11 NSaved=  11.
 NSaved=11 IEnMin=11 EnMin= -3010.53190426034     IErMin=11 ErrMin= 6.47D-06
 ErrMax= 6.47D-06  0.00D+00 EMaxC= 1.00D-01 BMatC= 7.60D-09 BMatP= 6.46D-08
 IDIUse=1 WtCom= 1.00D+00 WtEn= 0.00D+00
 Coeff-Com: -0.353D-03 0.473D-03 0.396D-04 0.865D-03 0.194D-02 0.425D-02
 Coeff-Com:  0.146D-01-0.202D-01-0.177D+00-0.178D+00 0.135D+01
 Coeff:     -0.353D-03 0.473D-03 0.396D-04 0.865D-03 0.194D-02 0.425D-02
 Coeff:      0.146D-01-0.202D-01-0.177D+00-0.178D+00 0.135D+01
 Gap=     0.245 Goal=   None    Shift=    0.000
 RMSDP=1.45D-05 MaxDP=1.41D-03 DE=-2.12D-07 OVMax= 3.17D-04

 Cycle  12  Pass 1  IDiag  1:
 RMSU=  1.64D-06    CP:  6.31D-01  1.96D+00  2.00D+00  7.03D-01  8.08D-01
                    CP:  6.79D-01  1.06D+00  1.72D+00  1.19D+00  1.79D+00
                    CP:  1.70D+00
 E= -3010.53190432802     Delta-E=       -0.000000067676 Rises=F Damp=F
 DIIS: error= 3.34D-06 at cycle  12 NSaved=  12.
 NSaved=12 IEnMin=12 EnMin= -3010.53190432802     IErMin=12 ErrMin= 3.34D-06
 ErrMax= 3.34D-06  0.00D+00 EMaxC= 1.00D-01 BMatC= 2.16D-09 BMatP= 7.60D-09
 IDIUse=1 WtCom= 1.00D+00 WtEn= 0.00D+00
 Coeff-Com: -0.204D-03 0.269D-03-0.371D-04 0.380D-03 0.329D-03 0.970D-03
 Coeff-Com:  0.127D-01 0.581D-02-0.108D+00-0.239D+00 0.585D+00 0.741D+00
 Coeff:     -0.204D-03 0.269D-03-0.371D-04 0.380D-03 0.329D-03 0.970D-03
 Coeff:      0.127D-01 0.581D-02-0.108D+00-0.239D+00 0.585D+00 0.741D+00
 Gap=     0.245 Goal=   None    Shift=    0.000
 RMSDP=2.40D-06 MaxDP=2.12D-04 DE=-6.77D-08 OVMax= 1.02D-04

 Cycle  13  Pass 1  IDiag  1:
 RMSU=  8.79D-07    CP:  6.31D-01  1.96D+00  2.00D+00  7.03D-01  8.08D-01
                    CP:  6.79D-01  1.06D+00  1.73D+00  1.21D+00  1.86D+00
                    CP:  1.88D+00  1.20D+00
 E= -3010.53190433699     Delta-E=       -0.000000008971 Rises=F Damp=F
 DIIS: error= 1.61D-06 at cycle  13 NSaved=  13.
 NSaved=13 IEnMin=13 EnMin= -3010.53190433699     IErMin=13 ErrMin= 1.61D-06
 ErrMax= 1.61D-06  0.00D+00 EMaxC= 1.00D-01 BMatC= 3.72D-10 BMatP= 2.16D-09
 IDIUse=1 WtCom= 1.00D+00 WtEn= 0.00D+00
 Coeff-Com:  0.116D-04-0.155D-04-0.217D-04-0.124D-03-0.470D-03-0.103D-02
 Coeff-Com: -0.232D-02 0.390D-02 0.346D-01 0.135D-01-0.251D+00 0.144D+00
 Coeff-Com:  0.106D+01
 Coeff:      0.116D-04-0.155D-04-0.217D-04-0.124D-03-0.470D-03-0.103D-02
 Coeff:     -0.232D-02 0.390D-02 0.346D-01 0.135D-01-0.251D+00 0.144D+00
 Coeff:      0.106D+01
 Gap=     0.245 Goal=   None    Shift=    0.000
 RMSDP=8.96D-07 MaxDP=4.63D-05 DE=-8.97D-09 OVMax= 4.53D-05

 Cycle  14  Pass 1  IDiag  1:
 RMSU=  3.26D-07    CP:  6.31D-01  1.96D+00  2.00D+00  7.03D-01  8.08D-01
                    CP:  6.78D-01  1.06D+00  1.73D+00  1.20D+00  1.89D+00
                    CP:  1.92D+00  1.45D+00  1.54D+00
 E= -3010.53190433884     Delta-E=       -0.000000001850 Rises=F Damp=F
 DIIS: error= 5.34D-07 at cycle  14 NSaved=  14.
 NSaved=14 IEnMin=14 EnMin= -3010.53190433884     IErMin=14 ErrMin= 5.34D-07
 ErrMax= 5.34D-07  0.00D+00 EMaxC= 1.00D-01 BMatC= 6.62D-11 BMatP= 3.72D-10
 IDIUse=1 WtCom= 1.00D+00 WtEn= 0.00D+00
 Coeff-Com:  0.134D-04-0.175D-04-0.851D-05-0.816D-04-0.175D-03-0.437D-03
 Coeff-Com: -0.247D-02 0.256D-03 0.279D-01 0.372D-01-0.181D+00-0.492D-01
 Coeff-Com:  0.395D+00 0.773D+00
 Coeff:      0.134D-04-0.175D-04-0.851D-05-0.816D-04-0.175D-03-0.437D-03
 Coeff:     -0.247D-02 0.256D-03 0.279D-01 0.372D-01-0.181D+00-0.492D-01
 Coeff:      0.395D+00 0.773D+00
 Gap=     0.245 Goal=   None    Shift=    0.000
 RMSDP=4.12D-07 MaxDP=4.26D-05 DE=-1.85D-09 OVMax= 1.44D-05

 Cycle  15  Pass 1  IDiag  1:
 RMSU=  1.37D-07    CP:  6.31D-01  1.96D+00  2.00D+00  7.03D-01  8.08D-01
                    CP:  6.78D-01  1.06D+00  1.73D+00  1.20D+00  1.89D+00
                    CP:  1.94D+00  1.52D+00  1.74D+00  1.27D+00
 E= -3010.53190433907     Delta-E=       -0.000000000236 Rises=F Damp=F
 DIIS: error= 2.75D-07 at cycle  15 NSaved=  15.
 NSaved=15 IEnMin=15 EnMin= -3010.53190433907     IErMin=15 ErrMin= 2.75D-07
 ErrMax= 2.75D-07  0.00D+00 EMaxC= 1.00D-01 BMatC= 1.15D-11 BMatP= 6.62D-11
 IDIUse=1 WtCom= 1.00D+00 WtEn= 0.00D+00
 Coeff-Com:  0.630D-05-0.837D-05 0.322D-05 0.231D-05 0.640D-04 0.120D-03
 Coeff-Com: -0.637D-04-0.659D-03-0.362D-03 0.643D-02 0.726D-02-0.448D-01
 Coeff-Com: -0.136D+00 0.226D+00 0.943D+00
 Coeff:      0.630D-05-0.837D-05 0.322D-05 0.231D-05 0.640D-04 0.120D-03
 Coeff:     -0.637D-04-0.659D-03-0.362D-03 0.643D-02 0.726D-02-0.448D-01
 Coeff:     -0.136D+00 0.226D+00 0.943D+00
 Gap=     0.245 Goal=   None    Shift=    0.000
 RMSDP=1.67D-07 MaxDP=7.58D-06 DE=-2.36D-10 OVMax= 6.20D-06

 Cycle  16  Pass 1  IDiag  1:
 RMSU=  6.36D-08    CP:  6.31D-01  1.96D+00  2.00D+00  7.03D-01  8.08D-01
                    CP:  6.78D-01  1.06D+00  1.73D+00  1.20D+00  1.89D+00
                    CP:  1.93D+00  1.54D+00  1.81D+00  1.46D+00  1.46D+00
 E= -3010.53190433914     Delta-E=       -0.000000000063 Rises=F Damp=F
 DIIS: error= 6.90D-08 at cycle  16 NSaved=  16.
 NSaved=16 IEnMin=16 EnMin= -3010.53190433914     IErMin=16 ErrMin= 6.90D-08
 ErrMax= 6.90D-08  0.00D+00 EMaxC= 1.00D-01 BMatC= 9.25D-13 BMatP= 1.15D-11
 IDIUse=1 WtCom= 1.00D+00 WtEn= 0.00D+00
 Coeff-Com: -0.116D-06 0.133D-06 0.152D-05 0.885D-05 0.288D-04 0.581D-04
 Coeff-Com:  0.209D-03-0.199D-03-0.290D-02-0.202D-02 0.185D-01-0.303D-02
 Coeff-Com: -0.555D-01-0.579D-01 0.117D+00 0.986D+00
 Coeff:     -0.116D-06 0.133D-06 0.152D-05 0.885D-05 0.288D-04 0.581D-04
 Coeff:      0.209D-03-0.199D-03-0.290D-02-0.202D-02 0.185D-01-0.303D-02
 Coeff:     -0.555D-01-0.579D-01 0.117D+00 0.986D+00
 Gap=     0.245 Goal=   None    Shift=    0.000
 RMSDP=6.78D-08 MaxDP=5.27D-06 DE=-6.28D-11 OVMax= 1.62D-06

 Cycle  17  Pass 1  IDiag  1:
 RMSU=  2.17D-08    CP:  6.31D-01  1.96D+00  2.00D+00  7.03D-01  8.08D-01
                    CP:  6.78D-01  1.06D+00  1.73D+00  1.20D+00  1.89D+00
                    CP:  1.94D+00  1.54D+00  1.83D+00  1.51D+00  1.74D+00
                    CP:  1.21D+00
 E= -3010.53190433914     Delta-E=       -0.000000000003 Rises=F Damp=F
 DIIS: error= 2.67D-08 at cycle  17 NSaved=  17.
 NSaved=17 IEnMin=17 EnMin= -3010.53190433914     IErMin=17 ErrMin= 2.67D-08
 ErrMax= 2.67D-08  0.00D+00 EMaxC= 1.00D-01 BMatC= 1.97D-13 BMatP= 9.25D-13
 IDIUse=1 WtCom= 1.00D+00 WtEn= 0.00D+00
 Coeff-Com: -0.168D-05 0.224D-05-0.221D-06 0.263D-05 0.104D-05-0.145D-07
 Coeff-Com:  0.489D-04 0.752D-04-0.596D-03-0.107D-02 0.348D-02 0.467D-02
 Coeff-Com:  0.704D-02-0.475D-01-0.997D-01 0.226D+00 0.908D+00
 Coeff:     -0.168D-05 0.224D-05-0.221D-06 0.263D-05 0.104D-05-0.145D-07
 Coeff:      0.489D-04 0.752D-04-0.596D-03-0.107D-02 0.348D-02 0.467D-02
 Coeff:      0.704D-02-0.475D-01-0.997D-01 0.226D+00 0.908D+00
 Gap=     0.245 Goal=   None    Shift=    0.000
 RMSDP=4.74D-08 MaxDP=4.36D-06 DE=-2.73D-12 OVMax= 6.16D-07

 Cycle  18  Pass 1  IDiag  1:
 RMSU=  7.50D-09    CP:  6.31D-01  1.96D+00  2.00D+00  7.03D-01  8.08D-01
                    CP:  6.78D-01  1.06D+00  1.73D+00  1.20D+00  1.89D+00
                    CP:  1.94D+00  1.55D+00  1.82D+00  1.50D+00  1.83D+00
                    CP:  1.45D+00  1.14D+00
 E= -3010.53190433915     Delta-E=       -0.000000000010 Rises=F Damp=F
 DIIS: error= 1.59D-08 at cycle  18 NSaved=  18.
 NSaved=18 IEnMin=18 EnMin= -3010.53190433915     IErMin=18 ErrMin= 1.59D-08
 ErrMax= 1.59D-08  0.00D+00 EMaxC= 1.00D-01 BMatC= 4.64D-14 BMatP= 1.97D-13
 IDIUse=1 WtCom= 1.00D+00 WtEn= 0.00D+00
 Coeff-Com: -0.150D-06 0.201D-06-0.291D-06-0.131D-05-0.686D-05-0.153D-04
 Coeff-Com: -0.300D-04 0.891D-04 0.319D-03-0.129D-03-0.262D-02 0.220D-02
 Coeff-Com:  0.151D-01-0.776D-02-0.594D-01-0.100D+00 0.349D+00 0.804D+00
 Coeff:     -0.150D-06 0.201D-06-0.291D-06-0.131D-05-0.686D-05-0.153D-04
 Coeff:     -0.300D-04 0.891D-04 0.319D-03-0.129D-03-0.262D-02 0.220D-02
 Coeff:      0.151D-01-0.776D-02-0.594D-01-0.100D+00 0.349D+00 0.804D+00
 Gap=     0.245 Goal=   None    Shift=    0.000
 RMSDP=3.18D-08 MaxDP=3.31D-06 DE=-9.55D-12 OVMax= 2.47D-07

 Cycle  19  Pass 1  IDiag  1:
 RMSU=  2.64D-09    CP:  6.31D-01  1.96D+00  2.00D+00  7.03D-01  8.08D-01
                    CP:  6.78D-01  1.06D+00  1.73D+00  1.20D+00  1.89D+00
                    CP:  1.94D+00  1.55D+00  1.82D+00  1.49D+00  1.87D+00
                    CP:  1.51D+00  1.33D+00  1.22D+00
 E= -3010.53190433914     Delta-E=        0.000000000008 Rises=F Damp=F
 DIIS: error= 9.16D-09 at cycle  19 NSaved=  19.
 NSaved=19 IEnMin=18 EnMin= -3010.53190433915     IErMin=19 ErrMin= 9.16D-09
 ErrMax= 9.16D-09  0.00D+00 EMaxC= 1.00D-01 BMatC= 4.58D-15 BMatP= 4.64D-14
 IDIUse=1 WtCom= 1.00D+00 WtEn= 0.00D+00
 Large coefficients: NSaved= 19 BigCof=    0.00 CofMax=   10.00 Det=-8.63D-15
 Inversion failed.  Reducing to 18 matrices.
 Coeff-Com:  0.858D-09-0.169D-07-0.748D-07 0.240D-06 0.153D-06-0.673D-05
 Coeff-Com: -0.668D-05 0.799D-04 0.142D-03-0.411D-03-0.474D-03 0.105D-03
 Coeff-Com:  0.463D-02 0.916D-02-0.357D-01-0.103D+00 0.268D-01 0.110D+01
 Coeff:      0.858D-09-0.169D-07-0.748D-07 0.240D-06 0.153D-06-0.673D-05
 Coeff:     -0.668D-05 0.799D-04 0.142D-03-0.411D-03-0.474D-03 0.105D-03
 Coeff:      0.463D-02 0.916D-02-0.357D-01-0.103D+00 0.268D-01 0.110D+01
 Gap=     0.245 Goal=   None    Shift=    0.000
 RMSDP=6.71D-09 MaxDP=6.46D-07 DE= 7.73D-12 OVMax= 1.84D-07

 SCF Done:  E(RwB97XD) =  -3010.53190434     A.U. after   19 cycles
            NFock= 19  Conv=0.67D-08     -V/T= 2.0016
 KE= 3.005851454160D+03 PE=-8.699513175956D+03 EE= 1.910245745769D+03
 Leave Link  502 at Tue May 23 16:50:52 2023, MaxMem=  1342177280 cpu:             609.2 elap:              25.5
 (Enter /software/gaussian/g16-c01/avx2/g16/l601.exe)
 Copying SCF densities to generalized density rwf, IOpCl= 0 IROHF=0.

 **********************************************************************

            Population analysis using the SCF Density.

 **********************************************************************

 Orbital symmetries:
       Occupied  (A) (A) (A) (A) (A) (A) (A) (A) (A) (A) (A) (A)
                 (A) (A) (A) (A) (A) (A) (A) (A) (A) (A) (A) (A)
                 (A) (A) (A) (A) (A) (A) (A) (A) (A) (A) (A) (A)
                 (A) (A) (A) (A) (A) (A) (A) (A) (A) (A) (A) (A)
                 (A)
       Virtual   (A) (A) (A) (A) (A) (A) (A) (A) (A) (A) (A) (A)
                 (A) (A) (A) (A) (A) (A) (A) (A) (A) (A) (A) (A)
                 (A) (A) (A) (A) (A) (A) (A) (A) (A) (A) (A) (A)
                 (A) (A) (A) (A) (A) (A) (A) (A) (A) (A) (A) (A)
                 (A) (A) (A) (A) (A) (A) (A) (A) (A) (A) (A) (A)
                 (A) (A) (A) (A) (A) (A) (A) (A) (A) (A) (A) (A)
                 (A) (A) (A) (A) (A) (A) (A) (A) (A) (A) (A) (A)
                 (A) (A) (A) (A) (A) (A) (A) (A) (A) (A) (A) (A)
                 (A) (A) (A) (A) (A) (A) (A) (A) (A) (A) (A) (A)
                 (A) (A) (A) (A) (A) (A) (A) (A) (A) (A) (A) (A)
                 (A) (A) (A) (A) (A) (A) (A) (A) (A) (A) (A) (A)
                 (A) (A) (A) (A) (A) (A) (A) (A) (A) (A) (A) (A)
                 (A) (A) (A) (A) (A) (A) (A) (A) (A) (A) (A) (A)
                 (A) (A) (A) (A) (A) (A) (A) (A) (A) (A) (A) (A)
                 (A) (A) (A) (A) (A) (A) (A) (A) (A) (A) (A) (A)
                 (A) (A) (A) (A) (A) (A) (A) (A) (A) (A) (A) (A)
                 (A) (A) (A) (A) (A) (A) (A) (A) (A) (A) (A) (A)
                 (A) (A) (A) (A) (A) (A) (A) (A)
 The electronic state is 1-A.
 Alpha  occ. eigenvalues -- -483.31025 -62.86046 -56.65742 -56.65170 -56.65159
 Alpha  occ. eigenvalues --  -19.46172 -19.46159 -14.85595 -10.59119 -10.57912
 Alpha  occ. eigenvalues --  -10.57194 -10.56857 -10.53280 -10.52645  -9.01850
 Alpha  occ. eigenvalues --   -6.84536  -6.82659  -6.82626  -2.94438  -2.93945
 Alpha  occ. eigenvalues --   -2.93918  -2.92417  -2.92416  -1.49858  -1.32818
 Alpha  occ. eigenvalues --   -1.22323  -1.12752  -1.12334  -1.04655  -1.00202
 Alpha  occ. eigenvalues --   -0.95242  -0.90476  -0.84869  -0.80823  -0.80057
 Alpha  occ. eigenvalues --   -0.79984  -0.77816  -0.76127  -0.75485  -0.71867
 Alpha  occ. eigenvalues --   -0.68428  -0.67469  -0.63232  -0.59707  -0.57343
 Alpha  occ. eigenvalues --   -0.56675  -0.56057  -0.55862  -0.54454
 Alpha virt. eigenvalues --   -0.29973  -0.20300  -0.15518  -0.12966  -0.08473
 Alpha virt. eigenvalues --   -0.06024  -0.05447  -0.04559  -0.04231  -0.03135
 Alpha virt. eigenvalues --   -0.02281  -0.01364  -0.01259  -0.00500   0.00643
 Alpha virt. eigenvalues --    0.01079   0.01681   0.01899   0.02742   0.03546
 Alpha virt. eigenvalues --    0.04410   0.05530   0.05814   0.06134   0.06926
 Alpha virt. eigenvalues --    0.07600   0.07729   0.08228   0.09377   0.09675
 Alpha virt. eigenvalues --    0.10135   0.10803   0.11741   0.11989   0.12698
 Alpha virt. eigenvalues --    0.13073   0.13392   0.13706   0.14817   0.15731
 Alpha virt. eigenvalues --    0.16718   0.17276   0.17554   0.18821   0.19052
 Alpha virt. eigenvalues --    0.20183   0.20878   0.21620   0.22482   0.24216
 Alpha virt. eigenvalues --    0.24719   0.26604   0.28090   0.29584   0.32179
 Alpha virt. eigenvalues --    0.32718   0.33552   0.33624   0.34492   0.36659
 Alpha virt. eigenvalues --    0.37418   0.37861   0.39681   0.40811   0.42038
 Alpha virt. eigenvalues --    0.43462   0.44240   0.45548   0.47065   0.47499
 Alpha virt. eigenvalues --    0.48717   0.50582   0.51034   0.52426   0.53723
 Alpha virt. eigenvalues --    0.55264   0.56110   0.58220   0.58329   0.60348
 Alpha virt. eigenvalues --    0.61298   0.62447   0.64686   0.67750   0.68351
 Alpha virt. eigenvalues --    0.71490   0.71759   0.72982   0.74517   0.74808
 Alpha virt. eigenvalues --    0.74995   0.77459   0.79770   0.83447   0.85752
 Alpha virt. eigenvalues --    0.87224   0.87778   0.91627   0.94352   0.98870
 Alpha virt. eigenvalues --    1.00486   1.02704   1.04035   1.05811   1.07089
 Alpha virt. eigenvalues --    1.08937   1.12700   1.13461   1.14174   1.18030
 Alpha virt. eigenvalues --    1.21125   1.22968   1.28275   1.33634   1.36475
 Alpha virt. eigenvalues --    1.37103   1.39177   1.43377   1.55112   1.56869
 Alpha virt. eigenvalues --    1.57463   1.60015   1.61408   1.64128   1.65987
 Alpha virt. eigenvalues --    1.68277   1.71651   1.74105   1.75462   1.79665
 Alpha virt. eigenvalues --    1.84141   1.85552   1.87470   1.95142   1.96434
 Alpha virt. eigenvalues --    1.98050   2.02694   2.03165   2.07444   2.09161
 Alpha virt. eigenvalues --    2.13075   2.14856   2.22515   2.23843   2.27583
 Alpha virt. eigenvalues --    2.33720   2.40056   2.41685   2.44536   2.53475
 Alpha virt. eigenvalues --    2.58273   2.63360   2.66167   2.68945   2.71784
 Alpha virt. eigenvalues --    2.73818   2.76476   2.77606   2.80737   2.82254
 Alpha virt. eigenvalues --    2.93436   2.98309   3.01552   3.06023   3.09191
 Alpha virt. eigenvalues --    3.15056   3.16554   3.17753   3.22610   3.26662
 Alpha virt. eigenvalues --    3.27985   3.38077   3.46820   3.50330   3.54811
 Alpha virt. eigenvalues --    3.57763   3.68972   3.74296   3.83867   3.87577
 Alpha virt. eigenvalues --    4.10223   4.11080   4.19631   4.23765   4.43453
 Alpha virt. eigenvalues --    4.45321   4.54856   4.59957   4.93622   4.96447
 Alpha virt. eigenvalues --    5.05316   5.09786   5.62073   6.15221   6.68241
 Alpha virt. eigenvalues --    7.49100   7.51421   7.61523  23.22384  23.61506
 Alpha virt. eigenvalues --   23.72103  23.78229  23.95891  24.02360  35.31570
 Alpha virt. eigenvalues --   47.94309  49.85294  49.93958 289.81947 289.84286
 Alpha virt. eigenvalues --  289.969061020.95486
          Condensed to atoms (all electrons):
               1          2          3          4          5          6
     1  C    7.808281  -2.512913   0.806453  -0.054498   0.297606   0.057688
     2  C   -2.512913  17.211820  -4.037306   0.432432  -0.014885   0.190759
     3  C    0.806453  -4.037306  18.840317  -1.332090   0.023938   0.118333
     4  C   -0.054498   0.432432  -1.332090   6.404332   0.021930  -0.015461
     5  H    0.297606  -0.014885   0.023938   0.021930   0.331417  -0.001665
     6  H    0.057688   0.190759   0.118333  -0.015461  -0.001665   0.312124
     7  H    0.027149  -0.026887   0.021666   0.305606  -0.002781  -0.000004
     8  N   -0.097238  -0.013589  -1.727275   0.019750  -0.000438  -0.029931
     9  O   -0.017277   0.265410  -0.078459  -0.016499  -0.000033  -0.002472
    10  O    0.271426  -0.195433  -0.243660  -0.022344   0.000006   0.021323
    11  C    0.750243  -0.622497   2.376080  -0.288857  -0.024916   0.008852
    12  H   -0.011206   0.017679   0.008371   0.017603   0.000018  -0.000017
    13  C   -1.219365  -4.685857  -8.505323   0.855914   0.024471  -0.009259
    14  H   -0.003621   0.012051   0.025477   0.003616  -0.000031   0.000044
    15  Br   0.006810  -0.204074  -0.221297   0.001843  -0.000030  -0.000553
               7          8          9         10         11         12
     1  C    0.027149  -0.097238  -0.017277   0.271426   0.750243  -0.011206
     2  C   -0.026887  -0.013589   0.265410  -0.195433  -0.622497   0.017679
     3  C    0.021666  -1.727275  -0.078459  -0.243660   2.376080   0.008371
     4  C    0.305606   0.019750  -0.016499  -0.022344  -0.288857   0.017603
     5  H   -0.002781  -0.000438  -0.000033   0.000006  -0.024916   0.000018
     6  H   -0.000004  -0.029931  -0.002472   0.021323   0.008852  -0.000017
     7  H    0.338309   0.000006   0.000004   0.000001   0.030883  -0.002333
     8  N    0.000006   7.637739   0.055106   0.196657  -0.316779   0.000495
     9  O    0.000004   0.055106   7.891274   0.004207   0.265947   0.000105
    10  O    0.000001   0.196657   0.004207   7.816786   0.004745  -0.000023
    11  C    0.030883  -0.316779   0.265947   0.004745   7.933538   0.313303
    12  H   -0.002333   0.000495   0.000105  -0.000023   0.313303   0.322103
    13  C   -0.021795   1.380797  -0.410891   0.074101  -4.300945  -0.017261
    14  H   -0.000031  -0.030223   0.012438  -0.001737   0.016302  -0.004685
    15  Br  -0.000419   0.164672  -0.057089   0.004135   0.056883  -0.000816
              13         14         15
     1  C   -1.219365  -0.003621   0.006810
     2  C   -4.685857   0.012051  -0.204074
     3  C   -8.505323   0.025477  -0.221297
     4  C    0.855914   0.003616   0.001843
     5  H    0.024471  -0.000031  -0.000030
     6  H   -0.009259   0.000044  -0.000553
     7  H   -0.021795  -0.000031  -0.000419
     8  N    1.380797  -0.030223   0.164672
     9  O   -0.410891   0.012438  -0.057089
    10  O    0.074101  -0.001737   0.004135
    11  C   -4.300945   0.016302   0.056883
    12  H   -0.017261  -0.004685  -0.000816
    13  C   22.511225   0.276140   0.406145
    14  H    0.276140   0.323645  -0.040569
    15  Br   0.406145  -0.040569  34.701129
 Mulliken charges:
               1
     1  C   -0.109537
     2  C    0.183289
     3  C   -0.075226
     4  C   -0.333276
     5  H    0.345394
     6  H    0.350239
     7  H    0.330626
     8  N   -0.239749
     9  O    0.088230
    10  O    0.069811
    11  C   -0.202782
    12  H    0.356663
    13  C   -0.358098
    14  H    0.411185
    15  Br   0.183230
 Sum of Mulliken charges =   1.00000
 Mulliken charges with hydrogens summed into heavy atoms:
               1
     1  C    0.235857
     2  C    0.533528
     3  C   -0.075226
     4  C   -0.002650
     8  N   -0.239749
     9  O    0.088230
    10  O    0.069811
    11  C    0.153882
    13  C    0.053087
    15  Br   0.183230
 Electronic spatial extent (au):  <R**2>=           1776.1330
 Charge=              1.0000 electrons
 Dipole moment (field-independent basis, Debye):
    X=             -2.9663    Y=              8.2814    Z=              1.0056  Tot=              8.8539
 Quadrupole moment (field-independent basis, Debye-Ang):
   XX=            -61.0504   YY=            -44.6459   ZZ=            -61.0375
   XY=              3.8429   XZ=             -3.8024   YZ=             -0.5285
 Traceless Quadrupole moment (field-independent basis, Debye-Ang):
   XX=             -5.4725   YY=             10.9320   ZZ=             -5.4596
   XY=              3.8429   XZ=             -3.8024   YZ=             -0.5285
 Octapole moment (field-independent basis, Debye-Ang**2):
  XXX=            -54.0388  YYY=             31.3053  ZZZ=             -3.9247  XYY=            -23.2258
  XXY=              6.2803  XXZ=              0.6745  XZZ=            -13.5650  YZZ=            -10.3975
  YYZ=            -20.2579  XYZ=            -10.9829
 Hexadecapole moment (field-independent basis, Debye-Ang**3):
 XXXX=           -975.7881 YYYY=           -681.6477 ZZZZ=           -180.3795 XXXY=             54.2104
 XXXZ=              9.4031 YYYX=             34.2900 YYYZ=            -24.2745 ZZZX=              6.1605
 ZZZY=              3.6805 XXYY=           -272.4226 XXZZ=           -176.9414 YYZZ=           -172.1952
 XXYZ=             11.8500 YYXZ=            -14.1482 ZZXY=             16.5146
 N-N= 7.728840716885D+02 E-N=-8.699513175525D+03  KE= 3.005851454160D+03
 No NMR shielding tensors so no spin-rotation constants.
 Leave Link  601 at Tue May 23 16:50:52 2023, MaxMem=  1342177280 cpu:               3.4 elap:               0.2
 (Enter /software/gaussian/g16-c01/avx2/g16/l607.exe)
 ******************************Gaussian NBO Version 3.1******************************
             N A T U R A L   A T O M I C   O R B I T A L   A N D
          N A T U R A L   B O N D   O R B I T A L   A N A L Y S I S
 ******************************Gaussian NBO Version 3.1******************************
       /RESON  / : Allow strongly delocalized NBO set

 Analyzing the SCF density

 Job title: TitleMe                                                         

 Storage needed:    205731 in NPA,    273540 in NBO (1342176005 available)
 GSVD:  LWork=       25497 too small for GESVD, short by       58455 words or       58455 for optimal perf.


 NATURAL POPULATIONS:  Natural atomic orbital occupancies 
                                                          
   NAO  Atom  No  lang   Type(AO)    Occupancy      Energy
 ----------------------------------------------------------
     1    C    1  S      Cor( 1S)     1.99924     -10.42622
     2    C    1  S      Val( 2S)     0.99775      -0.45085
     3    C    1  S      Ryd( 3S)     0.00091       0.63011
     4    C    1  S      Ryd( 4S)     0.00018       1.14309
     5    C    1  S      Ryd( 5S)     0.00001      22.49362
     6    C    1  px     Val( 2p)     0.97628      -0.28869
     7    C    1  px     Ryd( 3p)     0.00286       0.61915
     8    C    1  px     Ryd( 4p)     0.00049       0.62087
     9    C    1  px     Ryd( 5p)     0.00011       2.59572
    10    C    1  py     Val( 2p)     1.10006      -0.30763
    11    C    1  py     Ryd( 4p)     0.00562       0.79160
    12    C    1  py     Ryd( 3p)     0.00042       0.37766
    13    C    1  py     Ryd( 5p)     0.00008       2.76691
    14    C    1  pz     Val( 2p)     0.83296      -0.31669
    15    C    1  pz     Ryd( 4p)     0.00175       0.52743
    16    C    1  pz     Ryd( 3p)     0.00017       0.49288
    17    C    1  pz     Ryd( 5p)     0.00003       2.39766
    18    C    1  dxy    Ryd( 3d)     0.00062       2.20138
    19    C    1  dxz    Ryd( 3d)     0.00057       1.91180
    20    C    1  dyz    Ryd( 3d)     0.00083       1.67852
    21    C    1  dx2y2  Ryd( 3d)     0.00101       2.06748
    22    C    1  dz2    Ryd( 3d)     0.00055       1.63379
 
    23    C    2  S      Cor( 1S)     1.99898     -10.38364
    24    C    2  S      Val( 2S)     0.97308      -0.41366
    25    C    2  S      Ryd( 3S)     0.00240       0.53267
    26    C    2  S      Ryd( 4S)     0.00017       0.61675
    27    C    2  S      Ryd( 5S)     0.00001      23.01586
    28    C    2  px     Val( 2p)     1.16761      -0.33070
    29    C    2  px     Ryd( 4p)     0.00693       0.77911
    30    C    2  px     Ryd( 3p)     0.00041       0.25494
    31    C    2  px     Ryd( 5p)     0.00007       2.90513
    32    C    2  py     Val( 2p)     1.05122      -0.30665
    33    C    2  py     Ryd( 4p)     0.00419       0.68704
    34    C    2  py     Ryd( 3p)     0.00046       0.31448
    35    C    2  py     Ryd( 5p)     0.00023       3.06567
    36    C    2  pz     Val( 2p)     1.00423      -0.33272
    37    C    2  pz     Ryd( 4p)     0.00233       0.50557
    38    C    2  pz     Ryd( 3p)     0.00026       0.21449
    39    C    2  pz     Ryd( 5p)     0.00004       2.72221
    40    C    2  dxy    Ryd( 3d)     0.00108       1.63120
    41    C    2  dxz    Ryd( 3d)     0.00104       1.41710
    42    C    2  dyz    Ryd( 3d)     0.00076       1.50646
    43    C    2  dx2y2  Ryd( 3d)     0.00093       1.57316
    44    C    2  dz2    Ryd( 3d)     0.00119       1.38407
 
    45    C    3  S      Cor( 1S)     1.99876     -10.45267
    46    C    3  S      Val( 2S)     0.88899      -0.40861
    47    C    3  S      Ryd( 3S)     0.00106       0.65402
    48    C    3  S      Ryd( 4S)     0.00047       0.77864
    49    C    3  S      Ryd( 5S)     0.00002      22.75838
    50    C    3  px     Val( 2p)     0.93609      -0.31296
    51    C    3  px     Ryd( 3p)     0.00604       0.70876
    52    C    3  px     Ryd( 4p)     0.00060       0.78022
    53    C    3  px     Ryd( 5p)     0.00017       2.61690
    54    C    3  py     Val( 2p)     0.95047      -0.30862
    55    C    3  py     Ryd( 3p)     0.00560       0.64958
    56    C    3  py     Ryd( 4p)     0.00058       0.77895
    57    C    3  py     Ryd( 5p)     0.00025       2.63417
    58    C    3  pz     Val( 2p)     0.95938      -0.34658
    59    C    3  pz     Ryd( 3p)     0.00451       0.58498
    60    C    3  pz     Ryd( 4p)     0.00053       0.72160
    61    C    3  pz     Ryd( 5p)     0.00010       2.30562
    62    C    3  dxy    Ryd( 3d)     0.00162       2.19533
    63    C    3  dxz    Ryd( 3d)     0.00058       1.85451
    64    C    3  dyz    Ryd( 3d)     0.00048       2.02298
    65    C    3  dx2y2  Ryd( 3d)     0.00059       2.20737
    66    C    3  dz2    Ryd( 3d)     0.00068       1.75658
 
    67    C    4  S      Cor( 1S)     1.99914     -10.38127
    68    C    4  S      Val( 2S)     0.97477      -0.41412
    69    C    4  S      Ryd( 3S)     0.00218       0.50036
    70    C    4  S      Ryd( 4S)     0.00016       0.68661
    71    C    4  S      Ryd( 5S)     0.00001      23.03234
    72    C    4  px     Val( 2p)     1.10778      -0.31372
    73    C    4  px     Ryd( 4p)     0.00523       0.71864
    74    C    4  px     Ryd( 3p)     0.00033       0.39174
    75    C    4  px     Ryd( 5p)     0.00009       2.69978
    76    C    4  py     Val( 2p)     1.14656      -0.31877
    77    C    4  py     Ryd( 4p)     0.00585       0.78480
    78    C    4  py     Ryd( 3p)     0.00040       0.33732
    79    C    4  py     Ryd( 5p)     0.00009       2.75780
    80    C    4  pz     Val( 2p)     1.01062      -0.32700
    81    C    4  pz     Ryd( 4p)     0.00184       0.50170
    82    C    4  pz     Ryd( 3p)     0.00017       0.46413
    83    C    4  pz     Ryd( 5p)     0.00005       2.42273
    84    C    4  dxy    Ryd( 3d)     0.00087       1.90014
    85    C    4  dxz    Ryd( 3d)     0.00058       1.83126
    86    C    4  dyz    Ryd( 3d)     0.00065       1.76526
    87    C    4  dx2y2  Ryd( 3d)     0.00079       2.04638
    88    C    4  dz2    Ryd( 3d)     0.00032       1.62204
 
    89    H    5  S      Val( 1S)     0.74727      -0.13285
    90    H    5  S      Ryd( 3S)     0.00020       1.96911
    91    H    5  S      Ryd( 2S)     0.00009       0.56701
 
    92    H    6  S      Val( 1S)     0.70742      -0.10934
    93    H    6  S      Ryd( 2S)     0.00111       0.90056
    94    H    6  S      Ryd( 3S)     0.00014       1.59588
 
    95    H    7  S      Val( 1S)     0.73357      -0.11845
    96    H    7  S      Ryd( 2S)     0.00040       1.00602
    97    H    7  S      Ryd( 3S)     0.00015       1.49086
 
    98    N    8  S      Cor( 1S)     1.99941     -14.71412
    99    N    8  S      Val( 2S)     1.10815      -0.74743
   100    N    8  S      Ryd( 4S)     0.00326       1.07322
   101    N    8  S      Ryd( 3S)     0.00023       0.69496
   102    N    8  S      Ryd( 5S)     0.00001      35.14460
   103    N    8  px     Val( 2p)     1.12498      -0.49198
   104    N    8  px     Ryd( 4p)     0.01260       0.77503
   105    N    8  px     Ryd( 3p)     0.00087       0.48870
   106    N    8  px     Ryd( 5p)     0.00004       4.04920
   107    N    8  py     Val( 2p)     1.13948      -0.49594
   108    N    8  py     Ryd( 4p)     0.01162       0.76594
   109    N    8  py     Ryd( 3p)     0.00093       0.48961
   110    N    8  py     Ryd( 5p)     0.00004       4.02862
   111    N    8  pz     Val( 2p)     1.12393      -0.49865
   112    N    8  pz     Ryd( 4p)     0.00771       0.67197
   113    N    8  pz     Ryd( 3p)     0.00031       0.45423
   114    N    8  pz     Ryd( 5p)     0.00004       3.80640
   115    N    8  dxy    Ryd( 3d)     0.00478       2.48597
   116    N    8  dxz    Ryd( 3d)     0.00233       2.40028
   117    N    8  dyz    Ryd( 3d)     0.00213       2.37322
   118    N    8  dx2y2  Ryd( 3d)     0.00289       2.48086
   119    N    8  dz2    Ryd( 3d)     0.00456       2.12835
 
   120    O    9  S      Cor( 1S)     1.99982     -19.25245
   121    O    9  S      Val( 2S)     1.76908      -1.16438
   122    O    9  S      Ryd( 3S)     0.00158       1.21084
   123    O    9  S      Ryd( 4S)     0.00038       1.37013
   124    O    9  S      Ryd( 5S)     0.00000      49.70803
   125    O    9  px     Val( 2p)     1.76019      -0.52878
   126    O    9  px     Ryd( 3p)     0.00248       0.78623
   127    O    9  px     Ryd( 4p)     0.00017       0.79813
   128    O    9  px     Ryd( 5p)     0.00003       4.83088
   129    O    9  py     Val( 2p)     1.39327      -0.47253
   130    O    9  py     Ryd( 4p)     0.00165       0.70089
   131    O    9  py     Ryd( 3p)     0.00014       0.65614
   132    O    9  py     Ryd( 5p)     0.00012       5.00845
   133    O    9  pz     Val( 2p)     1.38545      -0.47820
   134    O    9  pz     Ryd( 3p)     0.00179       0.69667
   135    O    9  pz     Ryd( 4p)     0.00015       0.70791
   136    O    9  pz     Ryd( 5p)     0.00007       4.86748
   137    O    9  dxy    Ryd( 3d)     0.00120       2.99651
   138    O    9  dxz    Ryd( 3d)     0.00044       2.87688
   139    O    9  dyz    Ryd( 3d)     0.00135       3.27453
   140    O    9  dx2y2  Ryd( 3d)     0.00103       3.08028
   141    O    9  dz2    Ryd( 3d)     0.00112       2.86100
 
   142    O   10  S      Cor( 1S)     1.99982     -19.25051
   143    O   10  S      Val( 2S)     1.76577      -1.16086
   144    O   10  S      Ryd( 3S)     0.00158       1.24848
   145    O   10  S      Ryd( 4S)     0.00030       1.36028
   146    O   10  S      Ryd( 5S)     0.00000      49.71112
   147    O   10  px     Val( 2p)     1.33512      -0.46234
   148    O   10  px     Ryd( 3p)     0.00157       0.70336
   149    O   10  px     Ryd( 4p)     0.00016       0.72988
   150    O   10  px     Ryd( 5p)     0.00013       4.93577
   151    O   10  py     Val( 2p)     1.79414      -0.53216
   152    O   10  py     Ryd( 3p)     0.00254       0.78939
   153    O   10  py     Ryd( 4p)     0.00018       0.91915
   154    O   10  py     Ryd( 5p)     0.00002       4.66852
   155    O   10  pz     Val( 2p)     1.39546      -0.47776
   156    O   10  pz     Ryd( 3p)     0.00181       0.69851
   157    O   10  pz     Ryd( 4p)     0.00012       0.81166
   158    O   10  pz     Ryd( 5p)     0.00007       4.74523
   159    O   10  dxy    Ryd( 3d)     0.00123       2.97075
   160    O   10  dxz    Ryd( 3d)     0.00140       3.29279
   161    O   10  dyz    Ryd( 3d)     0.00040       2.83997
   162    O   10  dx2y2  Ryd( 3d)     0.00108       3.13783
   163    O   10  dz2    Ryd( 3d)     0.00108       2.86173
 
   164    C   11  S      Cor( 1S)     1.99918     -10.42619
   165    C   11  S      Val( 2S)     0.99091      -0.45694
   166    C   11  S      Ryd( 3S)     0.00187       0.52128
   167    C   11  S      Ryd( 4S)     0.00025       1.02226
   168    C   11  S      Ryd( 5S)     0.00001      22.69066
   169    C   11  px     Val( 2p)     1.09616      -0.32350
   170    C   11  px     Ryd( 4p)     0.00539       0.66899
   171    C   11  px     Ryd( 3p)     0.00036       0.30741
   172    C   11  px     Ryd( 5p)     0.00008       2.81875
   173    C   11  py     Val( 2p)     0.97383      -0.29470
   174    C   11  py     Ryd( 4p)     0.00403       0.52307
   175    C   11  py     Ryd( 3p)     0.00065       0.48665
   176    C   11  py     Ryd( 5p)     0.00009       2.84644
   177    C   11  pz     Val( 2p)     0.86029      -0.32498
   178    C   11  pz     Ryd( 4p)     0.00318       0.47925
   179    C   11  pz     Ryd( 3p)     0.00033       0.38914
   180    C   11  pz     Ryd( 5p)     0.00004       2.55796
   181    C   11  dxy    Ryd( 3d)     0.00084       1.97927
   182    C   11  dxz    Ryd( 3d)     0.00072       1.62364
   183    C   11  dyz    Ryd( 3d)     0.00069       1.81620
   184    C   11  dx2y2  Ryd( 3d)     0.00099       1.90274
   185    C   11  dz2    Ryd( 3d)     0.00069       1.53642
 
   186    H   12  S      Val( 1S)     0.73909      -0.12774
   187    H   12  S      Ryd( 3S)     0.00039       1.30745
   188    H   12  S      Ryd( 2S)     0.00013       1.22987
 
   189    C   13  S      Cor( 1S)     1.99895     -10.44164
   190    C   13  S      Val( 2S)     1.03854      -0.52528
   191    C   13  S      Ryd( 4S)     0.00407       0.90284
   192    C   13  S      Ryd( 3S)     0.00089       0.56840
   193    C   13  S      Ryd( 5S)     0.00001      23.37677
   194    C   13  px     Val( 2p)     1.04915      -0.37315
   195    C   13  px     Ryd( 4p)     0.00572       0.49410
   196    C   13  px     Ryd( 3p)     0.00045       0.35485
   197    C   13  px     Ryd( 5p)     0.00013       2.97413
   198    C   13  py     Val( 2p)     1.09998      -0.39158
   199    C   13  py     Ryd( 4p)     0.00702       0.45879
   200    C   13  py     Ryd( 3p)     0.00048       0.37112
   201    C   13  py     Ryd( 5p)     0.00013       2.86234
   202    C   13  pz     Val( 2p)     1.16654      -0.39602
   203    C   13  pz     Ryd( 4p)     0.00526       0.53108
   204    C   13  pz     Ryd( 3p)     0.00074       0.48151
   205    C   13  pz     Ryd( 5p)     0.00011       2.68989
   206    C   13  dxy    Ryd( 3d)     0.00093       1.94525
   207    C   13  dxz    Ryd( 3d)     0.00135       1.76832
   208    C   13  dyz    Ryd( 3d)     0.00117       1.65096
   209    C   13  dx2y2  Ryd( 3d)     0.00106       1.80248
   210    C   13  dz2    Ryd( 3d)     0.00125       1.66744
 
   211    H   14  S      Val( 1S)     0.66272      -0.11295
   212    H   14  S      Ryd( 2S)     0.00139       0.61881
   213    H   14  S      Ryd( 3S)     0.00017       1.95990
 
   214   Br   15  S      Cor( 1S)     2.00000    -482.19327
   215   Br   15  S      Cor( 2S)     2.00000     -60.65791
   216   Br   15  S      Cor( 3S)     1.99986     -12.02563
   217   Br   15  S      Val( 4S)     1.91823      -1.28218
   218   Br   15  S      Ryd( 6S)     0.00125       1.04295
   219   Br   15  S      Ryd( 5S)     0.00031       0.23080
   220   Br   15  S      Ryd( 7S)     0.00000      14.90305
   221   Br   15  S      Ryd( 8S)     0.00000      66.55798
   222   Br   15  S      Ryd( 9S)     0.00000     993.51891
   223   Br   15  px     Cor( 2p)     2.00000     -56.41434
   224   Br   15  px     Cor( 3p)     1.99996      -7.06590
   225   Br   15  px     Val( 4p)     1.67539      -0.52404
   226   Br   15  px     Ryd( 6p)     0.00155       0.35549
   227   Br   15  px     Ryd( 5p)     0.00016       0.15947
   228   Br   15  px     Ryd( 7p)     0.00002       2.06930
   229   Br   15  px     Ryd( 8p)     0.00000      12.01403
   230   Br   15  px     Ryd( 9p)     0.00000     285.17987
   231   Br   15  py     Cor( 2p)     2.00000     -56.41529
   232   Br   15  py     Cor( 3p)     1.99993      -7.06901
   233   Br   15  py     Val( 4p)     1.52007      -0.50795
   234   Br   15  py     Ryd( 6p)     0.00136       0.35488
   235   Br   15  py     Ryd( 5p)     0.00019       0.15661
   236   Br   15  py     Ryd( 7p)     0.00003       2.06864
   237   Br   15  py     Ryd( 8p)     0.00000      12.00538
   238   Br   15  py     Ryd( 9p)     0.00000     285.18054
   239   Br   15  pz     Cor( 2p)     2.00000     -56.41463
   240   Br   15  pz     Cor( 3p)     1.99995      -7.06668
   241   Br   15  pz     Val( 4p)     1.62178      -0.51544
   242   Br   15  pz     Ryd( 6p)     0.00135       0.31821
   243   Br   15  pz     Ryd( 5p)     0.00021       0.15391
   244   Br   15  pz     Ryd( 7p)     0.00001       2.00806
   245   Br   15  pz     Ryd( 8p)     0.00000      11.97437
   246   Br   15  pz     Ryd( 9p)     0.00000     285.17688
   247   Br   15  dxy    Cor( 3d)     1.99994      -2.93446
   248   Br   15  dxy    Ryd( 4d)     0.00195       0.75704
   249   Br   15  dxy    Ryd( 5d)     0.00001       4.18476
   250   Br   15  dxz    Cor( 3d)     1.99993      -2.93261
   251   Br   15  dxz    Ryd( 4d)     0.00158       0.76629
   252   Br   15  dxz    Ryd( 5d)     0.00001       4.18389
   253   Br   15  dyz    Cor( 3d)     1.99993      -2.93520
   254   Br   15  dyz    Ryd( 4d)     0.00239       0.72858
   255   Br   15  dyz    Ryd( 5d)     0.00001       4.17452
   256   Br   15  dx2y2  Cor( 3d)     1.99998      -2.93456
   257   Br   15  dx2y2  Ryd( 4d)     0.00126       0.69854
   258   Br   15  dx2y2  Ryd( 5d)     0.00001       4.14984
   259   Br   15  dz2    Cor( 3d)     1.99998      -2.93382
   260   Br   15  dz2    Ryd( 4d)     0.00076       0.71774
   261   Br   15  dz2    Ryd( 5d)     0.00000       4.15448

 WARNING:  1 low occupancy (<1.9990e) core orbital  found on  C    2
           1 low occupancy (<1.9990e) core orbital  found on  C    3
           1 low occupancy (<1.9990e) core orbital  found on  C   13

 WARNING:  Population inversion found on atom  C    1
           Population inversion found on atom  C    2
           Population inversion found on atom  C    4
           Population inversion found on atom  H    5
           Population inversion found on atom  N    8
           Population inversion found on atom  O    9
           Population inversion found on atom  C   11
           Population inversion found on atom  H   12
           Population inversion found on atom  C   13
           Population inversion found on atom Br   15


 Summary of Natural Population Analysis:                  
                                                          
                                       Natural Population 
                Natural  -----------------------------------------------
    Atom  No    Charge         Core      Valence    Rydberg      Total
 -----------------------------------------------------------------------
      C    1    0.07751      1.99924     3.90706    0.01619     5.92249
      C    2   -0.21761      1.99898     4.19614    0.02250     6.21761
      C    3    0.24242      1.99876     3.73492    0.02389     5.75758
      C    4   -0.25845      1.99914     4.23973    0.01958     6.25845
      H    5    0.25245      0.00000     0.74727    0.00028     0.74755
      H    6    0.29132      0.00000     0.70742    0.00126     0.70868
      H    7    0.26587      0.00000     0.73357    0.00055     0.73413
      N    8    0.44971      1.99941     4.49654    0.05435     6.55029
      O    9   -0.32151      1.99982     6.30799    0.01369     8.32151
      O   10   -0.30398      1.99982     6.29050    0.01366     8.30398
      C   11    0.05942      1.99918     3.92118    0.02021     5.94058
      H   12    0.26040      0.00000     0.73909    0.00052     0.73960
      C   13   -0.38393      1.99895     4.35421    0.03077     6.38393
      H   14    0.33572      0.00000     0.66272    0.00156     0.66428
     Br   15    0.25065     27.99945     6.73548    0.01441    34.74935
 =======================================================================
   * Total *    1.00000     45.99275    51.77382    0.23344    98.00000

                                 Natural Population      
 --------------------------------------------------------
   Core                      45.99275 ( 99.9842% of  46)
   Valence                   51.77382 ( 99.5650% of  52)
   Natural Minimal Basis     97.76656 ( 99.7618% of  98)
   Natural Rydberg Basis      0.23344 (  0.2382% of  98)
 --------------------------------------------------------

    Atom  No          Natural Electron Configuration
 ----------------------------------------------------------------------------
      C    1      [core]2S( 1.00)2p( 2.91)4p( 0.01)
      C    2      [core]2S( 0.97)2p( 3.22)3d( 0.01)4p( 0.01)
      C    3      [core]2S( 0.89)2p( 2.85)3p( 0.02)
      C    4      [core]2S( 0.97)2p( 3.26)4p( 0.01)
      H    5            1S( 0.75)
      H    6            1S( 0.71)
      H    7            1S( 0.73)
      N    8      [core]2S( 1.11)2p( 3.39)3d( 0.02)4p( 0.03)
      O    9      [core]2S( 1.77)2p( 4.54)3d( 0.01)
      O   10      [core]2S( 1.77)2p( 4.52)3p( 0.01)3d( 0.01)
      C   11      [core]2S( 0.99)2p( 2.93)4p( 0.01)
      H   12            1S( 0.74)
      C   13      [core]2S( 1.04)2p( 3.32)3d( 0.01)4p( 0.02)
      H   14            1S( 0.66)
     Br   15      [core]4S( 1.92)4p( 4.82)4d( 0.01)


 NATURAL BOND ORBITAL ANALYSIS:

                       Occupancies       Lewis Structure    Low   High
           Occ.    -------------------  -----------------   occ   occ
  Cycle   Thresh.   Lewis   Non-Lewis     CR  BD  3C  LP    (L)   (NL)   Dev
 =============================================================================
   1(1)    1.90    93.29107   4.70893     23  16   0  10     6      6    0.85
   2(2)    1.90    93.29107   4.70893     23  16   0  10     6      6    0.85
   3(1)    1.80    94.51161   3.48839     23  16   0  10     3      5    0.61
   4(2)    1.80    94.51161   3.48839     23  16   0  10     3      5    0.61
   5(1)    1.70    94.51161   3.48839     23  16   0  10     3      5    0.61
   6(2)    1.70    94.51161   3.48839     23  16   0  10     3      5    0.61
   7(1)    1.60    95.28324   2.71676     23  17   0   9     2      5    0.50
   8(2)    1.60    95.27254   2.72746     23  17   0   9     2      5    0.52
   9(3)    1.60    95.28324   2.71676     23  17   0   9     2      5    0.50
  10(1)    1.50    95.86847   2.13153     23  18   0   8     1      5    0.50
  11(2)    1.50    95.85777   2.14223     23  18   0   8     1      5    0.52
  12(3)    1.50    95.86847   2.13153     23  18   0   8     1      5    0.50
 -----------------------------------------------------------------------------

 Structure accepted: RESONANCE keyword permits strongly delocalized structure

 WARNING:  1 low occupancy (<1.9990e) core orbital  found on  C    2
           1 low occupancy (<1.9990e) core orbital  found on  C    3
           1 low occupancy (<1.9990e) core orbital  found on  C   13

 --------------------------------------------------------
   Core                     45.99276 ( 99.984% of  46)
   Valence Lewis            49.87571 ( 95.915% of  52)
  ==================       ============================
   Total Lewis              95.86847 ( 97.825% of  98)
  -----------------------------------------------------
   Valence non-Lewis         1.97674 (  2.017% of  98)
   Rydberg non-Lewis         0.15479 (  0.158% of  98)
  ==================       ============================
   Total non-Lewis           2.13153 (  2.175% of  98)
 --------------------------------------------------------


       (Occupancy)   Bond orbital/ Coefficients/ Hybrids
 ---------------------------------------------------------------------------------
     1. (1.97854) BD ( 1) C   1 - C   2  
                ( 49.23%)   0.7016* C   1 s( 34.56%)p 1.89( 65.43%)d 0.00(  0.02%)
                                            0.0000  0.5878 -0.0078  0.0004  0.0005
                                            0.5408 -0.0319  0.0063  0.0003 -0.5988
                                           -0.0150 -0.0118 -0.0009 -0.0366  0.0225
                                            0.0016  0.0003 -0.0113 -0.0008 -0.0009
                                           -0.0031 -0.0074
                ( 50.77%)   0.7125* C   2 s( 33.51%)p 1.98( 66.39%)d 0.00(  0.10%)
                                           -0.0002  0.5787 -0.0161  0.0028  0.0001
                                           -0.5300 -0.0239  0.0104 -0.0002  0.6170
                                           -0.0305 -0.0042  0.0003  0.0043  0.0239
                                           -0.0037  0.0001 -0.0251 -0.0076  0.0003
                                            0.0030 -0.0171
     2. (1.98392) BD ( 1) C   1 - C   4  
                ( 49.72%)   0.7051* C   1 s( 36.08%)p 1.77( 63.87%)d 0.00(  0.04%)
                                            0.0000  0.6006 -0.0129 -0.0001 -0.0001
                                           -0.6963  0.0211 -0.0092  0.0013 -0.0629
                                           -0.0370 -0.0046 -0.0004  0.3846  0.0044
                                            0.0066 -0.0003  0.0065 -0.0155 -0.0036
                                            0.0123 -0.0021
                ( 50.28%)   0.7091* C   4 s( 34.21%)p 1.92( 65.74%)d 0.00(  0.05%)
                                            0.0000  0.5847 -0.0150  0.0002  0.0001
                                            0.6968 -0.0017 -0.0108 -0.0008  0.0890
                                           -0.0420  0.0023  0.0002 -0.4021  0.0181
                                            0.0045  0.0004 -0.0024 -0.0155  0.0002
                                            0.0142 -0.0053
     3. (1.98177) BD ( 1) C   1 - H   5  
                ( 62.60%)   0.7912* C   1 s( 29.28%)p 2.41( 70.64%)d 0.00(  0.08%)
                                           -0.0003  0.5409  0.0169 -0.0005 -0.0004
                                            0.1855  0.0052 -0.0021  0.0013  0.7211
                                            0.0171 -0.0105  0.0019 -0.3890 -0.0093
                                            0.0053 -0.0014  0.0116 -0.0028 -0.0185
                                           -0.0174 -0.0028
                ( 37.40%)   0.6116* H   5 s(100.00%)
                                            1.0000  0.0007 -0.0001
     4. (1.97936) BD ( 1) C   2 - C   3  
                ( 49.39%)   0.7028* C   2 s( 35.67%)p 1.80( 64.21%)d 0.00(  0.12%)
                                            0.0001  0.5969 -0.0197 -0.0004 -0.0001
                                           -0.1630 -0.0241  0.0025 -0.0012 -0.7030
                                            0.0163  0.0068 -0.0040  0.3468  0.0055
                                           -0.0046  0.0021  0.0098 -0.0109 -0.0241
                                           -0.0167 -0.0099
                ( 50.61%)   0.7114* C   3 s( 39.54%)p 1.53( 60.44%)d 0.00(  0.01%)
                                           -0.0001  0.6288 -0.0041 -0.0041  0.0002
                                            0.1869 -0.0235 -0.0005  0.0011  0.6507
                                            0.0073 -0.0100  0.0069 -0.3811  0.0088
                                            0.0045 -0.0035  0.0042 -0.0027 -0.0085
                                           -0.0063 -0.0017
     5. (1.69811) BD ( 2) C   2 - C   3  
                ( 50.84%)   0.7130* C   2 s(  0.01%)p 1.00( 99.87%)d 0.00(  0.12%)
                                            0.0001  0.0088  0.0010  0.0018 -0.0002
                                            0.4046 -0.0018  0.0017  0.0001  0.3334
                                            0.0000  0.0009  0.0003  0.8508 -0.0016
                                            0.0030  0.0005 -0.0139 -0.0152 -0.0050
                                           -0.0060  0.0273
                ( 49.16%)   0.7011* C   3 s(  0.00%)p 1.00( 99.97%)d 0.00(  0.03%)
                                           -0.0002  0.0046 -0.0017  0.0021  0.0004
                                            0.3997  0.0071  0.0053  0.0026  0.3716
                                            0.0032 -0.0001 -0.0004  0.8377  0.0019
                                            0.0069  0.0003  0.0076  0.0013  0.0100
                                           -0.0027 -0.0115
     6. (1.97362) BD ( 1) C   2 - H   6  
                ( 64.59%)   0.8037* C   2 s( 30.74%)p 2.25( 69.18%)d 0.00(  0.08%)
                                           -0.0003  0.5538  0.0275 -0.0018  0.0001
                                            0.7251  0.0161  0.0086 -0.0032  0.1072
                                           -0.0017  0.0054  0.0012 -0.3925 -0.0064
                                           -0.0063  0.0011  0.0017 -0.0200 -0.0030
                                            0.0175 -0.0067
                ( 35.41%)   0.5951* H   6 s(100.00%)
                                            1.0000  0.0016  0.0012
     7. (1.98928) BD ( 1) C   3 - N   8  
                ( 38.37%)   0.6194* C   3 s( 24.76%)p 3.03( 75.10%)d 0.01(  0.13%)
                                           -0.0002  0.4975 -0.0038  0.0125  0.0007
                                            0.5800 -0.0057  0.0031 -0.0018 -0.6438
                                            0.0021 -0.0035  0.0025  0.0061  0.0023
                                            0.0004 -0.0003 -0.0321  0.0023  0.0019
                                           -0.0020 -0.0174
                ( 61.63%)   0.7851* N   8 s( 34.82%)p 1.87( 65.13%)d 0.00(  0.05%)
                                            0.0001  0.5891  0.0341  0.0001  0.0005
                                           -0.5403 -0.0188  0.0126 -0.0008  0.5983
                                            0.0183 -0.0128  0.0012 -0.0205  0.0006
                                           -0.0003 -0.0002 -0.0190  0.0041  0.0029
                                           -0.0016 -0.0089
     8. (1.97869) BD ( 1) C   3 - C  13  
                ( 49.64%)   0.7046* C   3 s( 35.57%)p 1.81( 64.39%)d 0.00(  0.04%)
                                           -0.0001  0.5964  0.0010 -0.0041 -0.0010
                                           -0.6840 -0.0169  0.0086  0.0010 -0.1518
                                            0.0121  0.0008  0.0022  0.3905 -0.0032
                                           -0.0022 -0.0012  0.0052 -0.0137 -0.0019
                                            0.0124 -0.0027
                ( 50.36%)   0.7096* C  13 s( 30.83%)p 2.24( 69.11%)d 0.00(  0.06%)
                                            0.0001  0.5549  0.0187 -0.0072  0.0002
                                            0.7180 -0.0232 -0.0026  0.0047  0.1093
                                            0.0096  0.0002  0.0008 -0.4036 -0.0130
                                            0.0016 -0.0048  0.0060 -0.0187 -0.0039
                                            0.0125 -0.0007
     9. (1.97804) BD ( 1) C   4 - H   7  
                ( 63.33%)   0.7958* C   4 s( 30.55%)p 2.27( 69.39%)d 0.00(  0.06%)
                                           -0.0004  0.5521  0.0265 -0.0026 -0.0000
                                           -0.5333 -0.0133 -0.0071 -0.0012  0.6392
                                            0.0143  0.0093  0.0014  0.0183  0.0016
                                            0.0001  0.0001 -0.0207 -0.0000  0.0007
                                           -0.0037 -0.0115
                ( 36.67%)   0.6055* H   7 s(100.00%)
                                            1.0000  0.0008  0.0011
    10. (1.98429) BD ( 1) C   4 - C  11  
                ( 50.07%)   0.7076* C   4 s( 35.22%)p 1.84( 64.73%)d 0.00(  0.04%)
                                            0.0000  0.5932 -0.0182  0.0028 -0.0001
                                           -0.1973  0.0390 -0.0005 -0.0003 -0.6860
                                           -0.0019  0.0103  0.0002  0.3684 -0.0203
                                           -0.0047 -0.0001  0.0030 -0.0027 -0.0136
                                           -0.0146 -0.0059
                ( 49.93%)   0.7066* C  11 s( 36.75%)p 1.72( 63.20%)d 0.00(  0.04%)
                                           -0.0000  0.6060 -0.0163 -0.0002  0.0007
                                            0.1575  0.0347  0.0040  0.0011  0.6797
                                           -0.0299  0.0092  0.0027 -0.3781 -0.0065
                                           -0.0067 -0.0015  0.0083 -0.0064 -0.0152
                                           -0.0097 -0.0020
    11. (1.57224) BD ( 2) C   4 - C  11  
                ( 59.14%)   0.7690* C   4 s(  0.01%)p 1.00( 99.91%)d 0.00(  0.08%)
                                            0.0000  0.0079  0.0028  0.0015  0.0001
                                            0.4342  0.0029  0.0028  0.0004  0.3313
                                            0.0035  0.0016  0.0003  0.8371  0.0086
                                            0.0045  0.0001 -0.0057  0.0138 -0.0202
                                            0.0144  0.0022
                ( 40.86%)   0.6392* C  11 s(  0.01%)p99.99( 99.88%)d 9.52(  0.11%)
                                           -0.0003  0.0081 -0.0052  0.0046  0.0008
                                            0.4527  0.0035  0.0001 -0.0023  0.3449
                                            0.0073  0.0008 -0.0004  0.8214  0.0061
                                           -0.0072 -0.0027  0.0152  0.0068  0.0102
                                            0.0014 -0.0268
    12. (1.99524) BD ( 1) N   8 - O   9  
                ( 50.14%)   0.7081* N   8 s( 32.23%)p 2.10( 67.65%)d 0.00(  0.13%)
                                           -0.0000 -0.5674  0.0197  0.0007  0.0005
                                            0.1598  0.0099 -0.0078 -0.0006  0.6891
                                           -0.0510  0.0004 -0.0025 -0.4158  0.0223
                                            0.0036  0.0017 -0.0147  0.0064  0.0253
                                            0.0187  0.0030
                ( 49.86%)   0.7061* O   9 s( 22.19%)p 3.50( 77.67%)d 0.01(  0.15%)
                                           -0.0000 -0.4700  0.0317  0.0033  0.0002
                                           -0.2085  0.0141 -0.0009  0.0006 -0.6827
                                            0.0233  0.0070 -0.0000  0.5157 -0.0199
                                           -0.0031 -0.0003 -0.0126  0.0073  0.0292
                                            0.0197  0.0004
    13. (1.99558) BD ( 1) N   8 - O  10  
                ( 50.20%)   0.7085* N   8 s( 32.63%)p 2.06( 67.25%)d 0.00(  0.12%)
                                            0.0000  0.5708 -0.0208  0.0003 -0.0004
                                            0.7142 -0.0504  0.0005 -0.0024  0.0689
                                            0.0147 -0.0059 -0.0005 -0.3930  0.0213
                                            0.0036  0.0015  0.0082 -0.0254 -0.0028
                                            0.0223 -0.0029
                ( 49.80%)   0.7057* O  10 s( 22.52%)p 3.43( 77.34%)d 0.01(  0.14%)
                                            0.0000  0.4734 -0.0317 -0.0030 -0.0002
                                           -0.7303  0.0259  0.0077  0.0007 -0.1147
                                            0.0097 -0.0014  0.0002  0.4751 -0.0190
                                           -0.0033 -0.0005  0.0071 -0.0288 -0.0029
                                            0.0235 -0.0024
[...]
    80. RY*(  13) C   2                  0.00003     1.94693   
    81. RY*(  14) C   2                  0.00001     1.71357   
    82. RY*(  15) C   2                  0.00000     2.50841   
    83. RY*(  16) C   2                  0.00001     2.03346   
    84. RY*(  17) C   2                  0.00000    21.06762   
    85. RY*(   1) C   3                  0.00816     1.01864   
    86. RY*(   2) C   3                  0.00532     0.71694   
    87. RY*(   3) C   3                  0.00300     0.53719   
    88. RY*(   4) C   3                  0.00104     1.12479   
    89. RY*(   5) C   3                  0.00084     1.44481   
    90. RY*(   6) C   3                  0.00070     1.12362   
    91. RY*(   7) C   3                  0.00061     1.53211   
    92. RY*(   8) C   3                  0.00046     1.45637   
    93. RY*(   9) C   3                  0.00026     1.27310   
    94. RY*(  10) C   3                  0.00027     3.20634   
    95. RY*(  11) C   3                  0.00016     1.75372   
    96. RY*(  12) C   3                  0.00013     0.99753   
    97. RY*(  13) C   3                  0.00006     2.25169   
    98. RY*(  14) C   3                  0.00003     3.14191   
    99. RY*(  15) C   3                  0.00001     1.84078   
   100. RY*(  16) C   3                  0.00001    19.78147   
   101. RY*(  17) C   3                  0.00000     2.79510   
   102. RY*(   1) C   4                  0.00652     0.88618   
   103. RY*(   2) C   4                  0.00252     1.11571   
   104. RY*(   3) C   4                  0.00079     0.49824   
   105. RY*(   4) C   4                  0.00040     0.93698   
   106. RY*(   5) C   4                  0.00035     0.56256   
   107. RY*(   6) C   4                  0.00015     1.38322   
   108. RY*(   7) C   4                  0.00014     1.54356   
   109. RY*(   8) C   4                  0.00010     1.32176   
   110. RY*(   9) C   4                  0.00006     2.57333   
   111. RY*(  10) C   4                  0.00006     1.62270   
   112. RY*(  11) C   4                  0.00002     2.37521   
   113. RY*(  12) C   4                  0.00001     1.42893   
   114. RY*(  13) C   4                  0.00000     1.83840   
   115. RY*(  14) C   4                  0.00000     1.43505   
   116. RY*(  15) C   4                  0.00000    21.62022   
   117. RY*(  16) C   4                  0.00000     1.08555   
   118. RY*(  17) C   4                  0.00000     2.22136   
   119. RY*(   1) H   5                  0.00020     1.96849   
   120. RY*(   2) H   5                  0.00009     0.56724   
   121. RY*(   1) H   6                  0.00111     0.90178   
   122. RY*(   2) H   6                  0.00015     1.59350   
   123. RY*(   1) H   7                  0.00041     1.00965   
   124. RY*(   2) H   7                  0.00015     1.48655   
   125. RY*(   1) N   8                  0.01820     0.97302   
   126. RY*(   2) N   8                  0.01055     1.41037   
   127. RY*(   3) N   8                  0.00841     1.98317   
   128. RY*(   4) N   8                  0.00292     2.74474   
   129. RY*(   5) N   8                  0.00267     1.58056   
   130. RY*(   6) N   8                  0.00173     0.81451   
   131. RY*(   7) N   8                  0.00032     1.48581   
   132. RY*(   8) N   8                  0.00017     1.08861   
   133. RY*(   9) N   8                  0.00012     1.35282   
   134. RY*(  10) N   8                  0.00005     1.56028   
   135. RY*(  11) N   8                  0.00003     1.57242   
   136. RY*(  12) N   8                  0.00003     2.17395   
   137. RY*(  13) N   8                  0.00000     3.42558   
   138. RY*(  14) N   8                  0.00000     3.89162   
   139. RY*(  15) N   8                  0.00000    33.88950   
   140. RY*(  16) N   8                  0.00000     0.74401   
   141. RY*(  17) N   8                  0.00000     3.60198   
   142. RY*(   1) O   9                  0.00241     0.85536   
   143. RY*(   2) O   9                  0.00168     0.81109   
   144. RY*(   3) O   9                  0.00134     1.47230   
   145. RY*(   4) O   9                  0.00035     0.66586   
   146. RY*(   5) O   9                  0.00012     0.98450   
   147. RY*(   6) O   9                  0.00006     2.16243   
   148. RY*(   7) O   9                  0.00002     0.78076   
   149. RY*(   8) O   9                  0.00002     1.08253   
   150. RY*(   9) O   9                  0.00001     5.06494   
   151. RY*(  10) O   9                  0.00001     2.83553   
   152. RY*(  11) O   9                  0.00000     4.87592   
   153. RY*(  12) O   9                  0.00000     4.62412   
   154. RY*(  13) O   9                  0.00001     2.64104   
   155. RY*(  14) O   9                  0.00000     2.55364   
   156. RY*(  15) O   9                  0.00001     2.96988   
   157. RY*(  16) O   9                  0.00000    49.05211   
   158. RY*(  17) O   9                  0.00000     2.98678   
   159. RY*(   1) O  10                  0.00243     0.84238   
   160. RY*(   2) O  10                  0.00211     0.82033   
   161. RY*(   3) O  10                  0.00129     1.51826   
   162. RY*(   4) O  10                  0.00029     0.72492   
   163. RY*(   5) O  10                  0.00011     0.91160   
   164. RY*(   6) O  10                  0.00006     2.09364   
   165. RY*(   7) O  10                  0.00003     2.82033   
   166. RY*(   8) O  10                  0.00001     1.76634   
   167. RY*(   9) O  10                  0.00000     4.88336   
   168. RY*(  10) O  10                  0.00000    49.31297   
   169. RY*(  11) O  10                  0.00000     0.98689   
   170. RY*(  12) O  10                  0.00000     4.87445   
   171. RY*(  13) O  10                  0.00000     2.88984   
   172. RY*(  14) O  10                  0.00000     3.23293   
   173. RY*(  15) O  10                  0.00001     2.74640   
   174. RY*(  16) O  10                  0.00001     3.17624   
   175. RY*(  17) O  10                  0.00000     2.80948   
   176. RY*(   1) C  11                  0.00517     0.76317   
   177. RY*(   2) C  11                  0.00306     0.46114   
   178. RY*(   3) C  11                  0.00243     0.77944   
   179. RY*(   4) C  11                  0.00108     1.42776   
   180. RY*(   5) C  11                  0.00066     0.86709   
   181. RY*(   6) C  11                  0.00043     1.29766   
   182. RY*(   7) C  11                  0.00023     1.14385   
   183. RY*(   8) C  11                  0.00011     1.55910   
   184. RY*(   9) C  11                  0.00007     1.49613   
   185. RY*(  10) C  11                  0.00004     1.43370   
   186. RY*(  11) C  11                  0.00002     2.69853   
   187. RY*(  12) C  11                  0.00001     2.58941   
   188. RY*(  13) C  11                  0.00001     2.64423   
   189. RY*(  14) C  11                  0.00002     1.52128   
   190. RY*(  15) C  11                  0.00002     1.52096   
   191. RY*(  16) C  11                  0.00000    19.87645   
   192. RY*(  17) C  11                  0.00000     2.07746   
   193. RY*(   1) H  12                  0.00039     1.30796   
   194. RY*(   2) H  12                  0.00013     1.22884   
   195. RY*(   1) C  13                  0.00828     0.49650   
   196. RY*(   2) C  13                  0.00622     0.54147   
   197. RY*(   3) C  13                  0.00149     0.80175   
   198. RY*(   4) C  13                  0.00120     1.32796   
   199. RY*(   5) C  13                  0.00082     1.06541   
   200. RY*(   6) C  13                  0.00064     0.81767   
   201. RY*(   7) C  13                  0.00044     1.14069   
   202. RY*(   8) C  13                  0.00032     1.46903   
   203. RY*(   9) C  13                  0.00016     1.31770   
   204. RY*(  10) C  13                  0.00013     2.39229   
   205. RY*(  11) C  13                  0.00007     1.89103   
   206. RY*(  12) C  13                  0.00007     0.87400   
   207. RY*(  13) C  13                  0.00005     1.87372   
   208. RY*(  14) C  13                  0.00002     2.52487   
   209. RY*(  15) C  13                  0.00001     2.40139   
   210. RY*(  16) C  13                  0.00000    21.69539   
   211. RY*(  17) C  13                  0.00001     2.25606   
   212. RY*(   1) H  14                  0.00140     0.61734   
   213. RY*(   2) H  14                  0.00017     1.95941   
   214. RY*(   1)Br  15                  0.00181     0.49416   
   215. RY*(   2)Br  15                  0.00124     0.49647   
   216. RY*(   3)Br  15                  0.00061     0.68429   
   217. RY*(   4)Br  15                  0.00031     0.39932   
   218. RY*(   5)Br  15                  0.00018     0.38575   
   219. RY*(   6)Br  15                  0.00012     0.50167   
   220. RY*(   7)Br  15                  0.00007     0.85424   
   221. RY*(   8)Br  15                  0.00006     0.70727   
   222. RY*(   9)Br  15                  0.00003     0.65630   
   223. RY*(  10)Br  15                  0.00004     0.52743   
   224. RY*(  11)Br  15                  0.00001     0.88520   
   225. RY*(  12)Br  15                  0.00001     1.01494   
   226. RY*(  13)Br  15                  0.00000     1.93002   
   227. RY*(  14)Br  15                  0.00000    11.95594   
   228. RY*(  15)Br  15                  0.00000   285.19243   
   229. RY*(  16)Br  15                  0.00000    13.83924   
   230. RY*(  17)Br  15                  0.00001     0.52362   
   231. RY*(  18)Br  15                  0.00000     1.97222   
   232. RY*(  19)Br  15                  0.00000    11.93516   
   233. RY*(  20)Br  15                  0.00000   285.18400   
   234. RY*(  21)Br  15                  0.00000    11.95197   
   235. RY*(  22)Br  15                  0.00000     4.15232   
   236. RY*(  23)Br  15                  0.00000     1.87464   
   237. RY*(  24)Br  15                  0.00000     4.14469   
   238. RY*(  25)Br  15                  0.00000   285.16750   
   239. RY*(  26)Br  15                  0.00000     4.07396   
   240. RY*(  27)Br  15                  0.00000   993.54442   
   241. RY*(  28)Br  15                  0.00000     4.02919   
   242. RY*(  29)Br  15                  0.00000    66.72682   
   243. RY*(  30)Br  15                  0.00000     4.12634   
   244. BD*(   1) C   1 - C   2          0.01404     0.37047   
   245. BD*(   1) C   1 - C   4          0.01405     0.41014   
   246. BD*(   1) C   1 - H   5          0.00961     0.30511   
   247. BD*(   1) C   2 - C   3          0.02028     0.45779   
   248. BD*(   2) C   2 - C   3          0.12832    -0.12285  261(v),42(v),257(v),254(r)
                                                    71(g)
   249. BD*(   1) C   2 - H   6          0.01329     0.30222   
   250. BD*(   1) C   3 - N   8          0.10707     0.14030  249(v),244(v),259(v),260(v)
                                                    88(g),126(g),132(g)
   251. BD*(   1) C   3 - C  13          0.02879     0.29450   
   252. BD*(   1) C   4 - H   7          0.01313     0.30671   
   253. BD*(   1) C   4 - C  11          0.01451     0.43623   
   254. BD*(   2) C   4 - C  11          0.13559    -0.13341  261(v),42(v),248(r),106(g)
   255. BD*(   1) N   8 - O   9          0.05648     0.28830   
   256. BD*(   1) N   8 - O  10          0.05278     0.29854   
   257. BD*(   2) N   8 - O  10          0.60697    -0.28636  45(v),248(v),127(g),160(g)
                                                    143(v),140(g)
   258. BD*(   1) C  11 - H  12          0.01069     0.30761   
   259. BD*(   1) C  11 - C  13          0.01741     0.29371   
   260. BD*(   1) C  13 - H  14          0.01894     0.27343   
   261. BD*(   1) C  13 -Br  15          0.01981    -0.10756   
       -------------------------------
              Total Lewis   95.86847  ( 97.8250%)
        Valence non-Lewis    1.97674  (  2.0171%)
        Rydberg non-Lewis    0.15479  (  0.1579%)
       -------------------------------
            Total unit  1   98.00000  (100.0000%)
           Charge unit  1    1.00000
 Sorting of NBOs:                   28   29   33   35   31   24   25   23   30   21
 Sorting of NBOs:                   27   26   19   20   22   34   36   32   39   40
 Sorting of NBOs:                   37   41   38   13   12   48    7   43   46    4
 Sorting of NBOs:                   10    2    8    1   16   15    3   17    9    6
 Sorting of NBOs:                   18   14   49   50    5   44   47   11   45   42
 Sorting of NBOs:                  257  254  248  261  250  260  255  259  251  256
 Sorting of NBOs:                  249  246  252  258  244   71  218  217  245  253
 Sorting of NBOs:                  247  177  214  215  195  104  219  230  223   87
 Sorting of NBOs:                  196  106  120   70  212  222  145  216   61  221
 Sorting of NBOs:                   86  162  140  176   75  178  148   69   55  197
 Sorting of NBOs:                  143  130  200  160   72  159   68  220  142   54
 Sorting of NBOs:                  180  206  224  102  121  163   51  105  125  146
 Sorting of NBOs:                  169   96  123  225   85   76  199   59  149   65
 Sorting of NBOs:                  117  132   78  103   90   88  201  182  194   52
 Sorting of NBOs:                   93  181  193  203  109  198  133   74  107  126
 Sorting of NBOs:                  179  113   57  185  115   89   92  202  144  131
 Sorting of NBOs:                  124  184  161  190  189   91  108   67  183  134
 Sorting of NBOs:                  135  129   53  122   56  111   60   81   66   95
 Sorting of NBOs:                  166   79  114   99  207  236  205  226   80  213
 Sorting of NBOs:                  119  231  127   62   83   77  192  164  147  136
 Sorting of NBOs:                  118   97  211   73  112  204  209   82  208  155
 Sorting of NBOs:                  110   58  187  154  188  186  128  173  101  175
 Sorting of NBOs:                  165  151  171  156  158   98  174   94  172  137
 Sorting of NBOs:                  141  138   63  241  239  243  237  235  153  170
 Sorting of NBOs:                  152  167  150  232  234  227  229  100  191   64
 Sorting of NBOs:                   84  116  210  139  157  168  242  238  233  228
 Sorting of NBOs:                  240
 Reordering of NBOs for storage:    28   29   33   35   31   24   25   23   30   21
 Reordering of NBOs for storage:    27   26   19   20   22   34   36   32   39   40
 Reordering of NBOs for storage:    37   41   38   13   12   48    7   43   46    4
 Reordering of NBOs for storage:    10    2    8    1   16   15    3   17    9    6
 Reordering of NBOs for storage:    18   14   49   50    5   44   47   11   45   42
 Reordering of NBOs for storage:   257  254  248  261  250  260  255  259  251  256
 Reordering of NBOs for storage:   249  246  252  258  244  245  253  247   71  218
 Reordering of NBOs for storage:   217  177  214  215  195  104  219  230  223   87
 Reordering of NBOs for storage:   196  106  120   70  212  222  145  216   61  221
 Reordering of NBOs for storage:    86  162  140  176   75  178  148   69   55  197
 Reordering of NBOs for storage:   143  130  200  160   72  159   68  220  142   54
 Reordering of NBOs for storage:   180  206  224  102  121  163   51  105  125  146
 Reordering of NBOs for storage:   169   96  123  225   85   76  199   59  149   65
 Reordering of NBOs for storage:   117  132   78  103   90   88  201  182  194   52
 Reordering of NBOs for storage:    93  181  193  203  109  198  133   74  107  126
 Reordering of NBOs for storage:   179  113   57  185  115   89   92  202  144  131
 Reordering of NBOs for storage:   124  184  161  190  189   91  108   67  183  134
 Reordering of NBOs for storage:   135  129   53  122   56  111   60   81   66   95
 Reordering of NBOs for storage:   166   79  114   99  207  236  205  226   80  213
 Reordering of NBOs for storage:   119  231  127   62   83   77  192  164  147  136
 Reordering of NBOs for storage:   118   97  211   73  112  204  209   82  208  155
 Reordering of NBOs for storage:   110   58  187  154  188  186  128  173  101  175
 Reordering of NBOs for storage:   165  151  171  156  158   98  174   94  172  137
 Reordering of NBOs for storage:   141  138   63  241  239  243  237  235  153  170
 Reordering of NBOs for storage:   152  167  150  232  234  227  229  100  191   64
 Reordering of NBOs for storage:    84  116  210  139  157  168  242  238  233  228
 Reordering of NBOs for storage:   240
 Labels of output orbitals:  CR  CR  CR  CR  CR  CR  CR  CR  CR  CR  CR  CR  CR  CR  CR  CR  CR  CR  CR  CR  
 Labels of output orbitals:  CR  CR  CR  BD  BD  LP  BD  LP  LP  BD  BD  BD  BD  BD  BD  BD  BD  BD  BD  BD  
 Labels of output orbitals:  BD  BD  LP  LP  BD  LP  LP  BD  LP  LP* BD* BD* BD* BD* BD* BD* BD* BD* BD* BD* 
 Labels of output orbitals:  BD* BD* BD* BD* BD* BD* BD* BD* RY* RY* RY* RY* RY* RY* RY* RY* RY* RY* RY* RY* 
 Labels of output orbitals:  RY* RY* RY* RY* RY* RY* RY* RY* RY* RY* RY* RY* RY* RY* RY* RY* RY* RY* RY* RY* 
 Labels of output orbitals:  RY* RY* RY* RY* RY* RY* RY* RY* RY* RY* RY* RY* RY* RY* RY* RY* RY* RY* RY* RY* 
 Labels of output orbitals:  RY* RY* RY* RY* RY* RY* RY* RY* RY* RY* RY* RY* RY* RY* RY* RY* RY* RY* RY* RY* 
 Labels of output orbitals:  RY* RY* RY* RY* RY* RY* RY* RY* RY* RY* RY* RY* RY* RY* RY* RY* RY* RY* RY* RY* 
 Labels of output orbitals:  RY* RY* RY* RY* RY* RY* RY* RY* RY* RY* RY* RY* RY* RY* RY* RY* RY* RY* RY* RY* 
 Labels of output orbitals:  RY* RY* RY* RY* RY* RY* RY* RY* RY* RY* RY* RY* RY* RY* RY* RY* RY* RY* RY* RY* 
 Labels of output orbitals:  RY* RY* RY* RY* RY* RY* RY* RY* RY* RY* RY* RY* RY* RY* RY* RY* RY* RY* RY* RY* 
 Labels of output orbitals:  RY* RY* RY* RY* RY* RY* RY* RY* RY* RY* RY* RY* RY* RY* RY* RY* RY* RY* RY* RY* 
 Labels of output orbitals:  RY* RY* RY* RY* RY* RY* RY* RY* RY* RY* RY* RY* RY* RY* RY* RY* RY* RY* RY* RY* 
 Labels of output orbitals:  RY* 
 GSVD:  LWork=       -2793 too small for GESVD, short by       12740 words or       12740 for optimal perf.
 GSVD:  LWork=      -46640 too small for GESVD, short by      227900 words or      227900 for optimal perf.
 Leave Link  607 at Tue May 23 16:50:53 2023, MaxMem=  1342177280 cpu:              18.7 elap:               0.8
 (Enter /software/gaussian/g16-c01/avx2/g16/l9999.exe)
 Unable to Open any file for archive entry.
 1\1\GINC-BHD0001\SP\RwB97XD\6-311+G(d)\C6H5Br1N1O2(1+)\BWEIGHT\23-May-
 2023\0\\#P wB97XD/6-311+G* pop=(NBO,saveNBO)\\TitleMe\\1,1\C,0,0.51932
 475,1.23303451,-0.03194925\C,0,1.94454413,1.26916358,-0.03672882\C,0,2
 .62037793,0.09283428,-0.02499003\C,0,-0.19603352,0.03013062,0.00102732
 \H,0,-0.0206942,2.17423764,-0.04336646\H,0,2.48281698,2.20891057,-0.03
 611879\H,0,-1.27770137,0.03990295,0.01166953\N,0,4.09213475,0.09594076
 ,0.03662979\O,0,4.63930696,-1.02169275,0.1445922\O,0,4.66489883,1.1983
 9699,-0.02327545\C,0,0.49428518,-1.16712649,0.02099746\H,0,-0.03251071
 ,-2.11492669,0.05447935\C,0,1.96291176,-1.21653219,-0.02111314\H,0,2.4
 4359113,-1.96306433,0.61513886\Br,0,2.17304025,-1.94912156,-1.9061875\
 \Version=ES64L-G16RevC.01\State=1-A\HF=-3010.5319043\RMSD=6.710e-09\Di
 pole=-3.2347512,0.8720798,0.9538737\Quadrupole=0.1409801,3.9331568,-4.
 074137,-4.6382468,-4.6662323,2.5539942\PG=C01 [X(C6H5Br1N1O2)]\\@
 The archive entry for this job was punched.


 "I COULD HAVE DONE IT IN A MUCH MORE COMPLICATED WAY"
 SAID THE RED QUEEN, IMMENSELY PROUD.

                                      -- LEWIS CARROLL
 Job cpu time:       0 days  0 hours 11 minutes  7.8 seconds.
 Elapsed time:       0 days  0 hours  0 minutes 28.2 seconds.
 File lengths (MBytes):  RWF=     40 Int=      0 D2E=      0 Chk=     32 Scr=      1
 Normal termination of Gaussian 16 at Tue May 23 16:50:53 2023.
