 Entering Gaussian System, Link 0=g16
 Initial command:
 /software/gaussian/g16-c01/sse4/g16/l1.exe "/local_scratch/24657439/Gau-15569.inp" -scrdir="/local_scratch/24657439/"
 Entering Link 1 = /software/gaussian/g16-c01/sse4/g16/l1.exe PID=     15572.
  
 Copyright (c) 1988-2019, Gaussian, Inc.  All Rights Reserved.
  
 This is part of the Gaussian(R) 16 program.  It is based on
 the Gaussian(R) 09 system (copyright 2009, Gaussian, Inc.),
 the Gaussian(R) 03 system (copyright 2003, Gaussian, Inc.),
 the Gaussian(R) 98 system (copyright 1998, Gaussian, Inc.),
 the Gaussian(R) 94 system (copyright 1995, Gaussian, Inc.),
 the Gaussian 92(TM) system (copyright 1992, Gaussian, Inc.),
 the Gaussian 90(TM) system (copyright 1990, Gaussian, Inc.),
 the Gaussian 88(TM) system (copyright 1988, Gaussian, Inc.),
 the Gaussian 86(TM) system (copyright 1986, Carnegie Mellon
 University), and the Gaussian 82(TM) system (copyright 1983,
 Carnegie Mellon University). Gaussian is a federally registered
 trademark of Gaussian, Inc.
  
 This software contains proprietary and confidential information,
 including trade secrets, belonging to Gaussian, Inc.
  
 This software is provided under written license and may be
 used, copied, transmitted, or stored only in accord with that
 written license.
  
 The following legend is applicable only to US Government
 contracts under FAR:
  
                    RESTRICTED RIGHTS LEGEND
  
 Use, reproduction and disclosure by the US Government is
 subject to restrictions as set forth in subparagraphs (a)
 and (c) of the Commercial Computer Software - Restricted
 Rights clause in FAR 52.227-19.
  
 Gaussian, Inc.
 340 Quinnipiac St., Bldg. 40, Wallingford CT 06492
  
  
 ---------------------------------------------------------------
 Warning -- This program may not be used in any manner that
 competes with the business of Gaussian, Inc. or will provide
 assistance to any competitor of Gaussian, Inc.  The licensee
 of this program is prohibited from giving any competitor of
 Gaussian, Inc. access to this program.  By using this program,
 the user acknowledges that Gaussian, Inc. is engaged in the
 business of creating and licensing software in the field of
 computational chemistry and represents and warrants to the
 licensee that it is not a competitor of Gaussian, Inc. and that
 it will not use this program in any manner prohibited above.
 ---------------------------------------------------------------
  

 Cite this work as:
 Gaussian 16, Revision C.01,
 M. J. Frisch, G. W. Trucks, H. B. Schlegel, G. E. Scuseria, 
 M. A. Robb, J. R. Cheeseman, G. Scalmani, V. Barone, 
 G. A. Petersson, H. Nakatsuji, X. Li, M. Caricato, A. V. Marenich, 
 J. Bloino, B. G. Janesko, R. Gomperts, B. Mennucci, H. P. Hratchian, 
 J. V. Ortiz, A. F. Izmaylov, J. L. Sonnenberg, D. Williams-Young, 
 F. Ding, F. Lipparini, F. Egidi, J. Goings, B. Peng, A. Petrone, 
 T. Henderson, D. Ranasinghe, V. G. Zakrzewski, J. Gao, N. Rega, 
 G. Zheng, W. Liang, M. Hada, M. Ehara, K. Toyota, R. Fukuda, 
 J. Hasegawa, M. Ishida, T. Nakajima, Y. Honda, O. Kitao, H. Nakai, 
 T. Vreven, K. Throssell, J. A. Montgomery, Jr., J. E. Peralta, 
 F. Ogliaro, M. J. Bearpark, J. J. Heyd, E. N. Brothers, K. N. Kudin, 
 V. N. Staroverov, T. A. Keith, R. Kobayashi, J. Normand, 
 K. Raghavachari, A. P. Rendell, J. C. Burant, S. S. Iyengar, 
 J. Tomasi, M. Cossi, J. M. Millam, M. Klene, C. Adamo, R. Cammi, 
 J. W. Ochterski, R. L. Martin, K. Morokuma, O. Farkas, 
 J. B. Foresman, and D. J. Fox, Gaussian, Inc., Wallingford CT, 2019.
 
 ******************************************
 Gaussian 16:  ES64L-G16RevC.01  3-Jul-2019
                 1-May-2024 
 ******************************************
 %chk=geometry.chk
 %mem=9GB
 %nprocshared=12
 Will use up to   12 processors via shared memory.
 ---------------------------------------
 #P wB97XD/6-311+G* NoSymm #P Field=X-19
 ---------------------------------------
 1/38=1,172=1/1;
 2/12=2,15=1,17=6,18=5,40=1/2;
 3/5=4,6=6,7=11,11=2,14=1,15=-19,25=1,30=1,74=-58/1,2,3;
 4//1;
 5/5=2,38=5/2;
 6/7=2,8=2,9=2,10=2,28=1/1;
 99/5=1,9=1/99;
 Leave Link    1 at Wed May  1 14:27:44 2024, MaxMem=  1207959552 cpu:               1.6 elap:               1.6
 (Enter /software/gaussian/g16-c01/sse4/g16/l101.exe)
 -------
 TitleMe
 -------
 Symbolic Z-matrix:
 Charge =  1 Multiplicity = 1
 C                     0.0295    1.3397    0.0682 
 C                     1.4348    1.2867    0.0064 
 C                     2.1118    0.0511   -0.0054 
 C                     1.4451   -1.1372    0.0312 
 C                    -0.6879    0.1682    0.11 
 H                    -0.4713    2.2984    0.0781 
 H                     2.0273    2.1965   -0.0322 
 H                     1.9897   -2.0764    0.0232 
 H                    -1.7716    0.1804    0.1582 
 N                     3.5864    0.051    -0.0675 
 O                     4.1471   -1.0597   -0.0881 
 O                     4.145     1.1639   -0.0901 
 C                    -0.0236   -1.1458    0.0835 
 H                    -0.4367   -1.8725    0.7889 
 Br                   -0.5359   -1.8697   -1.7408 
 
 ITRead=  0  0  0  0  0  0  0  0  0  0  0  0  0  0  0
 MicOpt= -1 -1 -1 -1 -1 -1 -1 -1 -1 -1 -1 -1 -1 -1 -1
 NAtoms=     15 NQM=       15 NQMF=       0 NMMI=      0 NMMIF=      0
                NMic=       0 NMicF=      0.
                    Isotopes and Nuclear Properties:
 (Nuclear quadrupole moments (NQMom) in fm**2, nuclear magnetic moments (NMagM)
  in nuclear magnetons)

  Atom         1           2           3           4           5           6           7           8           9          10
 IAtWgt=          12          12          12          12          12           1           1           1           1          14
 AtmWgt=  12.0000000  12.0000000  12.0000000  12.0000000  12.0000000   1.0078250   1.0078250   1.0078250   1.0078250  14.0030740
 NucSpn=           0           0           0           0           0           1           1           1           1           2
 AtZEff=  -0.0000000  -0.0000000  -0.0000000  -0.0000000  -0.0000000  -0.0000000  -0.0000000  -0.0000000  -0.0000000  -0.0000000
 NQMom=    0.0000000   0.0000000   0.0000000   0.0000000   0.0000000   0.0000000   0.0000000   0.0000000   0.0000000   2.0440000
 NMagM=    0.0000000   0.0000000   0.0000000   0.0000000   0.0000000   2.7928460   2.7928460   2.7928460   2.7928460   0.4037610
 AtZNuc=   6.0000000   6.0000000   6.0000000   6.0000000   6.0000000   1.0000000   1.0000000   1.0000000   1.0000000   7.0000000

  Atom        11          12          13          14          15
 IAtWgt=          16          16          12           1          79
 AtmWgt=  15.9949146  15.9949146  12.0000000   1.0078250  78.9183361
 NucSpn=           0           0           0           1           3
 AtZEff=  -0.0000000  -0.0000000  -0.0000000  -0.0000000  -0.0000000
 NQMom=    0.0000000   0.0000000   0.0000000   0.0000000  31.3000000
 NMagM=    0.0000000   0.0000000   0.0000000   2.7928460   2.1063990
 AtZNuc=   8.0000000   8.0000000   6.0000000   1.0000000  35.0000000
 Leave Link  101 at Wed May  1 14:27:45 2024, MaxMem=  1207959552 cpu:               1.4 elap:               1.4
 (Enter /software/gaussian/g16-c01/sse4/g16/l202.exe)
                          Input orientation:                          
 ---------------------------------------------------------------------
 Center     Atomic      Atomic             Coordinates (Angstroms)
 Number     Number       Type             X           Y           Z
 ---------------------------------------------------------------------
      1          6           0        0.029500    1.339700    0.068200
      2          6           0        1.434800    1.286700    0.006400
      3          6           0        2.111800    0.051100   -0.005400
      4          6           0        1.445100   -1.137200    0.031200
      5          6           0       -0.687900    0.168200    0.110000
      6          1           0       -0.471300    2.298400    0.078100
      7          1           0        2.027300    2.196500   -0.032200
      8          1           0        1.989700   -2.076400    0.023200
      9          1           0       -1.771600    0.180400    0.158200
     10          7           0        3.586400    0.051000   -0.067500
     11          8           0        4.147100   -1.059700   -0.088100
     12          8           0        4.145000    1.163900   -0.090100
     13          6           0       -0.023600   -1.145800    0.083500
     14          1           0       -0.436700   -1.872500    0.788900
     15         35           0       -0.535900   -1.869700   -1.740800
 ---------------------------------------------------------------------
                    Distance matrix (angstroms):
                    1          2          3          4          5
     1  C    0.000000
     2  C    1.407656   0.000000
     3  C    2.449874   1.408963   0.000000
     4  C    2.853126   2.424049   1.363043   0.000000
     5  C    1.374344   2.401589   2.804523   2.501993   0.000000
     6  H    1.081667   2.159142   3.424870   3.934226   2.141421
     7  H    2.176095   1.086408   2.147231   3.384750   3.392128
     8  H    3.938800   3.408612   2.131193   1.085702   3.495040
     9  H    2.143837   3.395283   3.888995   3.478413   1.084840
    10  N    3.785591   2.482297   1.475907   2.450862   4.279589
    11  O    4.768247   3.587631   2.320164   2.705743   4.992415
    12  O    4.122294   2.714696   2.319353   3.549540   4.938459
    13  C    2.486114   2.837240   2.449573   1.469656   1.472614
    14  H    3.324903   3.754379   3.290289   2.157764   2.165286
    15  Br   3.727252   4.110867   3.702891   2.756973   2.757100
                    6          7          8          9         10
     6  H    0.000000
     7  H    2.503108   0.000000
     8  H    5.019802   4.273425   0.000000
     9  H    2.486588   4.304945   4.388479   0.000000
    10  N    4.640790   2.652397   2.661486   5.364313   0.000000
    11  O    5.712624   3.885809   2.387560   6.052233   1.244373
    12  O    4.756638   2.356750   3.893289   6.002923   1.245428
    13  C    3.473180   3.923079   2.218790   2.195425   3.806210
    14  H    4.231175   4.827242   2.552506   2.528663   4.540772
    15  Br   4.548146   5.101303   3.087568   3.055498   4.845862
                   11         12         13         14         15
    11  O    0.000000
    12  O    2.223602   0.000000
    13  C    4.175117   4.768865   0.000000
    14  H    4.737193   5.566358   1.093770   0.000000
    15  Br   5.031700   5.817075   2.028436   2.531646   0.000000
 Symmetry turned off by external request.
 Stoichiometry    C6H5BrNO2(1+)
 Framework group  C1[X(C6H5BrNO2)]
 Deg. of freedom    39
 Full point group                 C1      NOp   1
 Rotational constants (GHZ):           1.8252210           0.5518633           0.4576002
 Leave Link  202 at Wed May  1 14:27:47 2024, MaxMem=  1207959552 cpu:               1.2 elap:               1.2
 (Enter /software/gaussian/g16-c01/sse4/g16/l301.exe)
 Standard basis: 6-311+G(d) (5D, 7F)
 Ernie: Thresh=  0.10000D-02 Tol=  0.10000D-05 Strict=F.
 The following finite field(s) will be applied:
 An electric field of             -0.0019  0.0000  0.0000
   261 basis functions,   443 primitive gaussians,   273 cartesian basis functions
    49 alpha electrons       49 beta electrons
       nuclear repulsion energy       739.2122215416 Hartrees.
 IExCor= 4639 DFT=T Ex+Corr=wB97XD ExCW=0 ScaHFX=  1.000000
 ScaDFX=  1.000000  1.000000  1.000000  1.000000 ScalE2=  1.000000  1.000000
 IRadAn=      5 IRanWt=     -1 IRanGd=            0 ICorTp=0 IEmpDi=121
 HFx  wShort=  0.000000 wLong=  0.200000 cFull=  0.222036 cShort=  0.000000 cLong=  0.777964
 DFx  wShort=  0.000000 wLong=  0.200000 cFull=  0.000000 cShort=  0.000000 cLong=  1.000000
 NAtoms=   15 NActive=   15 NUniq=   15 SFac= 1.00D+00 NAtFMM=   60 NAOKFM=F Big=F
 Integral buffers will be    131072 words long.
 Raffenetti 2 integral format.
 Two-electron integral symmetry is turned off.
 R6Disp:  Grimme-D2 Dispersion energy=       -0.0077368520 Hartrees.
 Nuclear repulsion after empirical dispersion term =      739.2044846896 Hartrees.
 Leave Link  301 at Wed May  1 14:27:48 2024, MaxMem=  1207959552 cpu:               0.9 elap:               0.9
 (Enter /software/gaussian/g16-c01/sse4/g16/l302.exe)
 NPDir=0 NMtPBC=     1 NCelOv=     1 NCel=       1 NClECP=     1 NCelD=      1
         NCelK=      1 NCelE2=     1 NClLst=     1 CellRange=     0.0.
 One-electron integrals computed using PRISM.
 NBasis=   261 RedAO= T EigKep=  2.35D-06  NBF=   261
 NBsUse=   261 1.00D-06 EigRej= -1.00D+00 NBFU=   261
 Precomputing XC quadrature grid using
 IXCGrd= 4 IRadAn=           5 IRanWt=          -1 IRanGd=           0 AccXCQ= 0.00D+00.
 Generated NRdTot=       0 NPtTot=           0 NUsed=           0 NTot=          32
 NSgBfM=   273   273   273   273   273 MxSgAt=    15 MxSgA2=    15.
 Leave Link  302 at Wed May  1 14:28:09 2024, MaxMem=  1207959552 cpu:              21.1 elap:              21.1
 (Enter /software/gaussian/g16-c01/sse4/g16/l303.exe)
 DipDrv:  MaxL=1.
 The nuclear repulsion energy is now       738.8458650701 hartrees.
 Leave Link  303 at Wed May  1 14:28:13 2024, MaxMem=  1207959552 cpu:               3.3 elap:               3.3
 (Enter /software/gaussian/g16-c01/sse4/g16/l401.exe)
 ExpMin= 3.50D-02 ExpMax= 4.40D+05 ExpMxC= 1.51D+04 IAcc=3 IRadAn=         5 AccDes= 0.00D+00
 Harris functional with IExCor= 4639 and IRadAn=       5 diagonalized for initial guess.
 HarFok:  IExCor= 4639 AccDes= 0.00D+00 IRadAn=         5 IDoV= 1 UseB2=F ITyADJ=14
 ICtDFT=  3500011 ScaDFX=  1.000000  1.000000  1.000000  1.000000
 FoFCou: FMM=F IPFlag=           0 FMFlag=      100000 FMFlg1=           0
         NFxFlg=           0 DoJE=T BraDBF=F KetDBF=T FulRan=T
         wScrn=  0.000000 ICntrl=       500 IOpCl=  0 I1Cent=   200000004 NGrid=           0
         NMat0=    1 NMatS0=      1 NMatT0=    0 NMatD0=    1 NMtDS0=    0 NMtDT0=    0
 Symmetry not used in FoFCou.
 Harris En= -2970.59681416423    
 JPrj=0 DoOrth=F DoCkMO=F.
 Leave Link  401 at Wed May  1 14:28:43 2024, MaxMem=  1207959552 cpu:              30.5 elap:              30.5
 (Enter /software/gaussian/g16-c01/sse4/g16/l502.exe)
 Two-electron integral symmetry not used.
 Closed shell SCF:
 Using DIIS extrapolation, IDIIS=  1040.
 NGot=  1207959552 LenX=  1207804877 LenY=  1207729907
 Requested convergence on RMS density matrix=1.00D-08 within 128 cycles.
 Requested convergence on MAX density matrix=1.00D-06.
 Requested convergence on             energy=1.00D-06.
 No special actions if energy rises.
 Fock matrices will be formed incrementally for  20 cycles.

 Cycle   1  Pass 1  IDiag  1:
 FoFJK:  IHMeth= 1 ICntrl=       0 DoSepK=T KAlg= 0 I1Cent=           0 FoldK=F
 IRaf=         1 NMat=       1 IRICut=       1 DoRegI=T DoRafI=F ISym2E= 0 IDoP0=0 IntGTp=1.
 FoFCou: FMM=F IPFlag=           0 FMFlag=      100000 FMFlg1=           0
         NFxFlg=           0 DoJE=T BraDBF=F KetDBF=F FulRan=T
         wScrn=  0.000000 ICntrl=       500 IOpCl=  0 I1Cent=           0 NGrid=           0
         NMat0=    1 NMatS0=      1 NMatT0=    0 NMatD0=    1 NMtDS0=    0 NMtDT0=    0
 Symmetry not used in FoFCou.
 E= -3009.71805259805    
 DIIS: error= 3.20D-01 at cycle   1 NSaved=   1.
 NSaved= 1 IEnMin= 1 EnMin= -3009.71805259805     IErMin= 1 ErrMin= 3.20D-01
 ErrMax= 3.20D-01  0.00D+00 EMaxC= 1.00D-01 BMatC= 1.19D+01 BMatP= 1.19D+01
 IDIUse=3 WtCom= 0.00D+00 WtEn= 1.00D+00
 Coeff-Com:  0.100D+01
 Coeff-En:   0.100D+01
 Coeff:      0.100D+01
 Gap=     0.333 Goal=   None    Shift=    0.000
 GapD=    0.333 DampG=1.000 DampE=0.250 DampFc=0.2500 IDamp=-1.
 Damping current iteration by 2.50D-01
 RMSDP=4.02D-02 MaxDP=4.21D+00              OVMax= 2.53D-01

 Cycle   2  Pass 1  IDiag  1:
 RMSU=  3.96D-03    CP:  8.97D-01
 E= -3010.00270121112     Delta-E=       -0.284648613069 Rises=F Damp=T
 DIIS: error= 2.25D-01 at cycle   2 NSaved=   2.
 NSaved= 2 IEnMin= 2 EnMin= -3010.00270121112     IErMin= 2 ErrMin= 2.25D-01
 ErrMax= 2.25D-01  0.00D+00 EMaxC= 1.00D-01 BMatC= 5.46D+00 BMatP= 1.19D+01
 IDIUse=3 WtCom= 0.00D+00 WtEn= 1.00D+00
 Coeff-Com: -0.184D+01 0.284D+01
 Coeff-En:   0.000D+00 0.100D+01
 Coeff:      0.000D+00 0.100D+01
 Gap=     0.292 Goal=   None    Shift=    0.000
 RMSDP=3.15D-02 MaxDP=3.25D+00 DE=-2.85D-01 OVMax= 7.34D-02

 Cycle   3  Pass 1  IDiag  1:
 RMSU=  4.24D-03    CP:  5.67D-01  3.00D+00
 E= -3010.38503485836     Delta-E=       -0.382333647238 Rises=F Damp=F
 DIIS: error= 6.54D-02 at cycle   3 NSaved=   3.
 NSaved= 3 IEnMin= 3 EnMin= -3010.38503485836     IErMin= 3 ErrMin= 6.54D-02
 ErrMax= 6.54D-02  0.00D+00 EMaxC= 1.00D-01 BMatC= 7.29D-01 BMatP= 5.46D+00
 IDIUse=3 WtCom= 3.46D-01 WtEn= 6.54D-01
 Coeff-Com:  0.278D+01-0.366D+01 0.188D+01
 Coeff-En:   0.223D-01 0.000D+00 0.978D+00
 Coeff:      0.975D+00-0.126D+01 0.129D+01
 Gap=     0.262 Goal=   None    Shift=    0.000
 RMSDP=8.22D-03 MaxDP=4.38D-01 DE=-3.82D-01 OVMax= 6.58D-02

 Cycle   4  Pass 1  IDiag  1:
 RMSU=  4.70D-03    CP:  5.87D-01  2.19D+00  2.07D+00
 E= -3010.48859537015     Delta-E=       -0.103560511798 Rises=F Damp=F
 DIIS: error= 3.83D-02 at cycle   4 NSaved=   4.
 NSaved= 4 IEnMin= 4 EnMin= -3010.48859537015     IErMin= 4 ErrMin= 3.83D-02
 ErrMax= 3.83D-02  0.00D+00 EMaxC= 1.00D-01 BMatC= 2.31D-01 BMatP= 7.29D-01
 IDIUse=3 WtCom= 6.17D-01 WtEn= 3.83D-01
 Coeff-Com: -0.186D+00 0.261D+00 0.270D+00 0.655D+00
 Coeff-En:   0.000D+00 0.000D+00 0.194D+00 0.806D+00
 Coeff:     -0.115D+00 0.161D+00 0.241D+00 0.713D+00
 Gap=     0.256 Goal=   None    Shift=    0.000
 RMSDP=3.56D-03 MaxDP=3.10D-01 DE=-1.04D-01 OVMax= 2.76D-02

 Cycle   5  Pass 1  IDiag  1:
 RMSU=  1.14D-03    CP:  5.56D-01  2.60D+00  1.89D+00  8.85D-01
 E= -3010.53326964855     Delta-E=       -0.044674278396 Rises=F Damp=F
 DIIS: error= 6.93D-03 at cycle   5 NSaved=   5.
 NSaved= 5 IEnMin= 5 EnMin= -3010.53326964855     IErMin= 5 ErrMin= 6.93D-03
 ErrMax= 6.93D-03  0.00D+00 EMaxC= 1.00D-01 BMatC= 7.47D-03 BMatP= 2.31D-01
 IDIUse=3 WtCom= 9.31D-01 WtEn= 6.93D-02
 Coeff-Com: -0.138D+00 0.187D+00 0.366D-01 0.315D+00 0.599D+00
 Coeff-En:   0.000D+00 0.000D+00 0.000D+00 0.000D+00 0.100D+01
 Coeff:     -0.129D+00 0.174D+00 0.341D-01 0.293D+00 0.627D+00
 Gap=     0.253 Goal=   None    Shift=    0.000
 RMSDP=5.35D-04 MaxDP=2.88D-02 DE=-4.47D-02 OVMax= 1.04D-02

 Cycle   6  Pass 1  IDiag  1:
 RMSU=  4.39D-04    CP:  5.55D-01  2.58D+00  1.90D+00  8.78D-01  7.55D-01
 E= -3010.53479491454     Delta-E=       -0.001525265990 Rises=F Damp=F
 DIIS: error= 1.01D-03 at cycle   6 NSaved=   6.
 NSaved= 6 IEnMin= 6 EnMin= -3010.53479491454     IErMin= 6 ErrMin= 1.01D-03
 ErrMax= 1.01D-03  0.00D+00 EMaxC= 1.00D-01 BMatC= 1.30D-04 BMatP= 7.47D-03
 IDIUse=3 WtCom= 9.90D-01 WtEn= 1.01D-02
 Coeff-Com: -0.843D-01 0.113D+00-0.782D-02 0.133D+00 0.338D+00 0.508D+00
 Coeff-En:   0.000D+00 0.000D+00 0.000D+00 0.000D+00 0.000D+00 0.100D+01
 Coeff:     -0.834D-01 0.112D+00-0.774D-02 0.132D+00 0.335D+00 0.513D+00
 Gap=     0.253 Goal=   None    Shift=    0.000
 RMSDP=1.85D-04 MaxDP=1.31D-02 DE=-1.53D-03 OVMax= 4.95D-03

 Cycle   7  Pass 1  IDiag  1:
 RMSU=  1.09D-04    CP:  5.55D-01  2.57D+00  1.91D+00  8.86D-01  8.55D-01
                    CP:  9.04D-01
 E= -3010.53489512561     Delta-E=       -0.000100211072 Rises=F Damp=F
 DIIS: error= 5.75D-04 at cycle   7 NSaved=   7.
 NSaved= 7 IEnMin= 7 EnMin= -3010.53489512561     IErMin= 7 ErrMin= 5.75D-04
 ErrMax= 5.75D-04  0.00D+00 EMaxC= 1.00D-01 BMatC= 2.69D-05 BMatP= 1.30D-04
 IDIUse=3 WtCom= 9.94D-01 WtEn= 5.75D-03
 Coeff-Com: -0.345D-01 0.459D-01-0.145D-01 0.298D-01 0.100D+00 0.323D+00
 Coeff-Com:  0.550D+00
 Coeff-En:   0.000D+00 0.000D+00 0.000D+00 0.000D+00 0.000D+00 0.000D+00
 Coeff-En:   0.100D+01
 Coeff:     -0.343D-01 0.456D-01-0.145D-01 0.296D-01 0.999D-01 0.321D+00
 Coeff:      0.552D+00
 Gap=     0.252 Goal=   None    Shift=    0.000
 RMSDP=8.64D-05 MaxDP=5.90D-03 DE=-1.00D-04 OVMax= 2.90D-03

 Cycle   8  Pass 1  IDiag  1:
 RMSU=  5.59D-05    CP:  5.55D-01  2.56D+00  1.92D+00  8.91D-01  8.83D-01
                    CP:  9.74D-01  8.97D-01
 E= -3010.53492416999     Delta-E=       -0.000029044381 Rises=F Damp=F
 DIIS: error= 1.42D-04 at cycle   8 NSaved=   8.
 NSaved= 8 IEnMin= 8 EnMin= -3010.53492416999     IErMin= 8 ErrMin= 1.42D-04
 ErrMax= 1.42D-04  0.00D+00 EMaxC= 1.00D-01 BMatC= 3.02D-06 BMatP= 2.69D-05
 IDIUse=3 WtCom= 9.99D-01 WtEn= 1.42D-03
 Coeff-Com:  0.928D-02-0.126D-01-0.284D-02-0.213D-01-0.535D-01-0.408D-01
 Coeff-Com:  0.185D+00 0.937D+00
 Coeff-En:   0.000D+00 0.000D+00 0.000D+00 0.000D+00 0.000D+00 0.000D+00
 Coeff-En:   0.000D+00 0.100D+01
 Coeff:      0.926D-02-0.126D-01-0.283D-02-0.213D-01-0.534D-01-0.408D-01
 Coeff:      0.184D+00 0.937D+00
 Gap=     0.252 Goal=   None    Shift=    0.000
 RMSDP=6.95D-05 MaxDP=5.86D-03 DE=-2.90D-05 OVMax= 2.63D-03

 Cycle   9  Pass 1  IDiag  1:
 RMSU=  2.57D-05    CP:  5.55D-01  2.56D+00  1.92D+00  8.91D-01  8.94D-01
                    CP:  1.08D+00  1.15D+00  1.36D+00
 E= -3010.53493358635     Delta-E=       -0.000009416355 Rises=F Damp=F
 DIIS: error= 6.41D-05 at cycle   9 NSaved=   9.
 NSaved= 9 IEnMin= 9 EnMin= -3010.53493358635     IErMin= 9 ErrMin= 6.41D-05
 ErrMax= 6.41D-05  0.00D+00 EMaxC= 1.00D-01 BMatC= 3.64D-07 BMatP= 3.02D-06
 IDIUse=1 WtCom= 1.00D+00 WtEn= 0.00D+00
 Coeff-Com:  0.751D-02-0.101D-01 0.123D-02-0.106D-01-0.284D-01-0.637D-01
 Coeff-Com: -0.378D-01 0.275D+00 0.867D+00
 Coeff:      0.751D-02-0.101D-01 0.123D-02-0.106D-01-0.284D-01-0.637D-01
 Coeff:     -0.378D-01 0.275D+00 0.867D+00
 Gap=     0.252 Goal=   None    Shift=    0.000
 RMSDP=2.07D-05 MaxDP=1.42D-03 DE=-9.42D-06 OVMax= 1.19D-03

 Cycle  10  Pass 1  IDiag  1:
 RMSU=  8.90D-06    CP:  5.55D-01  2.56D+00  1.92D+00  8.91D-01  8.99D-01
                    CP:  1.10D+00  1.21D+00  1.50D+00  1.14D+00
 E= -3010.53493512370     Delta-E=       -0.000001537347 Rises=F Damp=F
 DIIS: error= 2.07D-05 at cycle  10 NSaved=  10.
 NSaved=10 IEnMin=10 EnMin= -3010.53493512370     IErMin=10 ErrMin= 2.07D-05
 ErrMax= 2.07D-05  0.00D+00 EMaxC= 1.00D-01 BMatC= 7.67D-08 BMatP= 3.64D-07
 IDIUse=1 WtCom= 1.00D+00 WtEn= 0.00D+00
 Coeff-Com:  0.550D-04-0.402D-04 0.465D-03 0.494D-03 0.256D-02-0.856D-02
 Coeff-Com: -0.381D-01-0.712D-01 0.240D+00 0.874D+00
 Coeff:      0.550D-04-0.402D-04 0.465D-03 0.494D-03 0.256D-02-0.856D-02
 Coeff:     -0.381D-01-0.712D-01 0.240D+00 0.874D+00
 Gap=     0.252 Goal=   None    Shift=    0.000
 RMSDP=1.09D-05 MaxDP=7.33D-04 DE=-1.54D-06 OVMax= 4.77D-04

 Cycle  11  Pass 1  IDiag  1:
 RMSU=  5.27D-06    CP:  5.55D-01  2.56D+00  1.92D+00  8.90D-01  8.99D-01
                    CP:  1.11D+00  1.22D+00  1.53D+00  1.30D+00  1.24D+00
 E= -3010.53493533998     Delta-E=       -0.000000216285 Rises=F Damp=F
 DIIS: error= 7.95D-06 at cycle  11 NSaved=  11.
 NSaved=11 IEnMin=11 EnMin= -3010.53493533998     IErMin=11 ErrMin= 7.95D-06
 ErrMax= 7.95D-06  0.00D+00 EMaxC= 1.00D-01 BMatC= 4.77D-09 BMatP= 7.67D-08
 IDIUse=1 WtCom= 1.00D+00 WtEn= 0.00D+00
 Coeff-Com: -0.392D-03 0.524D-03 0.212D-04 0.994D-03 0.312D-02 0.746D-02
 Coeff-Com:  0.614D-02-0.311D-01-0.123D+00-0.996D-02 0.115D+01
 Coeff:     -0.392D-03 0.524D-03 0.212D-04 0.994D-03 0.312D-02 0.746D-02
 Coeff:      0.614D-02-0.311D-01-0.123D+00-0.996D-02 0.115D+01
 Gap=     0.252 Goal=   None    Shift=    0.000
 RMSDP=4.09D-06 MaxDP=1.91D-04 DE=-2.16D-07 OVMax= 2.09D-04

 Cycle  12  Pass 1  IDiag  1:
 RMSU=  1.33D-06    CP:  5.55D-01  2.56D+00  1.92D+00  8.90D-01  8.98D-01
                    CP:  1.11D+00  1.22D+00  1.53D+00  1.34D+00  1.47D+00
                    CP:  1.31D+00
 E= -3010.53493536905     Delta-E=       -0.000000029067 Rises=F Damp=F
 DIIS: error= 1.86D-06 at cycle  12 NSaved=  12.
 NSaved=12 IEnMin=12 EnMin= -3010.53493536905     IErMin=12 ErrMin= 1.86D-06
 ErrMax= 1.86D-06  0.00D+00 EMaxC= 1.00D-01 BMatC= 1.11D-09 BMatP= 4.77D-09
 IDIUse=1 WtCom= 1.00D+00 WtEn= 0.00D+00
 Coeff-Com: -0.163D-03 0.216D-03-0.203D-04 0.341D-03 0.717D-03 0.304D-02
 Coeff-Com:  0.549D-02-0.508D-02-0.661D-01-0.800D-01 0.457D+00 0.685D+00
 Coeff:     -0.163D-03 0.216D-03-0.203D-04 0.341D-03 0.717D-03 0.304D-02
 Coeff:      0.549D-02-0.508D-02-0.661D-01-0.800D-01 0.457D+00 0.685D+00
 Gap=     0.252 Goal=   None    Shift=    0.000
 RMSDP=1.10D-06 MaxDP=7.95D-05 DE=-2.91D-08 OVMax= 4.54D-05

 Cycle  13  Pass 1  IDiag  1:
 RMSU=  3.92D-07    CP:  5.55D-01  2.56D+00  1.92D+00  8.90D-01  8.98D-01
                    CP:  1.11D+00  1.22D+00  1.53D+00  1.35D+00  1.49D+00
                    CP:  1.42D+00  8.45D-01
 E= -3010.53493537116     Delta-E=       -0.000000002107 Rises=F Damp=F
 DIIS: error= 7.38D-07 at cycle  13 NSaved=  13.
 NSaved=13 IEnMin=13 EnMin= -3010.53493537116     IErMin=13 ErrMin= 7.38D-07
 ErrMax= 7.38D-07  0.00D+00 EMaxC= 1.00D-01 BMatC= 1.63D-10 BMatP= 1.11D-09
 IDIUse=1 WtCom= 1.00D+00 WtEn= 0.00D+00
 Coeff-Com: -0.145D-04 0.196D-04-0.942D-05-0.593D-04-0.466D-03-0.909D-03
 Coeff-Com: -0.176D-03 0.386D-02 0.732D-02-0.129D-01-0.896D-01 0.198D+00
 Coeff-Com:  0.895D+00
 Coeff:     -0.145D-04 0.196D-04-0.942D-05-0.593D-04-0.466D-03-0.909D-03
 Coeff:     -0.176D-03 0.386D-02 0.732D-02-0.129D-01-0.896D-01 0.198D+00
 Coeff:      0.895D+00
 Gap=     0.252 Goal=   None    Shift=    0.000
 RMSDP=4.12D-07 MaxDP=1.81D-05 DE=-2.11D-09 OVMax= 1.64D-05

 Cycle  14  Pass 1  IDiag  1:
 RMSU=  1.92D-07    CP:  5.55D-01  2.56D+00  1.92D+00  8.90D-01  8.98D-01
                    CP:  1.11D+00  1.22D+00  1.53D+00  1.35D+00  1.50D+00
                    CP:  1.45D+00  1.05D+00  1.21D+00
 E= -3010.53493537157     Delta-E=       -0.000000000415 Rises=F Damp=F
 DIIS: error= 2.53D-07 at cycle  14 NSaved=  14.
 NSaved=14 IEnMin=14 EnMin= -3010.53493537157     IErMin=14 ErrMin= 2.53D-07
 ErrMax= 2.53D-07  0.00D+00 EMaxC= 1.00D-01 BMatC= 1.62D-11 BMatP= 1.63D-10
 IDIUse=1 WtCom= 1.00D+00 WtEn= 0.00D+00
 Coeff-Com:  0.644D-05-0.837D-05-0.313D-05-0.472D-04-0.186D-03-0.567D-03
 Coeff-Com: -0.578D-03 0.188D-02 0.920D-02 0.505D-02-0.843D-01 0.438D-02
 Coeff-Com:  0.198D+00 0.868D+00
 Coeff:      0.644D-05-0.837D-05-0.313D-05-0.472D-04-0.186D-03-0.567D-03
 Coeff:     -0.578D-03 0.188D-02 0.920D-02 0.505D-02-0.843D-01 0.438D-02
 Coeff:      0.198D+00 0.868D+00
 Gap=     0.252 Goal=   None    Shift=    0.000
 RMSDP=1.19D-07 MaxDP=4.86D-06 DE=-4.15D-10 OVMax= 6.04D-06

 Cycle  15  Pass 1  IDiag  1:
 RMSU=  6.04D-08    CP:  5.55D-01  2.56D+00  1.92D+00  8.90D-01  8.98D-01
                    CP:  1.11D+00  1.22D+00  1.53D+00  1.34D+00  1.50D+00
                    CP:  1.45D+00  1.11D+00  1.27D+00  1.24D+00
 E= -3010.53493537160     Delta-E=       -0.000000000031 Rises=F Damp=F
 DIIS: error= 1.08D-07 at cycle  15 NSaved=  15.
 NSaved=15 IEnMin=15 EnMin= -3010.53493537160     IErMin=15 ErrMin= 1.08D-07
 ErrMax= 1.08D-07  0.00D+00 EMaxC= 1.00D-01 BMatC= 5.83D-12 BMatP= 1.62D-11
 IDIUse=1 WtCom= 1.00D+00 WtEn= 0.00D+00
 Coeff-Com:  0.779D-05-0.104D-04 0.129D-05-0.201D-05 0.536D-04 0.393D-04
 Coeff-Com: -0.111D-03-0.282D-03 0.636D-03 0.467D-02-0.583D-02-0.213D-01
 Coeff-Com: -0.173D+00 0.308D+00 0.887D+00
 Coeff:      0.779D-05-0.104D-04 0.129D-05-0.201D-05 0.536D-04 0.393D-04
 Coeff:     -0.111D-03-0.282D-03 0.636D-03 0.467D-02-0.583D-02-0.213D-01
 Coeff:     -0.173D+00 0.308D+00 0.887D+00
 Gap=     0.252 Goal=   None    Shift=    0.000
 RMSDP=9.20D-08 MaxDP=7.77D-06 DE=-3.09D-11 OVMax= 4.04D-06

 Cycle  16  Pass 1  IDiag  1:
 RMSU=  2.76D-08    CP:  5.55D-01  2.56D+00  1.92D+00  8.90D-01  8.98D-01
                    CP:  1.11D+00  1.22D+00  1.53D+00  1.34D+00  1.50D+00
                    CP:  1.45D+00  1.14D+00  1.29D+00  1.49D+00  1.50D+00
 E= -3010.53493537170     Delta-E=       -0.000000000095 Rises=F Damp=F
 DIIS: error= 6.01D-08 at cycle  16 NSaved=  16.
 NSaved=16 IEnMin=16 EnMin= -3010.53493537170     IErMin=16 ErrMin= 6.01D-08
 ErrMax= 6.01D-08  0.00D+00 EMaxC= 1.00D-01 BMatC= 1.17D-12 BMatP= 5.83D-12
 IDIUse=1 WtCom= 1.00D+00 WtEn= 0.00D+00
 Coeff-Com:  0.111D-05-0.153D-05 0.117D-05 0.929D-05 0.557D-04 0.129D-03
 Coeff-Com:  0.675D-04-0.493D-03-0.175D-02 0.940D-03 0.143D-01-0.582D-03
 Coeff-Com: -0.111D+00-0.751D-01 0.225D+00 0.948D+00
 Coeff:      0.111D-05-0.153D-05 0.117D-05 0.929D-05 0.557D-04 0.129D-03
 Coeff:      0.675D-04-0.493D-03-0.175D-02 0.940D-03 0.143D-01-0.582D-03
 Coeff:     -0.111D+00-0.751D-01 0.225D+00 0.948D+00
 Gap=     0.252 Goal=   None    Shift=    0.000
 RMSDP=5.84D-08 MaxDP=4.29D-06 DE=-9.50D-11 OVMax= 2.48D-06

 Cycle  17  Pass 1  IDiag  1:
 RMSU=  1.19D-08    CP:  5.55D-01  2.56D+00  1.92D+00  8.90D-01  8.98D-01
                    CP:  1.11D+00  1.22D+00  1.53D+00  1.34D+00  1.50D+00
                    CP:  1.45D+00  1.17D+00  1.28D+00  1.61D+00  1.94D+00
                    CP:  1.30D+00
 E= -3010.53493537167     Delta-E=        0.000000000025 Rises=F Damp=F
 DIIS: error= 3.45D-08 at cycle  17 NSaved=  17.
 NSaved=17 IEnMin=16 EnMin= -3010.53493537170     IErMin=17 ErrMin= 3.45D-08
 ErrMax= 3.45D-08  0.00D+00 EMaxC= 1.00D-01 BMatC= 2.23D-13 BMatP= 1.17D-12
 IDIUse=1 WtCom= 1.00D+00 WtEn= 0.00D+00
 Coeff-Com: -0.516D-06 0.686D-06 0.171D-06 0.130D-05-0.194D-05 0.154D-04
 Coeff-Com:  0.364D-04-0.328D-05-0.514D-03-0.651D-03 0.379D-02 0.711D-02
 Coeff-Com:  0.570D-02-0.859D-01-0.168D+00 0.265D+00 0.973D+00
 Coeff:     -0.516D-06 0.686D-06 0.171D-06 0.130D-05-0.194D-05 0.154D-04
 Coeff:      0.364D-04-0.328D-05-0.514D-03-0.651D-03 0.379D-02 0.711D-02
 Coeff:      0.570D-02-0.859D-01-0.168D+00 0.265D+00 0.973D+00
 Gap=     0.252 Goal=   None    Shift=    0.000
 RMSDP=3.10D-08 MaxDP=2.68D-06 DE= 2.46D-11 OVMax= 1.51D-06

 Cycle  18  Pass 1  IDiag  1:
 RMSU=  6.85D-09    CP:  5.55D-01  2.56D+00  1.92D+00  8.90D-01  8.98D-01
                    CP:  1.11D+00  1.22D+00  1.53D+00  1.34D+00  1.50D+00
                    CP:  1.45D+00  1.18D+00  1.27D+00  1.68D+00  2.12D+00
                    CP:  1.68D+00  1.26D+00
 E= -3010.53493537167     Delta-E=        0.000000000001 Rises=F Damp=F
 DIIS: error= 9.96D-09 at cycle  18 NSaved=  18.
 NSaved=18 IEnMin=16 EnMin= -3010.53493537170     IErMin=18 ErrMin= 9.96D-09
 ErrMax= 9.96D-09  0.00D+00 EMaxC= 1.00D-01 BMatC= 4.97D-14 BMatP= 2.23D-13
 IDIUse=1 WtCom= 1.00D+00 WtEn= 0.00D+00
 Coeff-Com: -0.585D-07 0.807D-07-0.146D-06-0.180D-05-0.121D-04-0.191D-04
 Coeff-Com:  0.418D-06 0.109D-03 0.137D-03-0.489D-03-0.170D-02 0.332D-02
 Coeff-Com:  0.258D-01-0.923D-02-0.105D+00-0.135D+00 0.341D+00 0.881D+00
 Coeff:     -0.585D-07 0.807D-07-0.146D-06-0.180D-05-0.121D-04-0.191D-04
 Coeff:      0.418D-06 0.109D-03 0.137D-03-0.489D-03-0.170D-02 0.332D-02
 Coeff:      0.258D-01-0.923D-02-0.105D+00-0.135D+00 0.341D+00 0.881D+00
 Gap=     0.252 Goal=   None    Shift=    0.000
 RMSDP=1.09D-08 MaxDP=5.19D-07 DE= 1.36D-12 OVMax= 4.92D-07

 Cycle  19  Pass 1  IDiag  1:
 RMSU=  1.94D-09    CP:  5.55D-01  2.56D+00  1.92D+00  8.90D-01  8.98D-01
                    CP:  1.11D+00  1.22D+00  1.53D+00  1.34D+00  1.50D+00
                    CP:  1.45D+00  1.18D+00  1.27D+00  1.69D+00  2.21D+00
                    CP:  1.76D+00  1.56D+00  1.17D+00
 E= -3010.53493537168     Delta-E=       -0.000000000007 Rises=F Damp=F
 DIIS: error= 3.87D-09 at cycle  19 NSaved=  19.
 NSaved=19 IEnMin=16 EnMin= -3010.53493537170     IErMin=19 ErrMin= 3.87D-09
 ErrMax= 3.87D-09  0.00D+00 EMaxC= 1.00D-01 BMatC= 1.98D-15 BMatP= 4.97D-14
 IDIUse=1 WtCom= 1.00D+00 WtEn= 0.00D+00
 Coeff-Com: -0.813D-07 0.110D-06-0.558D-07-0.289D-06-0.174D-05-0.346D-05
 Coeff-Com: -0.400D-05 0.138D-04 0.651D-04-0.219D-04-0.571D-03 0.445D-04
 Coeff-Com:  0.472D-02 0.437D-02-0.868D-02-0.483D-01 0.110D-01 0.157D+00
 Coeff-Com:  0.880D+00
 Coeff:     -0.813D-07 0.110D-06-0.558D-07-0.289D-06-0.174D-05-0.346D-05
 Coeff:     -0.400D-05 0.138D-04 0.651D-04-0.219D-04-0.571D-03 0.445D-04
 Coeff:      0.472D-02 0.437D-02-0.868D-02-0.483D-01 0.110D-01 0.157D+00
 Coeff:      0.880D+00
 Gap=     0.252 Goal=   None    Shift=    0.000
 RMSDP=2.03D-09 MaxDP=1.34D-07 DE=-7.28D-12 OVMax= 6.85D-08

 SCF Done:  E(RwB97XD) =  -3010.53493537     A.U. after   19 cycles
            NFock= 19  Conv=0.20D-08     -V/T= 2.0016
 KE= 3.005855345559D+03 PE=-8.631799897132D+03 EE= 1.876563751132D+03
 Leave Link  502 at Wed May  1 14:46:16 2024, MaxMem=  1207959552 cpu:            1052.6 elap:            1052.9
 (Enter /software/gaussian/g16-c01/sse4/g16/l601.exe)
 Copying SCF densities to generalized density rwf, IOpCl= 0 IROHF=0.

 **********************************************************************

            Population analysis using the SCF Density.

 **********************************************************************

 Alpha  occ. eigenvalues -- -483.30959 -62.85988 -56.65675 -56.65111 -56.65109
 Alpha  occ. eigenvalues --  -19.44687 -19.44616 -14.84215 -10.57945 -10.56973
 Alpha  occ. eigenvalues --  -10.56506 -10.56386 -10.56326 -10.52552  -9.01798
 Alpha  occ. eigenvalues --   -6.84459  -6.82612  -6.82598  -2.94367  -2.93876
 Alpha  occ. eigenvalues --   -2.93864  -2.92386  -2.92386  -1.48456  -1.31419
 Alpha  occ. eigenvalues --   -1.22111  -1.13514  -1.11240  -1.04018  -1.00294
 Alpha  occ. eigenvalues --   -0.94957  -0.90355  -0.84541  -0.80062  -0.79843
 Alpha  occ. eigenvalues --   -0.78934  -0.77764  -0.75442  -0.74935  -0.71795
 Alpha  occ. eigenvalues --   -0.68891  -0.67047  -0.63168  -0.59690  -0.56325
 Alpha  occ. eigenvalues --   -0.55785  -0.55001  -0.54764  -0.54375
 Alpha virt. eigenvalues --   -0.29163  -0.20401  -0.15243  -0.12701  -0.08608
 Alpha virt. eigenvalues --   -0.06014  -0.05422  -0.04477  -0.04291  -0.02705
 Alpha virt. eigenvalues --   -0.02081  -0.01909  -0.01252  -0.00783   0.00522
 Alpha virt. eigenvalues --    0.01260   0.01940   0.02184   0.03027   0.03097
 Alpha virt. eigenvalues --    0.04808   0.05338   0.05743   0.06432   0.07298
 Alpha virt. eigenvalues --    0.07465   0.07824   0.08069   0.09329   0.09684
 Alpha virt. eigenvalues --    0.10914   0.11632   0.11900   0.12286   0.13107
 Alpha virt. eigenvalues --    0.13281   0.14004   0.14424   0.15753   0.16694
 Alpha virt. eigenvalues --    0.16995   0.17639   0.18496   0.19142   0.19580
 Alpha virt. eigenvalues --    0.19727   0.21793   0.22483   0.22586   0.25276
 Alpha virt. eigenvalues --    0.26593   0.28788   0.29030   0.29607   0.31501
 Alpha virt. eigenvalues --    0.33365   0.34329   0.34921   0.35900   0.36728
 Alpha virt. eigenvalues --    0.37474   0.38845   0.39604   0.40951   0.42048
 Alpha virt. eigenvalues --    0.42985   0.44225   0.44973   0.46823   0.47968
 Alpha virt. eigenvalues --    0.48521   0.50492   0.51390   0.52403   0.54209
 Alpha virt. eigenvalues --    0.54933   0.55601   0.57033   0.57428   0.59972
 Alpha virt. eigenvalues --    0.61474   0.62771   0.64398   0.67082   0.68999
 Alpha virt. eigenvalues --    0.70567   0.72708   0.72891   0.73684   0.74691
 Alpha virt. eigenvalues --    0.74970   0.80121   0.80538   0.83479   0.85669
 Alpha virt. eigenvalues --    0.86818   0.88875   0.92423   0.93627   0.99414
 Alpha virt. eigenvalues --    1.00768   1.01699   1.05235   1.05984   1.07096
 Alpha virt. eigenvalues --    1.09828   1.11804   1.13067   1.13537   1.15430
 Alpha virt. eigenvalues --    1.23197   1.25244   1.27478   1.33409   1.36972
 Alpha virt. eigenvalues --    1.37333   1.38450   1.45563   1.54934   1.57672
 Alpha virt. eigenvalues --    1.59247   1.59450   1.61232   1.63116   1.66732
 Alpha virt. eigenvalues --    1.69839   1.70161   1.73949   1.76270   1.79525
 Alpha virt. eigenvalues --    1.81459   1.85994   1.87976   1.93669   1.95815
 Alpha virt. eigenvalues --    1.98415   2.03584   2.04493   2.07188   2.08466
 Alpha virt. eigenvalues --    2.10064   2.15178   2.20878   2.23391   2.29737
 Alpha virt. eigenvalues --    2.38263   2.41879   2.43071   2.44076   2.52935
 Alpha virt. eigenvalues --    2.57095   2.63539   2.66587   2.68735   2.72765
 Alpha virt. eigenvalues --    2.74323   2.77519   2.78094   2.81840   2.82520
 Alpha virt. eigenvalues --    2.93906   2.96788   3.01765   3.05982   3.09508
 Alpha virt. eigenvalues --    3.13526   3.15456   3.19529   3.24548   3.24937
 Alpha virt. eigenvalues --    3.28540   3.39900   3.48038   3.51949   3.55275
 Alpha virt. eigenvalues --    3.57717   3.71039   3.75256   3.82625   3.87638
 Alpha virt. eigenvalues --    4.09126   4.09360   4.16882   4.22087   4.42918
 Alpha virt. eigenvalues --    4.45545   4.57897   4.60886   4.94405   4.97082
 Alpha virt. eigenvalues --    5.05726   5.09893   5.63983   6.16965   6.64842
 Alpha virt. eigenvalues --    7.47800   7.49376   7.59168  23.21729  23.61730
 Alpha virt. eigenvalues --   23.69900  23.79917  23.96454  24.01892  35.33740
 Alpha virt. eigenvalues --   47.91441  49.86741  49.95552 289.80775 289.82443
 Alpha virt. eigenvalues --  289.948881020.91870
          Condensed to atoms (all electrons):
               1          2          3          4          5          6
     1  C    8.944203  -2.351509   0.194064  -1.624115  -0.616183   0.309770
     2  C   -2.351509  12.784402  -1.752645  -2.508297   0.672819  -0.012551
     3  C    0.194064  -1.752645  13.135879  -3.266811  -1.246382   0.024230
     4  C   -1.624115  -2.508297  -3.266811  14.970650   1.249567   0.010288
     5  C   -0.616183   0.672819  -1.246382   1.249567   7.405556   0.011935
     6  H    0.309770  -0.012551   0.024230   0.010288   0.011935   0.339651
     7  H    0.071390   0.226850   0.076568  -0.033192  -0.019393  -0.001805
     8  H    0.004556  -0.011103   0.075504   0.240434  -0.020999   0.000001
     9  H    0.034380  -0.016428   0.004788  -0.007440   0.304952  -0.002438
    10  N   -0.155577   0.350232  -0.920259   0.333161   0.013460  -0.000639
    11  O    0.011969  -0.078619  -0.262523  -0.007139  -0.057552  -0.000024
    12  O    0.337989  -0.036296  -0.279639  -0.098758  -0.042961   0.000023
    13  C    1.385017  -1.784929   0.884116  -3.527351  -1.691354  -0.007941
    14  H   -0.012898  -0.000057   0.002606  -0.067537  -0.011360  -0.000050
    15  Br   0.039111   0.008563   0.040912   0.041660   0.049361  -0.000387
               7          8          9         10         11         12
     1  C    0.071390   0.004556   0.034380  -0.155577   0.011969   0.337989
     2  C    0.226850  -0.011103  -0.016428   0.350232  -0.078619  -0.036296
     3  C    0.076568   0.075504   0.004788  -0.920259  -0.262523  -0.279639
     4  C   -0.033192   0.240434  -0.007440   0.333161  -0.007139  -0.098758
     5  C   -0.019393  -0.020999   0.304952   0.013460  -0.057552  -0.042961
     6  H   -0.001805   0.000001  -0.002438  -0.000639  -0.000024   0.000023
     7  H    0.298265  -0.000003   0.000014  -0.025706  -0.001495   0.023387
     8  H   -0.000003   0.291479   0.000100  -0.023801   0.023644  -0.000868
     9  H    0.000014   0.000100   0.334603   0.000376   0.000007   0.000006
    10  N   -0.025706  -0.023801   0.000376   7.385668   0.175585   0.140260
    11  O   -0.001495   0.023644   0.000007   0.175585   7.836498   0.003279
    12  O    0.023387  -0.000868   0.000006   0.140260   0.003279   7.873600
    13  C    0.015515   0.045349   0.009596  -0.169719   0.316846   0.041500
    14  H   -0.000019  -0.003945  -0.005712   0.000009  -0.000290  -0.000072
    15  Br  -0.000058   0.003137   0.000990   0.004870   0.000190   0.002036
              13         14         15
     1  C    1.385017  -0.012898   0.039111
     2  C   -1.784929  -0.000057   0.008563
     3  C    0.884116   0.002606   0.040912
     4  C   -3.527351  -0.067537   0.041660
     5  C   -1.691354  -0.011360   0.049361
     6  H   -0.007941  -0.000050  -0.000387
     7  H    0.015515  -0.000019  -0.000058
     8  H    0.045349  -0.003945   0.003137
     9  H    0.009596  -0.005712   0.000990
    10  N   -0.169719   0.000009   0.004870
    11  O    0.316846  -0.000290   0.000190
    12  O    0.041500  -0.000072   0.002036
    13  C   10.574771   0.394830  -0.013538
    14  H    0.394830   0.345580  -0.041927
    15  Br  -0.013538  -0.041927  34.700175
 Mulliken charges:
               1
     1  C   -0.572167
     2  C    0.509567
     3  C   -0.710410
     4  C    0.294880
     5  C   -0.001467
     6  H    0.329936
     7  H    0.369681
     8  H    0.376518
     9  H    0.342205
    10  N   -0.107921
    11  O    0.039625
    12  O    0.036515
    13  C   -0.472710
    14  H    0.400842
    15  Br   0.164906
 Sum of Mulliken charges =   1.00000
 Mulliken charges with hydrogens summed into heavy atoms:
               1
     1  C   -0.242231
     2  C    0.879248
     3  C   -0.710410
     4  C    0.671397
     5  C    0.340738
    10  N   -0.107921
    11  O    0.039625
    12  O    0.036515
    13  C   -0.071867
    15  Br   0.164906
 Electronic spatial extent (au):  <R**2>=           2797.5461
 Charge=              1.0000 electrons
 Dipole moment (field-independent basis, Debye):
    X=             -0.2622    Y=             -0.5228    Z=              0.0261  Tot=              0.5854
 Quadrupole moment (field-independent basis, Debye-Ang):
   XX=            -69.9318   YY=            -52.0512   ZZ=            -62.7589
   XY=              1.2077   XZ=              0.9656   YZ=              1.5311
 Traceless Quadrupole moment (field-independent basis, Debye-Ang):
   XX=             -8.3511   YY=              9.5294   ZZ=             -1.1783
   XY=              1.2077   XZ=              0.9656   YZ=              1.5311
 Octapole moment (field-independent basis, Debye-Ang**2):
  XXX=           -291.7699  YYY=             88.0494  ZZZ=             77.6522  XYY=            -74.7881
  XXY=             30.2976  XXZ=             32.2717  XZZ=            -77.5265  YZZ=             16.5279
  YYZ=             25.6434  XYZ=             -3.1174
 Hexadecapole moment (field-independent basis, Debye-Ang**3):
 XXXX=          -2246.2368 YYYY=           -677.5743 ZZZZ=           -348.5175 XXXY=            -68.4612
 XXXZ=            -22.5096 YYYX=            -60.2430 YYYZ=           -156.0977 ZZZX=            -18.9257
 ZZZY=           -136.1212 XXYY=           -453.6481 XXZZ=           -369.8602 YYZZ=           -163.8273
 XXYZ=            -54.8880 YYXZ=             -2.6721 ZZXY=             -9.0442
 N-N= 7.388458650701D+02 E-N=-8.631799896662D+03  KE= 3.005855345559D+03
 No NMR shielding tensors so no spin-rotation constants.
 Leave Link  601 at Wed May  1 14:46:24 2024, MaxMem=  1207959552 cpu:               7.4 elap:               7.4
 (Enter /software/gaussian/g16-c01/sse4/g16/l9999.exe)
 Unable to Open any file for archive entry.
 1\1\GINC-BHX0015\SP\RwB97XD\6-311+G(d)\C6H5Br1N1O2(1+)\BWEIGHT\01-May-
 2024\0\\#P wB97XD/6-311+G* NoSymm #P Field=X-19\\TitleMe\\1,1\C,0,0.02
 95,1.3397,0.0682\C,0,1.4348,1.2867,0.0064\C,0,2.1118,0.0511,-0.0054\C,
 0,1.4451,-1.1372,0.0312\C,0,-0.6879,0.1682,0.11\H,0,-0.4713,2.2984,0.0
 781\H,0,2.0273,2.1965,-0.0322\H,0,1.9897,-2.0764,0.0232\H,0,-1.7716,0.
 1804,0.1582\N,0,3.5864,0.051,-0.0675\O,0,4.1471,-1.0597,-0.0881\O,0,4.
 145,1.1639,-0.0901\C,0,-0.0236,-1.1458,0.0835\H,0,-0.4367,-1.8725,0.78
 89\Br,0,-0.5359,-1.8697,-1.7408\\Version=ES64L-G16RevC.01\HF=-3010.534
 9354\RMSD=2.026e-09\Dipole=-2.0096887,0.9424044,1.156456\Quadrupole=-6
 .2088661,7.0848823,-0.8760162,0.8978751,0.7178809,1.1383207\PG=C01 [X(
 C6H5Br1N1O2)]\\@
 The archive entry for this job was punched.


 The best way to pay for a lovely moment is to enjoy it.
 -- Richard Bach
 Job cpu time:       0 days  0 hours 18 minutes 40.8 seconds.
 Elapsed time:       0 days  0 hours 18 minutes 41.1 seconds.
 File lengths (MBytes):  RWF=     40 Int=      0 D2E=      0 Chk=     32 Scr=      1
 Normal termination of Gaussian 16 at Wed May  1 14:46:25 2024.
