 Entering Gaussian System, Link 0=g16
 Initial command:
 /software/gaussian/g16-c01/sse4/g16/l1.exe "/local_scratch/24665365/Gau-29459.inp" -scrdir="/local_scratch/24665365/"
 Entering Link 1 = /software/gaussian/g16-c01/sse4/g16/l1.exe PID=     29505.
  
 Copyright (c) 1988-2019, Gaussian, Inc.  All Rights Reserved.
  
 This is part of the Gaussian(R) 16 program.  It is based on
 the Gaussian(R) 09 system (copyright 2009, Gaussian, Inc.),
 the Gaussian(R) 03 system (copyright 2003, Gaussian, Inc.),
 the Gaussian(R) 98 system (copyright 1998, Gaussian, Inc.),
 the Gaussian(R) 94 system (copyright 1995, Gaussian, Inc.),
 the Gaussian 92(TM) system (copyright 1992, Gaussian, Inc.),
 the Gaussian 90(TM) system (copyright 1990, Gaussian, Inc.),
 the Gaussian 88(TM) system (copyright 1988, Gaussian, Inc.),
 the Gaussian 86(TM) system (copyright 1986, Carnegie Mellon
 University), and the Gaussian 82(TM) system (copyright 1983,
 Carnegie Mellon University). Gaussian is a federally registered
 trademark of Gaussian, Inc.
  
 This software contains proprietary and confidential information,
 including trade secrets, belonging to Gaussian, Inc.
  
 This software is provided under written license and may be
 used, copied, transmitted, or stored only in accord with that
 written license.
  
 The following legend is applicable only to US Government
 contracts under FAR:
  
                    RESTRICTED RIGHTS LEGEND
  
 Use, reproduction and disclosure by the US Government is
 subject to restrictions as set forth in subparagraphs (a)
 and (c) of the Commercial Computer Software - Restricted
 Rights clause in FAR 52.227-19.
  
 Gaussian, Inc.
 340 Quinnipiac St., Bldg. 40, Wallingford CT 06492
  
  
 ---------------------------------------------------------------
 Warning -- This program may not be used in any manner that
 competes with the business of Gaussian, Inc. or will provide
 assistance to any competitor of Gaussian, Inc.  The licensee
 of this program is prohibited from giving any competitor of
 Gaussian, Inc. access to this program.  By using this program,
 the user acknowledges that Gaussian, Inc. is engaged in the
 business of creating and licensing software in the field of
 computational chemistry and represents and warrants to the
 licensee that it is not a competitor of Gaussian, Inc. and that
 it will not use this program in any manner prohibited above.
 ---------------------------------------------------------------
  

 Cite this work as:
 Gaussian 16, Revision C.01,
 M. J. Frisch, G. W. Trucks, H. B. Schlegel, G. E. Scuseria, 
 M. A. Robb, J. R. Cheeseman, G. Scalmani, V. Barone, 
 G. A. Petersson, H. Nakatsuji, X. Li, M. Caricato, A. V. Marenich, 
 J. Bloino, B. G. Janesko, R. Gomperts, B. Mennucci, H. P. Hratchian, 
 J. V. Ortiz, A. F. Izmaylov, J. L. Sonnenberg, D. Williams-Young, 
 F. Ding, F. Lipparini, F. Egidi, J. Goings, B. Peng, A. Petrone, 
 T. Henderson, D. Ranasinghe, V. G. Zakrzewski, J. Gao, N. Rega, 
 G. Zheng, W. Liang, M. Hada, M. Ehara, K. Toyota, R. Fukuda, 
 J. Hasegawa, M. Ishida, T. Nakajima, Y. Honda, O. Kitao, H. Nakai, 
 T. Vreven, K. Throssell, J. A. Montgomery, Jr., J. E. Peralta, 
 F. Ogliaro, M. J. Bearpark, J. J. Heyd, E. N. Brothers, K. N. Kudin, 
 V. N. Staroverov, T. A. Keith, R. Kobayashi, J. Normand, 
 K. Raghavachari, A. P. Rendell, J. C. Burant, S. S. Iyengar, 
 J. Tomasi, M. Cossi, J. M. Millam, M. Klene, C. Adamo, R. Cammi, 
 J. W. Ochterski, R. L. Martin, K. Morokuma, O. Farkas, 
 J. B. Foresman, and D. J. Fox, Gaussian, Inc., Wallingford CT, 2019.
 
 ******************************************
 Gaussian 16:  ES64L-G16RevC.01  3-Jul-2019
                 2-May-2024 
 ******************************************
 %chk=geometry.chk
 %mem=1GB
 %nprocshared=12
 Will use up to   12 processors via shared memory.
 ----------------------------------------
 #P wB97XD/6-311+G* NoSymm #P Field=Z-175
 ----------------------------------------
 1/38=1,172=1/1;
 2/12=2,15=1,17=6,18=5,40=1/2;
 3/5=4,6=6,7=11,11=2,14=3,15=-175,25=1,30=1,74=-58/1,2,3;
 4//1;
 5/5=2,38=5/2;
 6/7=2,8=2,9=2,10=2,28=1/1;
 99/5=1,9=1/99;
 Leave Link    1 at Thu May  2 13:58:19 2024, MaxMem=   134217728 cpu:               1.7 elap:               1.7
 (Enter /software/gaussian/g16-c01/sse4/g16/l101.exe)
 -------
 TitleMe
 -------
 Symbolic Z-matrix:
 Charge =  1 Multiplicity = 1
 C                     0.5193    1.233    -0.0319 
 C                     1.9445    1.2692   -0.0367 
 C                     2.6204    0.0928   -0.025 
 C                    -0.196     0.0301    0.001 
 H                    -0.0207    2.1742   -0.0434 
 H                     2.4828    2.2089   -0.0361 
 H                    -1.2777    0.0399    0.0117 
 N                     4.0921    0.0959    0.0366 
 O                     4.6393   -1.0217    0.1446 
 O                     4.6649    1.1984   -0.0233 
 C                     0.4943   -1.1671    0.021 
 H                    -0.0325   -2.1149    0.0545 
 C                     1.9629   -1.2165   -0.0211 
 H                     2.4436   -1.9631    0.6151 
 Br                    2.173    -1.9491   -1.9062 
 
 ITRead=  0  0  0  0  0  0  0  0  0  0  0  0  0  0  0
 MicOpt= -1 -1 -1 -1 -1 -1 -1 -1 -1 -1 -1 -1 -1 -1 -1
 NAtoms=     15 NQM=       15 NQMF=       0 NMMI=      0 NMMIF=      0
                NMic=       0 NMicF=      0.
                    Isotopes and Nuclear Properties:
 (Nuclear quadrupole moments (NQMom) in fm**2, nuclear magnetic moments (NMagM)
  in nuclear magnetons)

  Atom         1           2           3           4           5           6           7           8           9          10
 IAtWgt=          12          12          12          12           1           1           1          14          16          16
 AtmWgt=  12.0000000  12.0000000  12.0000000  12.0000000   1.0078250   1.0078250   1.0078250  14.0030740  15.9949146  15.9949146
 NucSpn=           0           0           0           0           1           1           1           2           0           0
 AtZEff=  -0.0000000  -0.0000000  -0.0000000  -0.0000000  -0.0000000  -0.0000000  -0.0000000  -0.0000000  -0.0000000  -0.0000000
 NQMom=    0.0000000   0.0000000   0.0000000   0.0000000   0.0000000   0.0000000   0.0000000   2.0440000   0.0000000   0.0000000
 NMagM=    0.0000000   0.0000000   0.0000000   0.0000000   2.7928460   2.7928460   2.7928460   0.4037610   0.0000000   0.0000000
 AtZNuc=   6.0000000   6.0000000   6.0000000   6.0000000   1.0000000   1.0000000   1.0000000   7.0000000   8.0000000   8.0000000

  Atom        11          12          13          14          15
 IAtWgt=          12           1          12           1          79
 AtmWgt=  12.0000000   1.0078250  12.0000000   1.0078250  78.9183361
 NucSpn=           0           1           0           1           3
 AtZEff=  -0.0000000  -0.0000000  -0.0000000  -0.0000000  -0.0000000
 NQMom=    0.0000000   0.0000000   0.0000000   0.0000000  31.3000000
 NMagM=    0.0000000   2.7928460   0.0000000   2.7928460   2.1063990
 AtZNuc=   6.0000000   1.0000000   6.0000000   1.0000000  35.0000000
 Leave Link  101 at Thu May  2 13:58:21 2024, MaxMem=   134217728 cpu:               1.6 elap:               1.6
 (Enter /software/gaussian/g16-c01/sse4/g16/l202.exe)
                          Input orientation:                          
 ---------------------------------------------------------------------
 Center     Atomic      Atomic             Coordinates (Angstroms)
 Number     Number       Type             X           Y           Z
 ---------------------------------------------------------------------
      1          6           0        0.519300    1.233000   -0.031900
      2          6           0        1.944500    1.269200   -0.036700
      3          6           0        2.620400    0.092800   -0.025000
      4          6           0       -0.196000    0.030100    0.001000
      5          1           0       -0.020700    2.174200   -0.043400
      6          1           0        2.482800    2.208900   -0.036100
      7          1           0       -1.277700    0.039900    0.011700
      8          7           0        4.092100    0.095900    0.036600
      9          8           0        4.639300   -1.021700    0.144600
     10          8           0        4.664900    1.198400   -0.023300
     11          6           0        0.494300   -1.167100    0.021000
     12          1           0       -0.032500   -2.114900    0.054500
     13          6           0        1.962900   -1.216500   -0.021100
     14          1           0        2.443600   -1.963100    0.615100
     15         35           0        2.173000   -1.949100   -1.906200
 ---------------------------------------------------------------------
                    Distance matrix (angstroms):
                    1          2          3          4          5
     1  C    0.000000
     2  C    1.425668   0.000000
     3  C    2.390549   1.356796   0.000000
     4  C    1.399895   2.473566   2.817218   0.000000
     5  H    1.085168   2.163581   3.362733   2.151712   0.000000
     6  H    2.192654   1.082960   2.120598   3.453189   2.503751
     7  H    2.157452   3.449071   3.898632   1.081797   2.477564
     8  N    3.750012   2.448304   1.472992   4.288753   4.608780
     9  O    4.699917   3.541615   2.312322   4.950458   5.653735
    10  O    4.145753   2.721354   2.324292   4.999386   4.786171
    11  C    2.400813   2.835836   2.471794   1.382101   3.381369
    12  H    3.394169   3.920329   3.452266   2.151887   4.290233
    13  C    2.843264   2.485817   1.465124   2.493060   3.928360
    14  H    3.786370   3.334922   2.160489   3.364142   4.860416
    15  Br   4.046416   3.728900   2.812194   3.628609   5.028314
                    6          7          8          9         10
     6  H    0.000000
     7  H    4.341452   0.000000
     8  N    2.657047   5.370150   0.000000
     9  O    3.888434   6.012948   1.249048   0.000000
    10  O    2.404752   6.054572   1.243863   2.226587   0.000000
    11  C    3.918516   2.144043   3.813080   4.149391   4.794941
    12  H    5.003018   2.489080   4.679774   4.798846   5.748876
    13  C    3.464662   3.475788   2.501842   2.688591   3.623886
    14  H    4.222698   4.268978   2.700314   2.434893   3.916224
    15  Br   4.569706   4.420610   3.411663   3.338935   4.434144
                   11         12         13         14         15
    11  C    0.000000
    12  H    1.084880   0.000000
    13  C    1.470034   2.189625   0.000000
    14  H    2.187771   2.543302   1.092353   0.000000
    15  Br   2.672762   2.955683   2.033334   2.535818   0.000000
 Symmetry turned off by external request.
 Stoichiometry    C6H5BrNO2(1+)
 Framework group  C1[X(C6H5BrNO2)]
 Deg. of freedom    39
 Full point group                 C1      NOp   1
 Rotational constants (GHZ):           1.1632986           0.9594224           0.5957624
 Leave Link  202 at Thu May  2 13:58:22 2024, MaxMem=   134217728 cpu:               1.1 elap:               1.1
 (Enter /software/gaussian/g16-c01/sse4/g16/l301.exe)
 Standard basis: 6-311+G(d) (5D, 7F)
 Ernie: Thresh=  0.10000D-02 Tol=  0.10000D-05 Strict=F.
 The following finite field(s) will be applied:
 An electric field of              0.0000  0.0000 -0.0175
   261 basis functions,   443 primitive gaussians,   273 cartesian basis functions
    49 alpha electrons       49 beta electrons
       nuclear repulsion energy       772.8945969580 Hartrees.
 IExCor= 4639 DFT=T Ex+Corr=wB97XD ExCW=0 ScaHFX=  1.000000
 ScaDFX=  1.000000  1.000000  1.000000  1.000000 ScalE2=  1.000000  1.000000
 IRadAn=      5 IRanWt=     -1 IRanGd=            0 ICorTp=0 IEmpDi=121
 HFx  wShort=  0.000000 wLong=  0.200000 cFull=  0.222036 cShort=  0.000000 cLong=  0.777964
 DFx  wShort=  0.000000 wLong=  0.200000 cFull=  0.000000 cShort=  0.000000 cLong=  1.000000
 NAtoms=   15 NActive=   15 NUniq=   15 SFac= 1.00D+00 NAtFMM=   60 NAOKFM=F Big=F
 Integral buffers will be    131072 words long.
 Raffenetti 2 integral format.
 Two-electron integral symmetry is turned off.
 R6Disp:  Grimme-D2 Dispersion energy=       -0.0080346408 Hartrees.
 Nuclear repulsion after empirical dispersion term =      772.8865623173 Hartrees.
 Leave Link  301 at Thu May  2 13:58:24 2024, MaxMem=   134217728 cpu:               1.0 elap:               1.1
 (Enter /software/gaussian/g16-c01/sse4/g16/l302.exe)
 NPDir=0 NMtPBC=     1 NCelOv=     1 NCel=       1 NClECP=     1 NCelD=      1
         NCelK=      1 NCelE2=     1 NClLst=     1 CellRange=     0.0.
 One-electron integrals computed using PRISM.
 NBasis=   261 RedAO= T EigKep=  2.52D-06  NBF=   261
 NBsUse=   261 1.00D-06 EigRej= -1.00D+00 NBFU=   261
 Precomputing XC quadrature grid using
 IXCGrd= 4 IRadAn=           5 IRanWt=          -1 IRanGd=           0 AccXCQ= 0.00D+00.
 Generated NRdTot=       0 NPtTot=           0 NUsed=           0 NTot=          32
 NSgBfM=   273   273   273   273   273 MxSgAt=    15 MxSgA2=    15.
 Leave Link  302 at Thu May  2 13:58:46 2024, MaxMem=   134217728 cpu:              22.0 elap:              22.0
 (Enter /software/gaussian/g16-c01/sse4/g16/l303.exe)
 DipDrv:  MaxL=1.
 The nuclear repulsion energy is now       775.0508354121 hartrees.
 Leave Link  303 at Thu May  2 13:58:49 2024, MaxMem=   134217728 cpu:               3.3 elap:               3.3
 (Enter /software/gaussian/g16-c01/sse4/g16/l401.exe)
 ExpMin= 3.50D-02 ExpMax= 4.40D+05 ExpMxC= 1.51D+04 IAcc=3 IRadAn=         5 AccDes= 0.00D+00
 Harris functional with IExCor= 4639 and IRadAn=       5 diagonalized for initial guess.
 HarFok:  IExCor= 4639 AccDes= 0.00D+00 IRadAn=         5 IDoV= 1 UseB2=F ITyADJ=14
 ICtDFT=  3500011 ScaDFX=  1.000000  1.000000  1.000000  1.000000
 FoFCou: FMM=F IPFlag=           0 FMFlag=      100000 FMFlg1=           0
         NFxFlg=           0 DoJE=T BraDBF=F KetDBF=T FulRan=T
         wScrn=  0.000000 ICntrl=       500 IOpCl=  0 I1Cent=   200000004 NGrid=           0
         NMat0=    1 NMatS0=      1 NMatT0=    0 NMatD0=    1 NMtDS0=    0 NMtDT0=    0
 Symmetry not used in FoFCou.
 Harris En= -2970.62937781595    
 JPrj=0 DoOrth=F DoCkMO=F.
 Leave Link  401 at Thu May  2 13:59:20 2024, MaxMem=   134217728 cpu:              31.3 elap:              31.2
 (Enter /software/gaussian/g16-c01/sse4/g16/l502.exe)
 Two-electron integral symmetry not used.
 Closed shell SCF:
 Using DIIS extrapolation, IDIIS=  1040.
 NGot=   134217728 LenX=   134063053 LenY=   133988083
 Requested convergence on RMS density matrix=1.00D-08 within 128 cycles.
 Requested convergence on MAX density matrix=1.00D-06.
 Requested convergence on             energy=1.00D-06.
 No special actions if energy rises.
 Fock matrices will be formed incrementally for  20 cycles.

 Cycle   1  Pass 1  IDiag  1:
 FoFJK:  IHMeth= 1 ICntrl=       0 DoSepK=T KAlg= 0 I1Cent=           0 FoldK=F
 IRaf=         1 NMat=       1 IRICut=       1 DoRegI=T DoRafI=F ISym2E= 0 IDoP0=0 IntGTp=1.
 FoFCou: FMM=F IPFlag=           0 FMFlag=      100000 FMFlg1=           0
         NFxFlg=           0 DoJE=T BraDBF=F KetDBF=F FulRan=T
         wScrn=  0.000000 ICntrl=       500 IOpCl=  0 I1Cent=           0 NGrid=           0
         NMat0=    1 NMatS0=      1 NMatT0=    0 NMatD0=    1 NMtDS0=    0 NMtDT0=    0
 Symmetry not used in FoFCou.
 E= -3009.63635431827    
 DIIS: error= 2.90D-01 at cycle   1 NSaved=   1.
 NSaved= 1 IEnMin= 1 EnMin= -3009.63635431827     IErMin= 1 ErrMin= 2.90D-01
 ErrMax= 2.90D-01  0.00D+00 EMaxC= 1.00D-01 BMatC= 1.19D+01 BMatP= 1.19D+01
 IDIUse=3 WtCom= 0.00D+00 WtEn= 1.00D+00
 Coeff-Com:  0.100D+01
 Coeff-En:   0.100D+01
 Coeff:      0.100D+01
 Gap=     0.398 Goal=   None    Shift=    0.000
 GapD=    0.398 DampG=1.000 DampE=0.250 DampFc=0.2500 IDamp=-1.
 Damping current iteration by 2.50D-01
 RMSDP=9.21D-02 MaxDP=6.50D+00              OVMax= 2.59D-01

 Cycle   2  Pass 1  IDiag  1:
 RMSU=  8.19D-03    CP:  8.57D-01
 E= -3009.94759429367     Delta-E=       -0.311239975402 Rises=F Damp=T
 DIIS: error= 2.18D-01 at cycle   2 NSaved=   2.
 NSaved= 2 IEnMin= 2 EnMin= -3009.94759429367     IErMin= 2 ErrMin= 2.18D-01
 ErrMax= 2.18D-01  0.00D+00 EMaxC= 1.00D-01 BMatC= 5.47D+00 BMatP= 1.19D+01
 IDIUse=3 WtCom= 0.00D+00 WtEn= 1.00D+00
 Coeff-Com: -0.184D+01 0.284D+01
 Coeff-En:   0.000D+00 0.100D+01
 Coeff:      0.000D+00 0.100D+01
 Gap=     0.263 Goal=   None    Shift=    0.000
 RMSDP=7.22D-02 MaxDP=5.62D+00 DE=-3.11D-01 OVMax= 7.05D-02

 Cycle   3  Pass 1  IDiag  1:
 RMSU=  6.40D-03    CP:  3.95D-01  3.00D+00
 E= -3010.37495601948     Delta-E=       -0.427361725812 Rises=F Damp=F
 DIIS: error= 6.51D-02 at cycle   3 NSaved=   3.
 NSaved= 3 IEnMin= 3 EnMin= -3010.37495601948     IErMin= 3 ErrMin= 6.51D-02
 ErrMax= 6.51D-02  0.00D+00 EMaxC= 1.00D-01 BMatC= 7.25D-01 BMatP= 5.47D+00
 IDIUse=3 WtCom= 3.49D-01 WtEn= 6.51D-01
 Coeff-Com:  0.254D+01-0.333D+01 0.178D+01
 Coeff-En:   0.112D-01 0.000D+00 0.989D+00
 Coeff:      0.895D+00-0.116D+01 0.127D+01
 Gap=     0.282 Goal=   None    Shift=    0.000
 RMSDP=1.42D-02 MaxDP=9.69D-01 DE=-4.27D-01 OVMax= 8.05D-02

 Cycle   4  Pass 1  IDiag  1:
 RMSU=  1.13D-02    CP:  4.41D-01  2.76D+00  1.57D+00
 E= -3010.48222635914     Delta-E=       -0.107270339657 Rises=F Damp=F
 DIIS: error= 3.95D-02 at cycle   4 NSaved=   4.
 NSaved= 4 IEnMin= 4 EnMin= -3010.48222635914     IErMin= 4 ErrMin= 3.95D-02
 ErrMax= 3.95D-02  0.00D+00 EMaxC= 1.00D-01 BMatC= 2.49D-01 BMatP= 7.25D-01
 IDIUse=3 WtCom= 6.05D-01 WtEn= 3.95D-01
 Coeff-Com:  0.155D+00-0.193D+00 0.458D+00 0.579D+00
 Coeff-En:   0.000D+00 0.000D+00 0.210D+00 0.790D+00
 Coeff:      0.940D-01-0.116D+00 0.360D+00 0.662D+00
 Gap=     0.266 Goal=   None    Shift=    0.000
 RMSDP=6.72D-03 MaxDP=6.88D-01 DE=-1.07D-01 OVMax= 6.47D-02

 Cycle   5  Pass 1  IDiag  1:
 RMSU=  2.77D-03    CP:  4.04D-01  2.84D+00  1.51D+00  7.96D-01
 E= -3010.53005487130     Delta-E=       -0.047828512165 Rises=F Damp=F
 DIIS: error= 1.15D-02 at cycle   5 NSaved=   5.
 NSaved= 5 IEnMin= 5 EnMin= -3010.53005487130     IErMin= 5 ErrMin= 1.15D-02
 ErrMax= 1.15D-02  0.00D+00 EMaxC= 1.00D-01 BMatC= 1.46D-02 BMatP= 2.49D-01
 IDIUse=3 WtCom= 8.85D-01 WtEn= 1.15D-01
 Coeff-Com: -0.783D-01 0.111D+00 0.159D+00 0.407D+00 0.402D+00
 Coeff-En:   0.000D+00 0.000D+00 0.000D+00 0.000D+00 0.100D+01
 Coeff:     -0.693D-01 0.979D-01 0.140D+00 0.360D+00 0.471D+00
 Gap=     0.255 Goal=   None    Shift=    0.000
 RMSDP=1.42D-03 MaxDP=1.02D-01 DE=-4.78D-02 OVMax= 3.66D-02

 Cycle   6  Pass 1  IDiag  1:
 RMSU=  8.74D-04    CP:  4.04D-01  2.86D+00  1.48D+00  8.43D-01  6.54D-01
 E= -3010.53634170640     Delta-E=       -0.006286835100 Rises=F Damp=F
 DIIS: error= 4.05D-03 at cycle   6 NSaved=   6.
 NSaved= 6 IEnMin= 6 EnMin= -3010.53634170640     IErMin= 6 ErrMin= 4.05D-03
 ErrMax= 4.05D-03  0.00D+00 EMaxC= 1.00D-01 BMatC= 1.41D-03 BMatP= 1.46D-02
 IDIUse=3 WtCom= 9.60D-01 WtEn= 4.05D-02
 Coeff-Com: -0.914D-01 0.123D+00 0.354D-02 0.146D+00 0.319D+00 0.499D+00
 Coeff-En:   0.000D+00 0.000D+00 0.000D+00 0.000D+00 0.120D+00 0.880D+00
 Coeff:     -0.877D-01 0.118D+00 0.340D-02 0.140D+00 0.311D+00 0.514D+00
 Gap=     0.247 Goal=   None    Shift=    0.000
 RMSDP=6.61D-04 MaxDP=4.79D-02 DE=-6.29D-03 OVMax= 1.28D-02

 Cycle   7  Pass 1  IDiag  1:
 RMSU=  4.04D-04    CP:  4.04D-01  2.87D+00  1.50D+00  8.52D-01  8.15D-01
                    CP:  7.72D-01
 E= -3010.53740963867     Delta-E=       -0.001067932264 Rises=F Damp=F
 DIIS: error= 3.44D-04 at cycle   7 NSaved=   7.
 NSaved= 7 IEnMin= 7 EnMin= -3010.53740963867     IErMin= 7 ErrMin= 3.44D-04
 ErrMax= 3.44D-04  0.00D+00 EMaxC= 1.00D-01 BMatC= 2.43D-05 BMatP= 1.41D-03
 IDIUse=3 WtCom= 9.97D-01 WtEn= 3.44D-03
 Coeff-Com: -0.268D-01 0.354D-01-0.176D-01 0.647D-02 0.455D-01 0.150D+00
 Coeff-Com:  0.807D+00
 Coeff-En:   0.000D+00 0.000D+00 0.000D+00 0.000D+00 0.000D+00 0.000D+00
 Coeff-En:   0.100D+01
 Coeff:     -0.267D-01 0.353D-01-0.175D-01 0.645D-02 0.453D-01 0.149D+00
 Coeff:      0.808D+00
 Gap=     0.246 Goal=   None    Shift=    0.000
 RMSDP=3.36D-04 MaxDP=1.55D-02 DE=-1.07D-03 OVMax= 6.77D-03

 Cycle   8  Pass 1  IDiag  1:
 RMSU=  1.51D-04    CP:  4.04D-01  2.87D+00  1.50D+00  8.73D-01  8.66D-01
                    CP:  8.66D-01  1.15D+00
 E= -3010.53749075466     Delta-E=       -0.000081115990 Rises=F Damp=F
 DIIS: error= 1.51D-04 at cycle   8 NSaved=   8.
 NSaved= 8 IEnMin= 8 EnMin= -3010.53749075466     IErMin= 8 ErrMin= 1.51D-04
 ErrMax= 1.51D-04  0.00D+00 EMaxC= 1.00D-01 BMatC= 4.99D-06 BMatP= 2.43D-05
 IDIUse=3 WtCom= 9.98D-01 WtEn= 1.51D-03
 Coeff-Com:  0.129D-01-0.176D-01-0.437D-02-0.266D-01-0.569D-01-0.836D-01
 Coeff-Com:  0.170D+00 0.101D+01
 Coeff-En:   0.000D+00 0.000D+00 0.000D+00 0.000D+00 0.000D+00 0.000D+00
 Coeff-En:   0.000D+00 0.100D+01
 Coeff:      0.129D-01-0.175D-01-0.437D-02-0.266D-01-0.568D-01-0.835D-01
 Coeff:      0.169D+00 0.101D+01
 Gap=     0.246 Goal=   None    Shift=    0.000
 RMSDP=1.95D-04 MaxDP=1.05D-02 DE=-8.11D-05 OVMax= 5.85D-03

 Cycle   9  Pass 1  IDiag  1:
 RMSU=  7.88D-05    CP:  4.04D-01  2.87D+00  1.51D+00  8.81D-01  8.95D-01
                    CP:  8.70D-01  1.42D+00  1.33D+00
 E= -3010.53752639706     Delta-E=       -0.000035642407 Rises=F Damp=F
 DIIS: error= 6.72D-05 at cycle   9 NSaved=   9.
 NSaved= 9 IEnMin= 9 EnMin= -3010.53752639706     IErMin= 9 ErrMin= 6.72D-05
 ErrMax= 6.72D-05  0.00D+00 EMaxC= 1.00D-01 BMatC= 1.18D-06 BMatP= 4.99D-06
 IDIUse=1 WtCom= 1.00D+00 WtEn= 0.00D+00
 Coeff-Com:  0.799D-02-0.106D-01 0.229D-02-0.800D-02-0.211D-01-0.471D-01
 Coeff-Com: -0.145D+00 0.261D+00 0.961D+00
 Coeff:      0.799D-02-0.106D-01 0.229D-02-0.800D-02-0.211D-01-0.471D-01
 Coeff:     -0.145D+00 0.261D+00 0.961D+00
 Gap=     0.246 Goal=   None    Shift=    0.000
 RMSDP=8.51D-05 MaxDP=7.61D-03 DE=-3.56D-05 OVMax= 3.26D-03

 Cycle  10  Pass 1  IDiag  1:
 RMSU=  2.24D-05    CP:  4.04D-01  2.87D+00  1.51D+00  8.82D-01  9.06D-01
                    CP:  8.66D-01  1.50D+00  1.49D+00  1.64D+00
 E= -3010.53753545435     Delta-E=       -0.000009057284 Rises=F Damp=F
 DIIS: error= 4.67D-05 at cycle  10 NSaved=  10.
 NSaved=10 IEnMin=10 EnMin= -3010.53753545435     IErMin=10 ErrMin= 4.67D-05
 ErrMax= 4.67D-05  0.00D+00 EMaxC= 1.00D-01 BMatC= 3.12D-07 BMatP= 1.18D-06
 IDIUse=1 WtCom= 1.00D+00 WtEn= 0.00D+00
 Coeff-Com: -0.102D-02 0.145D-02 0.137D-02 0.338D-02 0.760D-02 0.906D-02
 Coeff-Com: -0.839D-01-0.143D+00 0.290D+00 0.915D+00
 Coeff:     -0.102D-02 0.145D-02 0.137D-02 0.338D-02 0.760D-02 0.906D-02
 Coeff:     -0.839D-01-0.143D+00 0.290D+00 0.915D+00
 Gap=     0.246 Goal=   None    Shift=    0.000
 RMSDP=3.63D-05 MaxDP=3.29D-03 DE=-9.06D-06 OVMax= 1.53D-03

 Cycle  11  Pass 1  IDiag  1:
 RMSU=  1.21D-05    CP:  4.04D-01  2.87D+00  1.51D+00  8.82D-01  9.09D-01
                    CP:  8.55D-01  1.51D+00  1.55D+00  1.94D+00  1.46D+00
 E= -3010.53753736096     Delta-E=       -0.000001906611 Rises=F Damp=F
 DIIS: error= 2.35D-05 at cycle  11 NSaved=  11.
 NSaved=11 IEnMin=11 EnMin= -3010.53753736096     IErMin=11 ErrMin= 2.35D-05
 ErrMax= 2.35D-05  0.00D+00 EMaxC= 1.00D-01 BMatC= 5.40D-08 BMatP= 3.12D-07
 IDIUse=1 WtCom= 1.00D+00 WtEn= 0.00D+00
 Coeff-Com: -0.116D-02 0.156D-02 0.598D-04 0.199D-02 0.449D-02 0.924D-02
 Coeff-Com:  0.167D-01-0.749D-01-0.159D+00 0.141D+00 0.106D+01
 Coeff:     -0.116D-02 0.156D-02 0.598D-04 0.199D-02 0.449D-02 0.924D-02
 Coeff:      0.167D-01-0.749D-01-0.159D+00 0.141D+00 0.106D+01
 Gap=     0.246 Goal=   None    Shift=    0.000
 RMSDP=1.93D-05 MaxDP=2.15D-03 DE=-1.91D-06 OVMax= 7.76D-04

 Cycle  12  Pass 1  IDiag  1:
 RMSU=  5.12D-06    CP:  4.03D-01  2.87D+00  1.51D+00  8.82D-01  9.10D-01
                    CP:  8.49D-01  1.52D+00  1.56D+00  2.09D+00  1.70D+00
                    CP:  1.40D+00
 E= -3010.53753777458     Delta-E=       -0.000000413626 Rises=F Damp=F
 DIIS: error= 1.10D-05 at cycle  12 NSaved=  12.
 NSaved=12 IEnMin=12 EnMin= -3010.53753777458     IErMin=12 ErrMin= 1.10D-05
 ErrMax= 1.10D-05  0.00D+00 EMaxC= 1.00D-01 BMatC= 2.17D-08 BMatP= 5.40D-08
 IDIUse=1 WtCom= 1.00D+00 WtEn= 0.00D+00
 Coeff-Com: -0.169D-03 0.211D-03-0.175D-03 0.204D-03 0.102D-03 0.155D-02
 Coeff-Com:  0.285D-01-0.321D-02-0.139D+00-0.148D+00 0.532D+00 0.729D+00
 Coeff:     -0.169D-03 0.211D-03-0.175D-03 0.204D-03 0.102D-03 0.155D-02
 Coeff:      0.285D-01-0.321D-02-0.139D+00-0.148D+00 0.532D+00 0.729D+00
 Gap=     0.246 Goal=   None    Shift=    0.000
 RMSDP=9.16D-06 MaxDP=1.09D-03 DE=-4.14D-07 OVMax= 2.55D-04

 Cycle  13  Pass 1  IDiag  1:
 RMSU=  2.85D-06    CP:  4.03D-01  2.87D+00  1.51D+00  8.81D-01  9.10D-01
                    CP:  8.46D-01  1.53D+00  1.55D+00  2.14D+00  1.84D+00
                    CP:  1.56D+00  1.10D+00
 E= -3010.53753784258     Delta-E=       -0.000000067992 Rises=F Damp=F
 DIIS: error= 4.81D-06 at cycle  13 NSaved=  13.
 NSaved=13 IEnMin=13 EnMin= -3010.53753784258     IErMin=13 ErrMin= 4.81D-06
 ErrMax= 4.81D-06  0.00D+00 EMaxC= 1.00D-01 BMatC= 1.64D-09 BMatP= 2.17D-08
 IDIUse=1 WtCom= 1.00D+00 WtEn= 0.00D+00
 Coeff-Com:  0.209D-04-0.280D-04-0.693D-04-0.260D-03-0.746D-03-0.178D-02
 Coeff-Com: -0.372D-02 0.105D-01 0.380D-01-0.203D-01-0.205D+00-0.425D-01
 Coeff-Com:  0.123D+01
 Coeff:      0.209D-04-0.280D-04-0.693D-04-0.260D-03-0.746D-03-0.178D-02
 Coeff:     -0.372D-02 0.105D-01 0.380D-01-0.203D-01-0.205D+00-0.425D-01
 Coeff:      0.123D+01
 Gap=     0.246 Goal=   None    Shift=    0.000
 RMSDP=2.91D-06 MaxDP=1.74D-04 DE=-6.80D-08 OVMax= 1.06D-04

 Cycle  14  Pass 1  IDiag  1:
 RMSU=  1.35D-06    CP:  4.03D-01  2.87D+00  1.51D+00  8.81D-01  9.10D-01
                    CP:  8.46D-01  1.53D+00  1.55D+00  2.15D+00  1.86D+00
                    CP:  1.54D+00  1.36D+00  1.42D+00
 E= -3010.53753785329     Delta-E=       -0.000000010713 Rises=F Damp=F
 DIIS: error= 1.27D-06 at cycle  14 NSaved=  14.
 NSaved=14 IEnMin=14 EnMin= -3010.53753785329     IErMin=14 ErrMin= 1.27D-06
 ErrMax= 1.27D-06  0.00D+00 EMaxC= 1.00D-01 BMatC= 2.91D-10 BMatP= 1.64D-09
 IDIUse=1 WtCom= 1.00D+00 WtEn= 0.00D+00
 Coeff-Com: -0.105D-04 0.156D-04-0.147D-04-0.800D-04-0.148D-03-0.536D-03
 Coeff-Com: -0.425D-02 0.358D-02 0.266D-01 0.117D-01-0.124D+00-0.106D+00
 Coeff-Com:  0.386D+00 0.808D+00
 Coeff:     -0.105D-04 0.156D-04-0.147D-04-0.800D-04-0.148D-03-0.536D-03
 Coeff:     -0.425D-02 0.358D-02 0.266D-01 0.117D-01-0.124D+00-0.106D+00
 Coeff:      0.386D+00 0.808D+00
 Gap=     0.246 Goal=   None    Shift=    0.000
 RMSDP=6.29D-07 MaxDP=3.02D-05 DE=-1.07D-08 OVMax= 2.49D-05

 Cycle  15  Pass 1  IDiag  1:
 RMSU=  3.63D-07    CP:  4.03D-01  2.87D+00  1.51D+00  8.81D-01  9.10D-01
                    CP:  8.46D-01  1.53D+00  1.55D+00  2.15D+00  1.86D+00
                    CP:  1.53D+00  1.39D+00  1.57D+00  1.08D+00
 E= -3010.53753785415     Delta-E=       -0.000000000865 Rises=F Damp=F
 DIIS: error= 4.36D-07 at cycle  15 NSaved=  15.
 NSaved=15 IEnMin=15 EnMin= -3010.53753785415     IErMin=15 ErrMin= 4.36D-07
 ErrMax= 4.36D-07  0.00D+00 EMaxC= 1.00D-01 BMatC= 3.79D-11 BMatP= 2.91D-10
 IDIUse=1 WtCom= 1.00D+00 WtEn= 0.00D+00
 Coeff-Com:  0.190D-05-0.237D-05 0.826D-05 0.191D-04 0.936D-04 0.173D-03
 Coeff-Com: -0.378D-03-0.623D-03-0.953D-03 0.652D-02 0.545D-02-0.186D-01
 Coeff-Com: -0.105D+00 0.208D+00 0.906D+00
 Coeff:      0.190D-05-0.237D-05 0.826D-05 0.191D-04 0.936D-04 0.173D-03
 Coeff:     -0.378D-03-0.623D-03-0.953D-03 0.652D-02 0.545D-02-0.186D-01
 Coeff:     -0.105D+00 0.208D+00 0.906D+00
 Gap=     0.246 Goal=   None    Shift=    0.000
 RMSDP=3.48D-07 MaxDP=1.73D-05 DE=-8.65D-10 OVMax= 8.20D-06

 Cycle  16  Pass 1  IDiag  1:
 RMSU=  1.02D-07    CP:  4.03D-01  2.87D+00  1.51D+00  8.81D-01  9.10D-01
                    CP:  8.46D-01  1.53D+00  1.55D+00  2.15D+00  1.86D+00
                    CP:  1.52D+00  1.39D+00  1.61D+00  1.13D+00  1.46D+00
 E= -3010.53753785433     Delta-E=       -0.000000000172 Rises=F Damp=F
 DIIS: error= 1.30D-07 at cycle  16 NSaved=  16.
 NSaved=16 IEnMin=16 EnMin= -3010.53753785433     IErMin=16 ErrMin= 1.30D-07
 ErrMax= 1.30D-07  0.00D+00 EMaxC= 1.00D-01 BMatC= 3.49D-12 BMatP= 3.79D-11
 IDIUse=1 WtCom= 1.00D+00 WtEn= 0.00D+00
 Coeff-Com:  0.158D-05-0.219D-05 0.332D-05 0.124D-04 0.347D-04 0.723D-04
 Coeff-Com:  0.240D-03-0.426D-03-0.252D-02 0.103D-02 0.114D-01 0.553D-02
 Coeff-Com: -0.571D-01-0.390D-01 0.157D+00 0.924D+00
 Coeff:      0.158D-05-0.219D-05 0.332D-05 0.124D-04 0.347D-04 0.723D-04
 Coeff:      0.240D-03-0.426D-03-0.252D-02 0.103D-02 0.114D-01 0.553D-02
 Coeff:     -0.571D-01-0.390D-01 0.157D+00 0.924D+00
 Gap=     0.246 Goal=   None    Shift=    0.000
 RMSDP=1.12D-07 MaxDP=4.65D-06 DE=-1.72D-10 OVMax= 2.13D-06

 Cycle  17  Pass 1  IDiag  1:
 RMSU=  3.07D-08    CP:  4.03D-01  2.87D+00  1.51D+00  8.81D-01  9.10D-01
                    CP:  8.46D-01  1.53D+00  1.55D+00  2.15D+00  1.86D+00
                    CP:  1.52D+00  1.38D+00  1.61D+00  1.15D+00  1.60D+00
                    CP:  1.28D+00
 E= -3010.53753785437     Delta-E=       -0.000000000044 Rises=F Damp=F
 DIIS: error= 6.19D-08 at cycle  17 NSaved=  17.
 NSaved=17 IEnMin=17 EnMin= -3010.53753785437     IErMin=17 ErrMin= 6.19D-08
 ErrMax= 6.19D-08  0.00D+00 EMaxC= 1.00D-01 BMatC= 4.25D-13 BMatP= 3.49D-12
 IDIUse=1 WtCom= 1.00D+00 WtEn= 0.00D+00
 Coeff-Com: -0.704D-06 0.925D-06-0.463D-06 0.495D-06-0.173D-05-0.628D-05
 Coeff-Com:  0.667D-04 0.500D-04-0.400D-03-0.358D-03 0.991D-03 0.277D-02
 Coeff-Com:  0.187D-02-0.240D-01-0.660D-01 0.129D+00 0.956D+00
 Coeff:     -0.704D-06 0.925D-06-0.463D-06 0.495D-06-0.173D-05-0.628D-05
 Coeff:      0.667D-04 0.500D-04-0.400D-03-0.358D-03 0.991D-03 0.277D-02
 Coeff:      0.187D-02-0.240D-01-0.660D-01 0.129D+00 0.956D+00
 Gap=     0.246 Goal=   None    Shift=    0.000
 RMSDP=4.18D-08 MaxDP=2.84D-06 DE=-4.37D-11 OVMax= 7.60D-07

 Cycle  18  Pass 1  IDiag  1:
 RMSU=  1.36D-08    CP:  4.03D-01  2.87D+00  1.51D+00  8.81D-01  9.10D-01
                    CP:  8.46D-01  1.53D+00  1.55D+00  2.15D+00  1.86D+00
                    CP:  1.52D+00  1.38D+00  1.61D+00  1.14D+00  1.65D+00
                    CP:  1.42D+00  1.29D+00
 E= -3010.53753785433     Delta-E=        0.000000000038 Rises=F Damp=F
 DIIS: error= 1.36D-08 at cycle  18 NSaved=  18.
 NSaved=18 IEnMin=17 EnMin= -3010.53753785437     IErMin=18 ErrMin= 1.36D-08
 ErrMax= 1.36D-08  0.00D+00 EMaxC= 1.00D-01 BMatC= 1.24D-13 BMatP= 4.25D-13
 IDIUse=1 WtCom= 1.00D+00 WtEn= 0.00D+00
 Coeff-Com: -0.360D-06 0.484D-06-0.632D-06-0.164D-05-0.573D-05-0.133D-04
 Coeff-Com:  0.174D-05 0.953D-04 0.112D-03-0.288D-03-0.108D-02 0.458D-03
 Coeff-Com:  0.861D-02-0.416D-02-0.502D-01-0.893D-01 0.390D+00 0.746D+00
 Coeff:     -0.360D-06 0.484D-06-0.632D-06-0.164D-05-0.573D-05-0.133D-04
 Coeff:      0.174D-05 0.953D-04 0.112D-03-0.288D-03-0.108D-02 0.458D-03
 Coeff:      0.861D-02-0.416D-02-0.502D-01-0.893D-01 0.390D+00 0.746D+00
 Gap=     0.246 Goal=   None    Shift=    0.000
 RMSDP=1.68D-08 MaxDP=1.87D-06 DE= 3.82D-11 OVMax= 2.86D-07

 Cycle  19  Pass 1  IDiag  1:
 RMSU=  4.78D-09    CP:  4.03D-01  2.87D+00  1.51D+00  8.81D-01  9.10D-01
                    CP:  8.46D-01  1.53D+00  1.55D+00  2.15D+00  1.86D+00
                    CP:  1.52D+00  1.38D+00  1.61D+00  1.14D+00  1.66D+00
                    CP:  1.47D+00  1.45D+00  1.18D+00
 E= -3010.53753785435     Delta-E=       -0.000000000020 Rises=F Damp=F
 DIIS: error= 7.17D-09 at cycle  19 NSaved=  19.
 NSaved=19 IEnMin=17 EnMin= -3010.53753785437     IErMin=19 ErrMin= 7.17D-09
 ErrMax= 7.17D-09  0.00D+00 EMaxC= 1.00D-01 BMatC= 1.09D-14 BMatP= 1.24D-13
 IDIUse=1 WtCom= 1.00D+00 WtEn= 0.00D+00
 Coeff-Com: -0.241D-06 0.325D-06 0.811D-08 0.312D-06 0.107D-05 0.158D-05
 Coeff-Com: -0.728D-05-0.149D-04 0.307D-04 0.102D-03-0.108D-03-0.492D-03
 Coeff-Com: -0.271D-03 0.408D-02 0.968D-02-0.284D-01-0.112D+00-0.449D-01
 Coeff-Com:  0.117D+01
 Coeff:     -0.241D-06 0.325D-06 0.811D-08 0.312D-06 0.107D-05 0.158D-05
 Coeff:     -0.728D-05-0.149D-04 0.307D-04 0.102D-03-0.108D-03-0.492D-03
 Coeff:     -0.271D-03 0.408D-02 0.968D-02-0.284D-01-0.112D+00-0.449D-01
 Coeff:      0.117D+01
 Gap=     0.246 Goal=   None    Shift=    0.000
 RMSDP=7.18D-09 MaxDP=3.36D-07 DE=-2.00D-11 OVMax= 2.41D-07

 SCF Done:  E(RwB97XD) =  -3010.53753785     A.U. after   19 cycles
            NFock= 19  Conv=0.72D-08     -V/T= 2.0016
 KE= 3.005860865745D+03 PE=-8.702150359680D+03 EE= 1.910701120669D+03
 Leave Link  502 at Thu May  2 14:18:29 2024, MaxMem=   134217728 cpu:            1147.8 elap:            1148.0
 (Enter /software/gaussian/g16-c01/sse4/g16/l601.exe)
 Copying SCF densities to generalized density rwf, IOpCl= 0 IROHF=0.

 **********************************************************************

            Population analysis using the SCF Density.

 **********************************************************************

 Alpha  occ. eigenvalues -- -483.34145 -62.89205 -56.68848 -56.68347 -56.68342
 Alpha  occ. eigenvalues --  -19.46709 -19.46655 -14.86150 -10.60220 -10.59716
 Alpha  occ. eigenvalues --  -10.58345 -10.58183 -10.54367 -10.53678  -9.05037
 Alpha  occ. eigenvalues --   -6.87579  -6.85919  -6.85905  -2.97515  -2.97072
 Alpha  occ. eigenvalues --   -2.97060  -2.95730  -2.95730  -1.50372  -1.33319
 Alpha  occ. eigenvalues --   -1.23638  -1.14451  -1.13490  -1.06873  -1.01436
 Alpha  occ. eigenvalues --   -0.96460  -0.91550  -0.85642  -0.81685  -0.81004
 Alpha  occ. eigenvalues --   -0.80693  -0.78816  -0.76827  -0.76525  -0.73583
 Alpha  occ. eigenvalues --   -0.69577  -0.68589  -0.64986  -0.61938  -0.59760
 Alpha  occ. eigenvalues --   -0.57943  -0.57583  -0.56440  -0.56114
 Alpha virt. eigenvalues --   -0.31547  -0.21176  -0.18425  -0.15080  -0.13970
 Alpha virt. eigenvalues --   -0.11503  -0.10107  -0.08391  -0.07246  -0.06236
 Alpha virt. eigenvalues --   -0.05012  -0.04429  -0.02613  -0.01884  -0.01545
 Alpha virt. eigenvalues --   -0.01361   0.00144   0.00561   0.02308   0.02484
 Alpha virt. eigenvalues --    0.04065   0.04726   0.05142   0.05464   0.06773
 Alpha virt. eigenvalues --    0.06988   0.07467   0.08063   0.08432   0.09366
 Alpha virt. eigenvalues --    0.09803   0.11061   0.11283   0.11946   0.12864
 Alpha virt. eigenvalues --    0.13027   0.13267   0.13805   0.14444   0.15823
 Alpha virt. eigenvalues --    0.16426   0.17128   0.17972   0.18598   0.19557
 Alpha virt. eigenvalues --    0.20276   0.20640   0.21486   0.22161   0.23595
 Alpha virt. eigenvalues --    0.23882   0.25988   0.26768   0.27950   0.28839
 Alpha virt. eigenvalues --    0.30698   0.32774   0.33611   0.33775   0.35282
 Alpha virt. eigenvalues --    0.36569   0.37469   0.38617   0.39419   0.40794
 Alpha virt. eigenvalues --    0.43116   0.43852   0.44644   0.46418   0.47020
 Alpha virt. eigenvalues --    0.47805   0.49416   0.49525   0.50604   0.52935
 Alpha virt. eigenvalues --    0.54019   0.55340   0.57309   0.57610   0.59357
 Alpha virt. eigenvalues --    0.60222   0.61454   0.63096   0.65561   0.67366
 Alpha virt. eigenvalues --    0.70629   0.70824   0.72336   0.73324   0.73856
 Alpha virt. eigenvalues --    0.74039   0.76857   0.79244   0.80918   0.84511
 Alpha virt. eigenvalues --    0.85814   0.87052   0.90853   0.93105   0.98162
 Alpha virt. eigenvalues --    0.99761   1.01583   1.03097   1.04782   1.06286
 Alpha virt. eigenvalues --    1.08062   1.12227   1.12926   1.13543   1.17289
 Alpha virt. eigenvalues --    1.20630   1.22389   1.27370   1.32581   1.35519
 Alpha virt. eigenvalues --    1.36102   1.38179   1.41946   1.53941   1.55966
 Alpha virt. eigenvalues --    1.56664   1.59190   1.60459   1.63219   1.64757
 Alpha virt. eigenvalues --    1.67485   1.70510   1.73435   1.74514   1.78581
 Alpha virt. eigenvalues --    1.83177   1.84543   1.86454   1.91632   1.93682
 Alpha virt. eigenvalues --    1.97050   2.01089   2.02123   2.06182   2.07459
 Alpha virt. eigenvalues --    2.11581   2.13634   2.21599   2.23101   2.26707
 Alpha virt. eigenvalues --    2.32779   2.39296   2.40962   2.43732   2.52446
 Alpha virt. eigenvalues --    2.57378   2.62413   2.65137   2.67958   2.71283
 Alpha virt. eigenvalues --    2.73118   2.75890   2.76783   2.80016   2.81147
 Alpha virt. eigenvalues --    2.92195   2.97388   3.00721   3.04881   3.08105
 Alpha virt. eigenvalues --    3.14053   3.15597   3.16837   3.21994   3.26092
 Alpha virt. eigenvalues --    3.27133   3.37328   3.45783   3.49466   3.54176
 Alpha virt. eigenvalues --    3.56876   3.68443   3.73773   3.82763   3.86429
 Alpha virt. eigenvalues --    4.06822   4.07638   4.16544   4.20566   4.40514
 Alpha virt. eigenvalues --    4.44654   4.53700   4.59256   4.93154   4.96025
 Alpha virt. eigenvalues --    5.04837   5.09350   5.61558   6.14755   6.64930
 Alpha virt. eigenvalues --    7.45603   7.47981   7.58234  23.21181  23.60405
 Alpha virt. eigenvalues --   23.70430  23.76987  23.94814  24.01241  35.31014
 Alpha virt. eigenvalues --   47.91123  49.84783  49.93447 289.78795 289.81138
 Alpha virt. eigenvalues --  289.937951020.92356
          Condensed to atoms (all electrons):
               1          2          3          4          5          6
     1  C    8.240713  -3.101095   1.242713  -0.234231   0.306462   0.047703
     2  C   -3.101095  18.228675  -5.842481   0.706437  -0.033897   0.180962
     3  C    1.242713  -5.842481  19.636331  -1.608358   0.046414   0.129728
     4  C   -0.234231   0.706437  -1.608358   6.563556   0.005838  -0.017265
     5  H    0.306462  -0.033897   0.046414   0.005838   0.326444  -0.001516
     6  H    0.047703   0.180962   0.129728  -0.017265  -0.001516   0.307733
     7  H    0.019492  -0.022082   0.025449   0.316114  -0.002705  -0.000005
     8  N   -0.125696   0.502357  -1.653176   0.022229  -0.000797  -0.030802
     9  O   -0.045695   0.121157  -0.393083  -0.007192  -0.000042  -0.002336
    10  O    0.277822  -0.420329  -0.018822  -0.034532   0.000072   0.021799
    11  C    0.962394  -1.438556   2.248981  -0.372295  -0.022195   0.009907
    12  H   -0.009846   0.010914   0.016163   0.003313   0.000006  -0.000017
    13  C   -1.467458  -2.913615  -7.489861   0.929099   0.025290  -0.001318
    14  H   -0.005539   0.014586   0.018612   0.007777  -0.000020   0.000011
    15  Br  -0.043078  -0.102119  -0.262592   0.073647  -0.000215  -0.000541
               7          8          9         10         11         12
     1  C    0.019492  -0.125696  -0.045695   0.277822   0.962394  -0.009846
     2  C   -0.022082   0.502357   0.121157  -0.420329  -1.438556   0.010914
     3  C    0.025449  -1.653176  -0.393083  -0.018822   2.248981   0.016163
     4  C    0.316114   0.022229  -0.007192  -0.034532  -0.372295   0.003313
     5  H   -0.002705  -0.000797  -0.000042   0.000072  -0.022195   0.000006
     6  H   -0.000005  -0.030802  -0.002336   0.021799   0.009907  -0.000017
     7  H    0.331458  -0.000009   0.000015  -0.000013   0.030201  -0.002133
     8  N   -0.000009   7.648175   0.142192   0.088719  -0.272388   0.000144
     9  O    0.000015   0.142192   7.816919   0.010383   0.224621   0.000085
    10  O   -0.000013   0.088719   0.010383   7.874425   0.035231  -0.000002
    11  C    0.030201  -0.272388   0.224621   0.035231   8.406914   0.327612
    12  H   -0.002133   0.000144   0.000085  -0.000002   0.327612   0.310797
    13  C   -0.033745   0.782762   0.077596   0.094813  -3.959868  -0.014359
    14  H    0.000003  -0.016703   0.003057  -0.001872  -0.017386  -0.002901
    15  Br  -0.000451   0.120170  -0.038944  -0.002073  -0.012053  -0.004058
              13         14         15
     1  C   -1.467458  -0.005539  -0.043078
     2  C   -2.913615   0.014586  -0.102119
     3  C   -7.489861   0.018612  -0.262592
     4  C    0.929099   0.007777   0.073647
     5  H    0.025290  -0.000020  -0.000215
     6  H   -0.001318   0.000011  -0.000541
     7  H   -0.033745   0.000003  -0.000451
     8  N    0.782762  -0.016703   0.120170
     9  O    0.077596   0.003057  -0.038944
    10  O    0.094813  -0.001872  -0.002073
    11  C   -3.959868  -0.017386  -0.012053
    12  H   -0.014359  -0.002901  -0.004058
    13  C   19.616862   0.302117   0.339577
    14  H    0.302117   0.254987  -0.024224
    15  Br   0.339577  -0.024224  34.947678
 Mulliken charges:
               1
     1  C   -0.064659
     2  C    0.109086
     3  C   -0.096020
     4  C   -0.354137
     5  H    0.350860
     6  H    0.355957
     7  H    0.338412
     8  N   -0.207177
     9  O    0.091268
    10  O    0.074376
    11  C   -0.151121
    12  H    0.364282
    13  C   -0.287895
    14  H    0.467494
    15  Br   0.009275
 Sum of Mulliken charges =   1.00000
 Mulliken charges with hydrogens summed into heavy atoms:
               1
     1  C    0.286201
     2  C    0.465043
     3  C   -0.096020
     4  C   -0.015726
     8  N   -0.207177
     9  O    0.091268
    10  O    0.074376
    11  C    0.213162
    13  C    0.179598
    15  Br   0.009275
 Electronic spatial extent (au):  <R**2>=           3950.1242
 Charge=              1.0000 electrons
 Dipole moment (field-independent basis, Debye):
    X=              2.5488    Y=             -0.2218    Z=              2.3905  Tot=              3.5014
 Quadrupole moment (field-independent basis, Debye-Ang):
   XX=            -67.7905   YY=            -52.2657   ZZ=            -66.4797
   XY=             -1.6128   XZ=              3.9112   YZ=             -0.6179
 Traceless Quadrupole moment (field-independent basis, Debye-Ang):
   XX=             -5.6119   YY=              9.9129   ZZ=             -4.3011
   XY=             -1.6128   XZ=              3.9112   YZ=             -0.6179
 Octapole moment (field-independent basis, Debye-Ang**2):
  XXX=           -510.6177  YYY=             97.4537  ZZZ=            100.0086  XYY=           -139.6745
  XXY=             27.3662  XXZ=             45.6103  XZZ=           -141.9922  YZZ=             25.8720
  YYZ=             35.9822  XYZ=              1.1453
 Hexadecapole moment (field-independent basis, Debye-Ang**3):
 XXXX=          -3427.3354 YYYY=           -714.9816 ZZZZ=           -439.7315 XXXY=            185.2681
 XXXZ=            253.6661 YYYX=            196.8630 YYYZ=           -191.9647 ZZZX=            203.5876
 ZZZY=           -171.6849 XXYY=           -631.2835 XXZZ=           -549.9636 YYZZ=           -192.3488
 XXYZ=            -58.6590 YYXZ=             71.5362 ZZXY=             47.9297
 N-N= 7.750508354121D+02 E-N=-8.702150359066D+03  KE= 3.005860865745D+03
 No NMR shielding tensors so no spin-rotation constants.
 Leave Link  601 at Thu May  2 14:18:36 2024, MaxMem=   134217728 cpu:               7.5 elap:               7.6
 (Enter /software/gaussian/g16-c01/sse4/g16/l9999.exe)
 Unable to Open any file for archive entry.
 1\1\GINC-BHX0015\SP\RwB97XD\6-311+G(d)\C6H5Br1N1O2(1+)\BWEIGHT\02-May-
 2024\0\\#P wB97XD/6-311+G* NoSymm #P Field=Z-175\\TitleMe\\1,1\C,0,0.5
 193,1.233,-0.0319\C,0,1.9445,1.2692,-0.0367\C,0,2.6204,0.0928,-0.025\C
 ,0,-0.196,0.0301,0.001\H,0,-0.0207,2.1742,-0.0434\H,0,2.4828,2.2089,-0
 .0361\H,0,-1.2777,0.0399,0.0117\N,0,4.0921,0.0959,0.0366\O,0,4.6393,-1
 .0217,0.1446\O,0,4.6649,1.1984,-0.0233\C,0,0.4943,-1.1671,0.021\H,0,-0
 .0325,-2.1149,0.0545\C,0,1.9629,-1.2165,-0.0211\H,0,2.4436,-1.9631,0.6
 151\Br,0,2.173,-1.9491,-1.9062\\Version=ES64L-G16RevC.01\HF=-3010.5375
 379\RMSD=7.181e-09\Dipole=-3.3264343,1.1408692,2.1897136\Quadrupole=-4
 .1722875,7.3700237,-3.1977362,-1.1990719,2.9078929,-0.4593835\PG=C01 [
 X(C6H5Br1N1O2)]\\@
 The archive entry for this job was punched.


 SLITHERY-DITHERY
 FRIEDRICH A. KEKULE
 DREAMT ON A BUS OF THINGS
 FREUD WOULD THINK KEEN.
 MOST OF THE TIME THEY WERE
 HERPETOLOGICAL
 BITING THEIR TAILS IN THE
 SHAPE OF BENZENE.
 Job cpu time:       0 days  0 hours 20 minutes 18.4 seconds.
 Elapsed time:       0 days  0 hours 20 minutes 18.6 seconds.
 File lengths (MBytes):  RWF=     40 Int=      0 D2E=      0 Chk=     32 Scr=      1
 Normal termination of Gaussian 16 at Thu May  2 14:18:37 2024.
