 Entering Gaussian System, Link 0=g16
 Initial command:
 /software/gaussian/g16-c01/sse4/g16/l1.exe "/local_scratch/24665300/Gau-29122.inp" -scrdir="/local_scratch/24665300/"
 Entering Link 1 = /software/gaussian/g16-c01/sse4/g16/l1.exe PID=     29123.
  
 Copyright (c) 1988-2019, Gaussian, Inc.  All Rights Reserved.
  
 This is part of the Gaussian(R) 16 program.  It is based on
 the Gaussian(R) 09 system (copyright 2009, Gaussian, Inc.),
 the Gaussian(R) 03 system (copyright 2003, Gaussian, Inc.),
 the Gaussian(R) 98 system (copyright 1998, Gaussian, Inc.),
 the Gaussian(R) 94 system (copyright 1995, Gaussian, Inc.),
 the Gaussian 92(TM) system (copyright 1992, Gaussian, Inc.),
 the Gaussian 90(TM) system (copyright 1990, Gaussian, Inc.),
 the Gaussian 88(TM) system (copyright 1988, Gaussian, Inc.),
 the Gaussian 86(TM) system (copyright 1986, Carnegie Mellon
 University), and the Gaussian 82(TM) system (copyright 1983,
 Carnegie Mellon University). Gaussian is a federally registered
 trademark of Gaussian, Inc.
  
 This software contains proprietary and confidential information,
 including trade secrets, belonging to Gaussian, Inc.
  
 This software is provided under written license and may be
 used, copied, transmitted, or stored only in accord with that
 written license.
  
 The following legend is applicable only to US Government
 contracts under FAR:
  
                    RESTRICTED RIGHTS LEGEND
  
 Use, reproduction and disclosure by the US Government is
 subject to restrictions as set forth in subparagraphs (a)
 and (c) of the Commercial Computer Software - Restricted
 Rights clause in FAR 52.227-19.
  
 Gaussian, Inc.
 340 Quinnipiac St., Bldg. 40, Wallingford CT 06492
  
  
 ---------------------------------------------------------------
 Warning -- This program may not be used in any manner that
 competes with the business of Gaussian, Inc. or will provide
 assistance to any competitor of Gaussian, Inc.  The licensee
 of this program is prohibited from giving any competitor of
 Gaussian, Inc. access to this program.  By using this program,
 the user acknowledges that Gaussian, Inc. is engaged in the
 business of creating and licensing software in the field of
 computational chemistry and represents and warrants to the
 licensee that it is not a competitor of Gaussian, Inc. and that
 it will not use this program in any manner prohibited above.
 ---------------------------------------------------------------
  

 Cite this work as:
 Gaussian 16, Revision C.01,
 M. J. Frisch, G. W. Trucks, H. B. Schlegel, G. E. Scuseria, 
 M. A. Robb, J. R. Cheeseman, G. Scalmani, V. Barone, 
 G. A. Petersson, H. Nakatsuji, X. Li, M. Caricato, A. V. Marenich, 
 J. Bloino, B. G. Janesko, R. Gomperts, B. Mennucci, H. P. Hratchian, 
 J. V. Ortiz, A. F. Izmaylov, J. L. Sonnenberg, D. Williams-Young, 
 F. Ding, F. Lipparini, F. Egidi, J. Goings, B. Peng, A. Petrone, 
 T. Henderson, D. Ranasinghe, V. G. Zakrzewski, J. Gao, N. Rega, 
 G. Zheng, W. Liang, M. Hada, M. Ehara, K. Toyota, R. Fukuda, 
 J. Hasegawa, M. Ishida, T. Nakajima, Y. Honda, O. Kitao, H. Nakai, 
 T. Vreven, K. Throssell, J. A. Montgomery, Jr., J. E. Peralta, 
 F. Ogliaro, M. J. Bearpark, J. J. Heyd, E. N. Brothers, K. N. Kudin, 
 V. N. Staroverov, T. A. Keith, R. Kobayashi, J. Normand, 
 K. Raghavachari, A. P. Rendell, J. C. Burant, S. S. Iyengar, 
 J. Tomasi, M. Cossi, J. M. Millam, M. Klene, C. Adamo, R. Cammi, 
 J. W. Ochterski, R. L. Martin, K. Morokuma, O. Farkas, 
 J. B. Foresman, and D. J. Fox, Gaussian, Inc., Wallingford CT, 2019.
 
 ******************************************
 Gaussian 16:  ES64L-G16RevC.01  3-Jul-2019
                 2-May-2024 
 ******************************************
 %chk=geometry.chk
 %mem=1GB
 %nprocshared=12
 Will use up to   12 processors via shared memory.
 ----------------------------------------
 #P wB97XD/6-311+G* NoSymm #P Field=Y-223
 ----------------------------------------
 1/38=1,172=1/1;
 2/12=2,15=1,17=6,18=5,40=1/2;
 3/5=4,6=6,7=11,11=2,14=2,15=-223,25=1,30=1,74=-58/1,2,3;
 4//1;
 5/5=2,38=5/2;
 6/7=2,8=2,9=2,10=2,28=1/1;
 99/5=1,9=1/99;
 Leave Link    1 at Thu May  2 13:57:40 2024, MaxMem=   134217728 cpu:               1.3 elap:               1.3
 (Enter /software/gaussian/g16-c01/sse4/g16/l101.exe)
 -------
 TitleMe
 -------
 Symbolic Z-matrix:
 Charge =  1 Multiplicity = 1
 C                     0.5193    1.233    -0.0319 
 C                     1.9445    1.2692   -0.0367 
 C                     2.6204    0.0928   -0.025 
 C                    -0.196     0.0301    0.001 
 H                    -0.0207    2.1742   -0.0434 
 H                     2.4828    2.2089   -0.0361 
 H                    -1.2777    0.0399    0.0117 
 N                     4.0921    0.0959    0.0366 
 O                     4.6393   -1.0217    0.1446 
 O                     4.6649    1.1984   -0.0233 
 C                     0.4943   -1.1671    0.021 
 H                    -0.0325   -2.1149    0.0545 
 C                     1.9629   -1.2165   -0.0211 
 H                     2.4436   -1.9631    0.6151 
 Br                    2.173    -1.9491   -1.9062 
 
 ITRead=  0  0  0  0  0  0  0  0  0  0  0  0  0  0  0
 MicOpt= -1 -1 -1 -1 -1 -1 -1 -1 -1 -1 -1 -1 -1 -1 -1
 NAtoms=     15 NQM=       15 NQMF=       0 NMMI=      0 NMMIF=      0
                NMic=       0 NMicF=      0.
                    Isotopes and Nuclear Properties:
 (Nuclear quadrupole moments (NQMom) in fm**2, nuclear magnetic moments (NMagM)
  in nuclear magnetons)

  Atom         1           2           3           4           5           6           7           8           9          10
 IAtWgt=          12          12          12          12           1           1           1          14          16          16
 AtmWgt=  12.0000000  12.0000000  12.0000000  12.0000000   1.0078250   1.0078250   1.0078250  14.0030740  15.9949146  15.9949146
 NucSpn=           0           0           0           0           1           1           1           2           0           0
 AtZEff=  -0.0000000  -0.0000000  -0.0000000  -0.0000000  -0.0000000  -0.0000000  -0.0000000  -0.0000000  -0.0000000  -0.0000000
 NQMom=    0.0000000   0.0000000   0.0000000   0.0000000   0.0000000   0.0000000   0.0000000   2.0440000   0.0000000   0.0000000
 NMagM=    0.0000000   0.0000000   0.0000000   0.0000000   2.7928460   2.7928460   2.7928460   0.4037610   0.0000000   0.0000000
 AtZNuc=   6.0000000   6.0000000   6.0000000   6.0000000   1.0000000   1.0000000   1.0000000   7.0000000   8.0000000   8.0000000

  Atom        11          12          13          14          15
 IAtWgt=          12           1          12           1          79
 AtmWgt=  12.0000000   1.0078250  12.0000000   1.0078250  78.9183361
 NucSpn=           0           1           0           1           3
 AtZEff=  -0.0000000  -0.0000000  -0.0000000  -0.0000000  -0.0000000
 NQMom=    0.0000000   0.0000000   0.0000000   0.0000000  31.3000000
 NMagM=    0.0000000   2.7928460   0.0000000   2.7928460   2.1063990
 AtZNuc=   6.0000000   1.0000000   6.0000000   1.0000000  35.0000000
 Leave Link  101 at Thu May  2 13:57:42 2024, MaxMem=   134217728 cpu:               1.5 elap:               1.5
 (Enter /software/gaussian/g16-c01/sse4/g16/l202.exe)
                          Input orientation:                          
 ---------------------------------------------------------------------
 Center     Atomic      Atomic             Coordinates (Angstroms)
 Number     Number       Type             X           Y           Z
 ---------------------------------------------------------------------
      1          6           0        0.519300    1.233000   -0.031900
      2          6           0        1.944500    1.269200   -0.036700
      3          6           0        2.620400    0.092800   -0.025000
      4          6           0       -0.196000    0.030100    0.001000
      5          1           0       -0.020700    2.174200   -0.043400
      6          1           0        2.482800    2.208900   -0.036100
      7          1           0       -1.277700    0.039900    0.011700
      8          7           0        4.092100    0.095900    0.036600
      9          8           0        4.639300   -1.021700    0.144600
     10          8           0        4.664900    1.198400   -0.023300
     11          6           0        0.494300   -1.167100    0.021000
     12          1           0       -0.032500   -2.114900    0.054500
     13          6           0        1.962900   -1.216500   -0.021100
     14          1           0        2.443600   -1.963100    0.615100
     15         35           0        2.173000   -1.949100   -1.906200
 ---------------------------------------------------------------------
                    Distance matrix (angstroms):
                    1          2          3          4          5
     1  C    0.000000
     2  C    1.425668   0.000000
     3  C    2.390549   1.356796   0.000000
     4  C    1.399895   2.473566   2.817218   0.000000
     5  H    1.085168   2.163581   3.362733   2.151712   0.000000
     6  H    2.192654   1.082960   2.120598   3.453189   2.503751
     7  H    2.157452   3.449071   3.898632   1.081797   2.477564
     8  N    3.750012   2.448304   1.472992   4.288753   4.608780
     9  O    4.699917   3.541615   2.312322   4.950458   5.653735
    10  O    4.145753   2.721354   2.324292   4.999386   4.786171
    11  C    2.400813   2.835836   2.471794   1.382101   3.381369
    12  H    3.394169   3.920329   3.452266   2.151887   4.290233
    13  C    2.843264   2.485817   1.465124   2.493060   3.928360
    14  H    3.786370   3.334922   2.160489   3.364142   4.860416
    15  Br   4.046416   3.728900   2.812194   3.628609   5.028314
                    6          7          8          9         10
     6  H    0.000000
     7  H    4.341452   0.000000
     8  N    2.657047   5.370150   0.000000
     9  O    3.888434   6.012948   1.249048   0.000000
    10  O    2.404752   6.054572   1.243863   2.226587   0.000000
    11  C    3.918516   2.144043   3.813080   4.149391   4.794941
    12  H    5.003018   2.489080   4.679774   4.798846   5.748876
    13  C    3.464662   3.475788   2.501842   2.688591   3.623886
    14  H    4.222698   4.268978   2.700314   2.434893   3.916224
    15  Br   4.569706   4.420610   3.411663   3.338935   4.434144
                   11         12         13         14         15
    11  C    0.000000
    12  H    1.084880   0.000000
    13  C    1.470034   2.189625   0.000000
    14  H    2.187771   2.543302   1.092353   0.000000
    15  Br   2.672762   2.955683   2.033334   2.535818   0.000000
 Symmetry turned off by external request.
 Stoichiometry    C6H5BrNO2(1+)
 Framework group  C1[X(C6H5BrNO2)]
 Deg. of freedom    39
 Full point group                 C1      NOp   1
 Rotational constants (GHZ):           1.1632986           0.9594224           0.5957624
 Leave Link  202 at Thu May  2 13:57:43 2024, MaxMem=   134217728 cpu:               1.2 elap:               1.2
 (Enter /software/gaussian/g16-c01/sse4/g16/l301.exe)
 Standard basis: 6-311+G(d) (5D, 7F)
 Ernie: Thresh=  0.10000D-02 Tol=  0.10000D-05 Strict=F.
 The following finite field(s) will be applied:
 An electric field of              0.0000 -0.0223  0.0000
   261 basis functions,   443 primitive gaussians,   273 cartesian basis functions
    49 alpha electrons       49 beta electrons
       nuclear repulsion energy       772.8945969580 Hartrees.
 IExCor= 4639 DFT=T Ex+Corr=wB97XD ExCW=0 ScaHFX=  1.000000
 ScaDFX=  1.000000  1.000000  1.000000  1.000000 ScalE2=  1.000000  1.000000
 IRadAn=      5 IRanWt=     -1 IRanGd=            0 ICorTp=0 IEmpDi=121
 HFx  wShort=  0.000000 wLong=  0.200000 cFull=  0.222036 cShort=  0.000000 cLong=  0.777964
 DFx  wShort=  0.000000 wLong=  0.200000 cFull=  0.000000 cShort=  0.000000 cLong=  1.000000
 NAtoms=   15 NActive=   15 NUniq=   15 SFac= 1.00D+00 NAtFMM=   60 NAOKFM=F Big=F
 Integral buffers will be    131072 words long.
 Raffenetti 2 integral format.
 Two-electron integral symmetry is turned off.
 R6Disp:  Grimme-D2 Dispersion energy=       -0.0080346408 Hartrees.
 Nuclear repulsion after empirical dispersion term =      772.8865623173 Hartrees.
 Leave Link  301 at Thu May  2 13:57:44 2024, MaxMem=   134217728 cpu:               1.0 elap:               1.0
 (Enter /software/gaussian/g16-c01/sse4/g16/l302.exe)
 NPDir=0 NMtPBC=     1 NCelOv=     1 NCel=       1 NClECP=     1 NCelD=      1
         NCelK=      1 NCelE2=     1 NClLst=     1 CellRange=     0.0.
 One-electron integrals computed using PRISM.
 NBasis=   261 RedAO= T EigKep=  2.52D-06  NBF=   261
 NBsUse=   261 1.00D-06 EigRej= -1.00D+00 NBFU=   261
 Precomputing XC quadrature grid using
 IXCGrd= 4 IRadAn=           5 IRanWt=          -1 IRanGd=           0 AccXCQ= 0.00D+00.
 Generated NRdTot=       0 NPtTot=           0 NUsed=           0 NTot=          32
 NSgBfM=   273   273   273   273   273 MxSgAt=    15 MxSgA2=    15.
 Leave Link  302 at Thu May  2 13:58:06 2024, MaxMem=   134217728 cpu:              21.9 elap:              21.9
 (Enter /software/gaussian/g16-c01/sse4/g16/l303.exe)
 DipDrv:  MaxL=1.
 The nuclear repulsion energy is now       775.5978904894 hartrees.
 Leave Link  303 at Thu May  2 13:58:09 2024, MaxMem=   134217728 cpu:               3.4 elap:               3.4
 (Enter /software/gaussian/g16-c01/sse4/g16/l401.exe)
 ExpMin= 3.50D-02 ExpMax= 4.40D+05 ExpMxC= 1.51D+04 IAcc=3 IRadAn=         5 AccDes= 0.00D+00
 Harris functional with IExCor= 4639 and IRadAn=       5 diagonalized for initial guess.
 HarFok:  IExCor= 4639 AccDes= 0.00D+00 IRadAn=         5 IDoV= 1 UseB2=F ITyADJ=14
 ICtDFT=  3500011 ScaDFX=  1.000000  1.000000  1.000000  1.000000
 FoFCou: FMM=F IPFlag=           0 FMFlag=      100000 FMFlg1=           0
         NFxFlg=           0 DoJE=T BraDBF=F KetDBF=T FulRan=T
         wScrn=  0.000000 ICntrl=       500 IOpCl=  0 I1Cent=   200000004 NGrid=           0
         NMat0=    1 NMatS0=      1 NMatT0=    0 NMatD0=    1 NMtDS0=    0 NMtDT0=    0
 Symmetry not used in FoFCou.
 Harris En= -2970.75607700817    
 JPrj=0 DoOrth=F DoCkMO=F.
 Leave Link  401 at Thu May  2 13:58:41 2024, MaxMem=   134217728 cpu:              31.5 elap:              31.5
 (Enter /software/gaussian/g16-c01/sse4/g16/l502.exe)
 Two-electron integral symmetry not used.
 Closed shell SCF:
 Using DIIS extrapolation, IDIIS=  1040.
 NGot=   134217728 LenX=   134063053 LenY=   133988083
 Requested convergence on RMS density matrix=1.00D-08 within 128 cycles.
 Requested convergence on MAX density matrix=1.00D-06.
 Requested convergence on             energy=1.00D-06.
 No special actions if energy rises.
 Fock matrices will be formed incrementally for  20 cycles.

 Cycle   1  Pass 1  IDiag  1:
 FoFJK:  IHMeth= 1 ICntrl=       0 DoSepK=T KAlg= 0 I1Cent=           0 FoldK=F
 IRaf=         1 NMat=       1 IRICut=       1 DoRegI=T DoRafI=F ISym2E= 0 IDoP0=0 IntGTp=1.
 FoFCou: FMM=F IPFlag=           0 FMFlag=      100000 FMFlg1=           0
         NFxFlg=           0 DoJE=T BraDBF=F KetDBF=F FulRan=T
         wScrn=  0.000000 ICntrl=       500 IOpCl=  0 I1Cent=           0 NGrid=           0
         NMat0=    1 NMatS0=      1 NMatT0=    0 NMatD0=    1 NMtDS0=    0 NMtDT0=    0
 Symmetry not used in FoFCou.
 E= -3007.64595178660    
 DIIS: error= 2.92D-01 at cycle   1 NSaved=   1.
 NSaved= 1 IEnMin= 1 EnMin= -3007.64595178660     IErMin= 1 ErrMin= 2.92D-01
 ErrMax= 2.92D-01  0.00D+00 EMaxC= 1.00D-01 BMatC= 1.29D+01 BMatP= 1.29D+01
 IDIUse=3 WtCom= 0.00D+00 WtEn= 1.00D+00
 Coeff-Com:  0.100D+01
 Coeff-En:   0.100D+01
 Coeff:      0.100D+01
 Gap=     0.333 Goal=   None    Shift=    0.000
 GapD=    0.333 DampG=1.000 DampE=0.250 DampFc=0.2500 IDamp=-1.
 Damping current iteration by 2.50D-01
 RMSDP=1.73D+00 MaxDP=2.36D+02              OVMax= 7.85D-01

 Cycle   2  Pass 1  IDiag  1:
 RMSU=  2.58D-02    CP:  7.57D-01
 E= -3008.53587574628     Delta-E=       -0.889923959675 Rises=F Damp=T
 DIIS: error= 2.20D-01 at cycle   2 NSaved=   2.
 NSaved= 2 IEnMin= 2 EnMin= -3008.53587574628     IErMin= 2 ErrMin= 2.20D-01
 ErrMax= 2.20D-01  0.00D+00 EMaxC= 1.00D-01 BMatC= 5.68D+00 BMatP= 1.29D+01
 IDIUse=3 WtCom= 0.00D+00 WtEn= 1.00D+00
 Coeff-Com: -0.119D+01 0.219D+01
 Coeff-En:   0.119D+00 0.881D+00
 Coeff:      0.119D+00 0.881D+00
 Gap=     0.103 Goal=   None    Shift=    0.000
 RMSDP=1.31D+00 MaxDP=1.80D+02 DE=-8.90D-01 OVMax= 7.83D-01

 Cycle   3  Pass 1  IDiag  1:
 RMSU=  2.79D-02    CP:  2.16D-02  2.20D+00
 E= -3009.56795886269     Delta-E=       -1.032083116412 Rises=F Damp=F
 DIIS: error= 9.27D-02 at cycle   3 NSaved=   3.
 NSaved= 3 IEnMin= 3 EnMin= -3009.56795886269     IErMin= 3 ErrMin= 9.27D-02
 ErrMax= 9.27D-02  0.00D+00 EMaxC= 1.00D-01 BMatC= 2.11D+00 BMatP= 5.68D+00
 IDIUse=3 WtCom= 7.35D-02 WtEn= 9.27D-01
 EnCoef did   100 forward-backward iterations
 Coeff-Com:  0.711D-01 0.242D+00 0.687D+00
 Coeff-En:   0.250D+00 0.378D-02 0.746D+00
 Coeff:      0.237D+00 0.213D-01 0.742D+00
 Gap=     0.254 Goal=   None    Shift=    0.000
 RMSDP=8.85D-02 MaxDP=1.20D+01 DE=-1.03D+00 OVMax= 5.54D-01

 Cycle   4  Pass 1  IDiag  1:
 RMSU=  7.53D-02    CP:  2.90D-02  3.00D+00  2.39D+00
 E= -3009.73316908761     Delta-E=       -0.165210224926 Rises=F Damp=F
 DIIS: error= 1.10D-01 at cycle   4 NSaved=   4.
 NSaved= 4 IEnMin= 4 EnMin= -3009.73316908761     IErMin= 3 ErrMin= 9.27D-02
 ErrMax= 1.10D-01  0.00D+00 EMaxC= 1.00D-01 BMatC= 1.22D+00 BMatP= 2.11D+00
 IDIUse=3 WtCom= 0.00D+00 WtEn= 1.00D+00
 Coeff-Com:  0.145D+00-0.989D-01 0.466D+00 0.487D+00
 Coeff-En:   0.000D+00 0.000D+00 0.460D+00 0.540D+00
 Coeff:      0.000D+00 0.000D+00 0.460D+00 0.540D+00
 Gap=     0.185 Goal=   None    Shift=    0.000
 RMSDP=5.41D-02 MaxDP=7.20D+00 DE=-1.65D-01 OVMax= 4.04D-01

 Cycle   5  Pass 1  IDiag  1:
 RMSU=  1.80D-02    CP:  2.38D-02  2.14D+00  1.74D+00  4.64D-01
 E= -3010.44745901816     Delta-E=       -0.714289930544 Rises=F Damp=F
 DIIS: error= 3.02D-02 at cycle   5 NSaved=   5.
 NSaved= 5 IEnMin= 5 EnMin= -3010.44745901816     IErMin= 5 ErrMin= 3.02D-02
 ErrMax= 3.02D-02  0.00D+00 EMaxC= 1.00D-01 BMatC= 1.80D-01 BMatP= 1.22D+00
 IDIUse=3 WtCom= 6.98D-01 WtEn= 3.02D-01
 Coeff-Com: -0.400D-04 0.278D-02 0.193D+00 0.288D+00 0.516D+00
 Coeff-En:   0.000D+00 0.000D+00 0.000D+00 0.965D-01 0.903D+00
 Coeff:     -0.279D-04 0.194D-02 0.135D+00 0.230D+00 0.633D+00
 Gap=     0.286 Goal=   None    Shift=    0.000
 RMSDP=1.03D-02 MaxDP=5.48D-01 DE=-7.14D-01 OVMax= 1.19D-01

 Cycle   6  Pass 1  IDiag  1:
 RMSU=  6.12D-03    CP:  2.38D-02  2.02D+00  1.71D+00  4.77D-01  5.71D-01
 E= -3010.53145138527     Delta-E=       -0.083992367108 Rises=F Damp=F
 DIIS: error= 1.75D-02 at cycle   6 NSaved=   6.
 NSaved= 6 IEnMin= 6 EnMin= -3010.53145138527     IErMin= 6 ErrMin= 1.75D-02
 ErrMax= 1.75D-02  0.00D+00 EMaxC= 1.00D-01 BMatC= 3.52D-02 BMatP= 1.80D-01
 IDIUse=3 WtCom= 8.25D-01 WtEn= 1.75D-01
 Coeff-Com: -0.272D-01 0.370D-01 0.870D-02 0.852D-02 0.313D+00 0.660D+00
 Coeff-En:   0.000D+00 0.000D+00 0.000D+00 0.000D+00 0.169D+00 0.831D+00
 Coeff:     -0.224D-01 0.305D-01 0.718D-02 0.703D-02 0.288D+00 0.690D+00
 Gap=     0.242 Goal=   None    Shift=    0.000
 RMSDP=5.25D-03 MaxDP=6.98D-01 DE=-8.40D-02 OVMax= 4.06D-02

 Cycle   7  Pass 1  IDiag  1:
 RMSU=  1.30D-03    CP:  2.30D-02  1.97D+00  1.64D+00  4.29D-01  6.80D-01
                    CP:  8.17D-01
 E= -3010.55153081936     Delta-E=       -0.020079434098 Rises=F Damp=F
 DIIS: error= 2.24D-03 at cycle   7 NSaved=   7.
 NSaved= 7 IEnMin= 7 EnMin= -3010.55153081936     IErMin= 7 ErrMin= 2.24D-03
 ErrMax= 2.24D-03  0.00D+00 EMaxC= 1.00D-01 BMatC= 1.37D-03 BMatP= 3.52D-02
 IDIUse=3 WtCom= 9.78D-01 WtEn= 2.24D-02
 Coeff-Com: -0.160D-01 0.218D-01-0.121D-01-0.111D-01 0.734D-01 0.282D+00
 Coeff-Com:  0.662D+00
 Coeff-En:   0.000D+00 0.000D+00 0.000D+00 0.000D+00 0.000D+00 0.000D+00
 Coeff-En:   0.100D+01
 Coeff:     -0.157D-01 0.214D-01-0.118D-01-0.109D-01 0.717D-01 0.276D+00
 Coeff:      0.669D+00
 Gap=     0.239 Goal=   None    Shift=    0.000
 RMSDP=8.37D-04 MaxDP=1.02D-01 DE=-2.01D-02 OVMax= 8.62D-03

 Cycle   8  Pass 1  IDiag  1:
 RMSU=  3.46D-04    CP:  2.33D-02  1.98D+00  1.65D+00  4.35D-01  6.75D-01
                    CP:  8.44D-01  9.32D-01
 E= -3010.55256656168     Delta-E=       -0.001035742313 Rises=F Damp=F
 DIIS: error= 7.30D-04 at cycle   8 NSaved=   8.
 NSaved= 8 IEnMin= 8 EnMin= -3010.55256656168     IErMin= 8 ErrMin= 7.30D-04
 ErrMax= 7.30D-04  0.00D+00 EMaxC= 1.00D-01 BMatC= 1.17D-04 BMatP= 1.37D-03
 IDIUse=3 WtCom= 9.93D-01 WtEn= 7.30D-03
 Coeff-Com: -0.604D-02 0.814D-02-0.451D-02-0.185D-02-0.795D-02 0.145D-01
 Coeff-Com:  0.273D+00 0.725D+00
 Coeff-En:   0.000D+00 0.000D+00 0.000D+00 0.000D+00 0.000D+00 0.000D+00
 Coeff-En:   0.000D+00 0.100D+01
 Coeff:     -0.600D-02 0.808D-02-0.448D-02-0.184D-02-0.789D-02 0.144D-01
 Coeff:      0.271D+00 0.727D+00
 Gap=     0.243 Goal=   None    Shift=    0.000
 RMSDP=7.85D-04 MaxDP=9.69D-02 DE=-1.04D-03 OVMax= 3.47D-03

 Cycle   9  Pass 1  IDiag  1:
 RMSU=  3.03D-04    CP:  2.30D-02  1.98D+00  1.64D+00  4.32D-01  6.70D-01
                    CP:  8.05D-01  1.13D+00  1.40D+00
 E= -3010.55269886954     Delta-E=       -0.000132307865 Rises=F Damp=F
 DIIS: error= 2.30D-04 at cycle   9 NSaved=   9.
 NSaved= 9 IEnMin= 9 EnMin= -3010.55269886954     IErMin= 9 ErrMin= 2.30D-04
 ErrMax= 2.30D-04  0.00D+00 EMaxC= 1.00D-01 BMatC= 1.66D-05 BMatP= 1.17D-04
 IDIUse=3 WtCom= 9.98D-01 WtEn= 2.30D-03
 Coeff-Com: -0.182D-02 0.243D-02-0.740D-03 0.812D-03-0.149D-01-0.353D-01
 Coeff-Com:  0.173D-01 0.284D+00 0.748D+00
 Coeff-En:   0.000D+00 0.000D+00 0.000D+00 0.000D+00 0.000D+00 0.000D+00
 Coeff-En:   0.000D+00 0.000D+00 0.100D+01
 Coeff:     -0.181D-02 0.242D-02-0.738D-03 0.810D-03-0.149D-01-0.352D-01
 Coeff:      0.172D-01 0.283D+00 0.749D+00
 Gap=     0.242 Goal=   None    Shift=    0.000
 RMSDP=1.36D-04 MaxDP=8.50D-03 DE=-1.32D-04 OVMax= 2.27D-03

 Cycle  10  Pass 1  IDiag  1:
 RMSU=  8.13D-05    CP:  2.30D-02  1.98D+00  1.64D+00  4.32D-01  6.66D-01
                    CP:  8.05D-01  1.17D+00  1.49D+00  1.12D+00
 E= -3010.55272356255     Delta-E=       -0.000024693006 Rises=F Damp=F
 DIIS: error= 9.41D-05 at cycle  10 NSaved=  10.
 NSaved=10 IEnMin=10 EnMin= -3010.55272356255     IErMin=10 ErrMin= 9.41D-05
 ErrMax= 9.41D-05  0.00D+00 EMaxC= 1.00D-01 BMatC= 2.37D-06 BMatP= 1.66D-05
 IDIUse=1 WtCom= 1.00D+00 WtEn= 0.00D+00
 Coeff-Com: -0.939D-04 0.133D-03 0.126D-03 0.606D-03-0.364D-02-0.105D-01
 Coeff-Com: -0.271D-01-0.268D-01 0.259D+00 0.808D+00
 Coeff:     -0.939D-04 0.133D-03 0.126D-03 0.606D-03-0.364D-02-0.105D-01
 Coeff:     -0.271D-01-0.268D-01 0.259D+00 0.808D+00
 Gap=     0.242 Goal=   None    Shift=    0.000
 RMSDP=1.48D-04 MaxDP=1.34D-02 DE=-2.47D-05 OVMax= 1.63D-03

 Cycle  11  Pass 1  IDiag  1:
 RMSU=  5.61D-05    CP:  2.29D-02  1.98D+00  1.64D+00  4.32D-01  6.63D-01
                    CP:  8.06D-01  1.17D+00  1.52D+00  1.26D+00  1.32D+00
 E= -3010.55272975756     Delta-E=       -0.000006195012 Rises=F Damp=F
 DIIS: error= 3.80D-05 at cycle  11 NSaved=  11.
 NSaved=11 IEnMin=11 EnMin= -3010.55272975756     IErMin=11 ErrMin= 3.80D-05
 ErrMax= 3.80D-05  0.00D+00 EMaxC= 1.00D-01 BMatC= 5.67D-07 BMatP= 2.37D-06
 IDIUse=1 WtCom= 1.00D+00 WtEn= 0.00D+00
 Coeff-Com:  0.207D-03-0.311D-03-0.205D-03-0.324D-04 0.197D-02 0.615D-02
 Coeff-Com:  0.293D-02-0.510D-01-0.770D-01 0.182D+00 0.936D+00
 Coeff:      0.207D-03-0.311D-03-0.205D-03-0.324D-04 0.197D-02 0.615D-02
 Coeff:      0.293D-02-0.510D-01-0.770D-01 0.182D+00 0.936D+00
 Gap=     0.242 Goal=   None    Shift=    0.000
 RMSDP=6.44D-05 MaxDP=4.69D-03 DE=-6.20D-06 OVMax= 9.34D-04

 Cycle  12  Pass 1  IDiag  1:
 RMSU=  1.14D-05    CP:  2.29D-02  1.98D+00  1.64D+00  4.32D-01  6.62D-01
                    CP:  8.06D-01  1.16D+00  1.53D+00  1.28D+00  1.55D+00
                    CP:  1.51D+00
 E= -3010.55273155135     Delta-E=       -0.000001793792 Rises=F Damp=F
 DIIS: error= 1.72D-05 at cycle  12 NSaved=  12.
 NSaved=12 IEnMin=12 EnMin= -3010.55273155135     IErMin=12 ErrMin= 1.72D-05
 ErrMax= 1.72D-05  0.00D+00 EMaxC= 1.00D-01 BMatC= 1.13D-07 BMatP= 5.67D-07
 IDIUse=1 WtCom= 1.00D+00 WtEn= 0.00D+00
 Coeff-Com:  0.134D-03-0.196D-03-0.134D-03-0.145D-03 0.953D-03 0.389D-02
 Coeff-Com:  0.112D-01-0.185D-02-0.569D-01-0.109D+00 0.550D-01 0.110D+01
 Coeff:      0.134D-03-0.196D-03-0.134D-03-0.145D-03 0.953D-03 0.389D-02
 Coeff:      0.112D-01-0.185D-02-0.569D-01-0.109D+00 0.550D-01 0.110D+01
 Gap=     0.242 Goal=   None    Shift=    0.000
 RMSDP=3.91D-05 MaxDP=3.79D-03 DE=-1.79D-06 OVMax= 5.93D-04

 Cycle  13  Pass 1  IDiag  1:
 RMSU=  5.66D-06    CP:  2.29D-02  1.98D+00  1.64D+00  4.32D-01  6.62D-01
                    CP:  8.07D-01  1.16D+00  1.51D+00  1.27D+00  1.67D+00
                    CP:  1.87D+00  1.58D+00
 E= -3010.55273207446     Delta-E=       -0.000000523105 Rises=F Damp=F
 DIIS: error= 9.78D-06 at cycle  13 NSaved=  13.
 NSaved=13 IEnMin=13 EnMin= -3010.55273207446     IErMin=13 ErrMin= 9.78D-06
 ErrMax= 9.78D-06  0.00D+00 EMaxC= 1.00D-01 BMatC= 3.01D-08 BMatP= 1.13D-07
 IDIUse=1 WtCom= 1.00D+00 WtEn= 0.00D+00
 Coeff-Com:  0.296D-04-0.371D-04 0.264D-05-0.924D-04-0.171D-03 0.182D-03
 Coeff-Com:  0.354D-02 0.901D-02 0.335D-02-0.604D-01-0.284D+00 0.357D+00
 Coeff-Com:  0.972D+00
 Coeff:      0.296D-04-0.371D-04 0.264D-05-0.924D-04-0.171D-03 0.182D-03
 Coeff:      0.354D-02 0.901D-02 0.335D-02-0.604D-01-0.284D+00 0.357D+00
 Coeff:      0.972D+00
 Gap=     0.242 Goal=   None    Shift=    0.000
 RMSDP=2.49D-05 MaxDP=2.62D-03 DE=-5.23D-07 OVMax= 3.27D-04

 Cycle  14  Pass 1  IDiag  1:
 RMSU=  3.55D-06    CP:  2.29D-02  1.98D+00  1.64D+00  4.32D-01  6.62D-01
                    CP:  8.08D-01  1.15D+00  1.50D+00  1.27D+00  1.72D+00
                    CP:  2.08D+00  1.96D+00  1.51D+00
 E= -3010.55273219349     Delta-E=       -0.000000119036 Rises=F Damp=F
 DIIS: error= 3.92D-06 at cycle  14 NSaved=  14.
 NSaved=14 IEnMin=14 EnMin= -3010.55273219349     IErMin=14 ErrMin= 3.92D-06
 ErrMax= 3.92D-06  0.00D+00 EMaxC= 1.00D-01 BMatC= 3.94D-09 BMatP= 3.01D-08
 IDIUse=1 WtCom= 1.00D+00 WtEn= 0.00D+00
 Coeff-Com:  0.929D-05-0.101D-04 0.181D-04-0.164D-04-0.210D-03-0.520D-03
 Coeff-Com: -0.594D-04 0.342D-02 0.750D-02-0.190D-02-0.117D+00 0.149D-01
 Coeff-Com:  0.358D+00 0.735D+00
 Coeff:      0.929D-05-0.101D-04 0.181D-04-0.164D-04-0.210D-03-0.520D-03
 Coeff:     -0.594D-04 0.342D-02 0.750D-02-0.190D-02-0.117D+00 0.149D-01
 Coeff:      0.358D+00 0.735D+00
 Gap=     0.242 Goal=   None    Shift=    0.000
 RMSDP=3.23D-06 MaxDP=3.32D-04 DE=-1.19D-07 OVMax= 5.40D-05

 Cycle  15  Pass 1  IDiag  1:
 RMSU=  1.47D-06    CP:  2.29D-02  1.98D+00  1.64D+00  4.32D-01  6.62D-01
                    CP:  8.08D-01  1.15D+00  1.50D+00  1.26D+00  1.73D+00
                    CP:  2.08D+00  2.05D+00  1.65D+00  1.20D+00
 E= -3010.55273220225     Delta-E=       -0.000000008758 Rises=F Damp=F
 DIIS: error= 1.38D-06 at cycle  15 NSaved=  15.
 NSaved=15 IEnMin=15 EnMin= -3010.55273220225     IErMin=15 ErrMin= 1.38D-06
 ErrMax= 1.38D-06  0.00D+00 EMaxC= 1.00D-01 BMatC= 8.51D-10 BMatP= 3.94D-09
 IDIUse=1 WtCom= 1.00D+00 WtEn= 0.00D+00
 Coeff-Com:  0.406D-06-0.112D-05 0.368D-05 0.573D-05 0.103D-04-0.130D-03
 Coeff-Com: -0.711D-03-0.131D-02-0.376D-03 0.144D-01 0.210D-01-0.645D-01
 Coeff-Com: -0.968D-01 0.252D+00 0.876D+00
 Coeff:      0.406D-06-0.112D-05 0.368D-05 0.573D-05 0.103D-04-0.130D-03
 Coeff:     -0.711D-03-0.131D-02-0.376D-03 0.144D-01 0.210D-01-0.645D-01
 Coeff:     -0.968D-01 0.252D+00 0.876D+00
 Gap=     0.242 Goal=   None    Shift=    0.000
 RMSDP=2.90D-06 MaxDP=2.33D-04 DE=-8.76D-09 OVMax= 3.07D-05

 Cycle  16  Pass 1  IDiag  1:
 RMSU=  5.10D-07    CP:  2.29D-02  1.98D+00  1.64D+00  4.32D-01  6.62D-01
                    CP:  8.08D-01  1.15D+00  1.50D+00  1.26D+00  1.73D+00
                    CP:  2.09D+00  2.07D+00  1.77D+00  1.48D+00  1.27D+00
 E= -3010.55273220449     Delta-E=       -0.000000002244 Rises=F Damp=F
 DIIS: error= 7.34D-07 at cycle  16 NSaved=  16.
 NSaved=16 IEnMin=16 EnMin= -3010.55273220449     IErMin=16 ErrMin= 7.34D-07
 ErrMax= 7.34D-07  0.00D+00 EMaxC= 1.00D-01 BMatC= 1.40D-10 BMatP= 8.51D-10
 IDIUse=1 WtCom= 1.00D+00 WtEn= 0.00D+00
 Coeff-Com:  0.435D-06-0.688D-06 0.198D-05 0.161D-05 0.332D-04 0.266D-04
 Coeff-Com: -0.159D-03-0.713D-03-0.145D-02 0.377D-02 0.193D-01-0.158D-01
 Coeff-Com: -0.729D-01-0.458D-01 0.210D+00 0.903D+00
 Coeff:      0.435D-06-0.688D-06 0.198D-05 0.161D-05 0.332D-04 0.266D-04
 Coeff:     -0.159D-03-0.713D-03-0.145D-02 0.377D-02 0.193D-01-0.158D-01
 Coeff:     -0.729D-01-0.458D-01 0.210D+00 0.903D+00
 Gap=     0.242 Goal=   None    Shift=    0.000
 RMSDP=1.09D-06 MaxDP=9.21D-05 DE=-2.24D-09 OVMax= 1.46D-05

 Cycle  17  Pass 1  IDiag  1:
 RMSU=  1.96D-07    CP:  2.29D-02  1.98D+00  1.64D+00  4.32D-01  6.62D-01
                    CP:  8.08D-01  1.15D+00  1.50D+00  1.26D+00  1.73D+00
                    CP:  2.09D+00  2.09D+00  1.81D+00  1.57D+00  1.52D+00
                    CP:  1.23D+00
 E= -3010.55273220482     Delta-E=       -0.000000000331 Rises=F Damp=F
 DIIS: error= 3.34D-07 at cycle  17 NSaved=  17.
 NSaved=17 IEnMin=17 EnMin= -3010.55273220482     IErMin=17 ErrMin= 3.34D-07
 ErrMax= 3.34D-07  0.00D+00 EMaxC= 1.00D-01 BMatC= 2.68D-11 BMatP= 1.40D-10
 IDIUse=1 WtCom= 1.00D+00 WtEn= 0.00D+00
 Coeff-Com: -0.222D-06 0.393D-06 0.649D-06-0.143D-05 0.121D-04 0.329D-04
 Coeff-Com:  0.850D-04 0.293D-04-0.419D-03-0.887D-03 0.289D-02 0.657D-02
 Coeff-Com: -0.722D-02-0.583D-01-0.803D-01 0.262D+00 0.875D+00
 Coeff:     -0.222D-06 0.393D-06 0.649D-06-0.143D-05 0.121D-04 0.329D-04
 Coeff:      0.850D-04 0.293D-04-0.419D-03-0.887D-03 0.289D-02 0.657D-02
 Coeff:     -0.722D-02-0.583D-01-0.803D-01 0.262D+00 0.875D+00
 Gap=     0.242 Goal=   None    Shift=    0.000
 RMSDP=6.33D-07 MaxDP=4.56D-05 DE=-3.31D-10 OVMax= 6.68D-06

 Cycle  18  Pass 1  IDiag  1:
 RMSU=  7.26D-08    CP:  2.29D-02  1.98D+00  1.64D+00  4.32D-01  6.62D-01
                    CP:  8.08D-01  1.15D+00  1.50D+00  1.26D+00  1.74D+00
                    CP:  2.09D+00  2.09D+00  1.81D+00  1.60D+00  1.66D+00
                    CP:  1.36D+00  1.48D+00
 E= -3010.55273220494     Delta-E=       -0.000000000114 Rises=F Damp=F
 DIIS: error= 1.09D-07 at cycle  18 NSaved=  18.
 NSaved=18 IEnMin=18 EnMin= -3010.55273220494     IErMin=18 ErrMin= 1.09D-07
 ErrMax= 1.09D-07  0.00D+00 EMaxC= 1.00D-01 BMatC= 3.83D-12 BMatP= 2.68D-11
 IDIUse=1 WtCom= 1.00D+00 WtEn= 0.00D+00
 Coeff-Com: -0.135D-06 0.230D-06 0.281D-06-0.746D-06-0.204D-05 0.316D-05
 Coeff-Com:  0.551D-04 0.158D-03 0.139D-03-0.886D-03-0.307D-02 0.376D-02
 Coeff-Com:  0.108D-01-0.810D-02-0.623D-01-0.992D-01 0.267D+00 0.892D+00
 Coeff:     -0.135D-06 0.230D-06 0.281D-06-0.746D-06-0.204D-05 0.316D-05
 Coeff:      0.551D-04 0.158D-03 0.139D-03-0.886D-03-0.307D-02 0.376D-02
 Coeff:      0.108D-01-0.810D-02-0.623D-01-0.992D-01 0.267D+00 0.892D+00
 Gap=     0.242 Goal=   None    Shift=    0.000
 RMSDP=3.54D-07 MaxDP=3.11D-05 DE=-1.14D-10 OVMax= 3.75D-06

 Cycle  19  Pass 1  IDiag  1:
 RMSU=  3.45D-08    CP:  2.29D-02  1.98D+00  1.64D+00  4.32D-01  6.62D-01
                    CP:  8.08D-01  1.15D+00  1.50D+00  1.26D+00  1.74D+00
                    CP:  2.09D+00  2.09D+00  1.82D+00  1.61D+00  1.71D+00
                    CP:  1.43D+00  1.73D+00  1.42D+00
 E= -3010.55273220493     Delta-E=        0.000000000011 Rises=F Damp=F
 DIIS: error= 2.96D-08 at cycle  19 NSaved=  19.
 NSaved=19 IEnMin=18 EnMin= -3010.55273220494     IErMin=19 ErrMin= 2.96D-08
 ErrMax= 2.96D-08  0.00D+00 EMaxC= 1.00D-01 BMatC= 3.41D-13 BMatP= 3.83D-12
 IDIUse=1 WtCom= 1.00D+00 WtEn= 0.00D+00
 Coeff-Com:  0.107D-08-0.610D-08-0.127D-06-0.481D-07-0.238D-05-0.395D-05
 Coeff-Com:  0.311D-05 0.412D-04 0.796D-04-0.524D-04-0.118D-02-0.364D-04
 Coeff-Com:  0.357D-02 0.887D-02-0.131D-02-0.676D-01-0.577D-01 0.220D+00
 Coeff-Com:  0.895D+00
 Coeff:      0.107D-08-0.610D-08-0.127D-06-0.481D-07-0.238D-05-0.395D-05
 Coeff:      0.311D-05 0.412D-04 0.796D-04-0.524D-04-0.118D-02-0.364D-04
 Coeff:      0.357D-02 0.887D-02-0.131D-02-0.676D-01-0.577D-01 0.220D+00
 Coeff:      0.895D+00
 Gap=     0.242 Goal=   None    Shift=    0.000
 RMSDP=1.02D-07 MaxDP=8.91D-06 DE= 1.09D-11 OVMax= 1.14D-06

 Cycle  20  Pass 1  IDiag  1:
 RMSU=  1.14D-08    CP:  2.29D-02  1.98D+00  1.64D+00  4.32D-01  6.62D-01
                    CP:  8.08D-01  1.15D+00  1.50D+00  1.26D+00  1.74D+00
                    CP:  2.09D+00  2.10D+00  1.82D+00  1.61D+00  1.72D+00
                    CP:  1.44D+00  1.85D+00  1.63D+00  1.26D+00
 E= -3010.55273220492     Delta-E=        0.000000000004 Rises=F Damp=F
 DIIS: error= 1.73D-08 at cycle  20 NSaved=  20.
 NSaved=20 IEnMin=18 EnMin= -3010.55273220494     IErMin=20 ErrMin= 1.73D-08
 ErrMax= 1.73D-08  0.00D+00 EMaxC= 1.00D-01 BMatC= 7.21D-14 BMatP= 3.41D-13
 IDIUse=1 WtCom= 1.00D+00 WtEn= 0.00D+00
 Coeff-Com:  0.290D-07-0.491D-07-0.134D-06 0.102D-06-0.363D-06-0.955D-06
 Coeff-Com: -0.642D-05-0.127D-04-0.512D-05 0.123D-03 0.242D-03-0.590D-03
 Coeff-Com: -0.107D-02 0.299D-02 0.859D-02 0.125D-02-0.470D-01-0.116D+00
 Coeff-Com:  0.135D+00 0.102D+01
 Coeff:      0.290D-07-0.491D-07-0.134D-06 0.102D-06-0.363D-06-0.955D-06
 Coeff:     -0.642D-05-0.127D-04-0.512D-05 0.123D-03 0.242D-03-0.590D-03
 Coeff:     -0.107D-02 0.299D-02 0.859D-02 0.125D-02-0.470D-01-0.116D+00
 Coeff:      0.135D+00 0.102D+01
 Gap=     0.242 Goal=   None    Shift=    0.000
 RMSDP=4.45D-08 MaxDP=4.26D-06 DE= 3.64D-12 OVMax= 5.76D-07

 Cycle  21  Pass 1  IDiag  1:
 Restarting incremental Fock formation.
 E= -3010.55273220490     Delta-E=        0.000000000025 Rises=F Damp=F
 DIIS: error= 6.57D-09 at cycle  21 NSaved=  20.
 NSaved=20 IEnMin=17 EnMin= -3010.55273220494     IErMin=20 ErrMin= 6.57D-09
 ErrMax= 6.57D-09  0.00D+00 EMaxC= 1.00D-01 BMatC= 1.24D-14 BMatP= 7.21D-14
 IDIUse=1 WtCom= 1.00D+00 WtEn= 0.00D+00
 Coeff-Com: -0.374D-08-0.405D-07 0.146D-07 0.216D-06 0.566D-06-0.103D-05
 Coeff-Com: -0.739D-05-0.100D-04 0.373D-04 0.211D-03-0.132D-03-0.758D-03
 Coeff-Com: -0.605D-03 0.189D-02 0.106D-01 0.179D-02-0.551D-01-0.104D+00
 Coeff-Com:  0.232D+00 0.914D+00
 Coeff:     -0.374D-08-0.405D-07 0.146D-07 0.216D-06 0.566D-06-0.103D-05
 Coeff:     -0.739D-05-0.100D-04 0.373D-04 0.211D-03-0.132D-03-0.758D-03
 Coeff:     -0.605D-03 0.189D-02 0.106D-01 0.179D-02-0.551D-01-0.104D+00
 Coeff:      0.232D+00 0.914D+00
 Gap=     0.242 Goal=   None    Shift=    0.000
 RMSDP=9.94D-09 MaxDP=7.83D-07 DE= 2.55D-11 OVMax= 1.41D-07

 SCF Done:  E(RwB97XD) =  -3010.55273220     A.U. after   21 cycles
            NFock= 21  Conv=0.99D-08     -V/T= 2.0016
 KE= 3.005871195718D+03 PE=-8.703068930948D+03 EE= 1.911047112536D+03
 Leave Link  502 at Thu May  2 14:20:03 2024, MaxMem=   134217728 cpu:            1282.3 elap:            1282.6
 (Enter /software/gaussian/g16-c01/sse4/g16/l601.exe)
 Copying SCF densities to generalized density rwf, IOpCl= 0 IROHF=0.

 **********************************************************************

            Population analysis using the SCF Density.

 **********************************************************************

 Alpha  occ. eigenvalues -- -483.34824 -62.89880 -56.69524 -56.69023 -56.69017
 Alpha  occ. eigenvalues --  -19.46827 -19.46387 -14.85929 -10.61292 -10.59809
 Alpha  occ. eigenvalues --  -10.59000 -10.57411 -10.54001 -10.53121  -9.05712
 Alpha  occ. eigenvalues --   -6.88251  -6.86599  -6.86575  -2.98188  -2.97749
 Alpha  occ. eigenvalues --   -2.97730  -2.96407  -2.96406  -1.50230  -1.33187
 Alpha  occ. eigenvalues --   -1.23971  -1.14612  -1.13540  -1.07158  -1.01544
 Alpha  occ. eigenvalues --   -0.96635  -0.91552  -0.86027  -0.81676  -0.81320
 Alpha  occ. eigenvalues --   -0.80579  -0.79159  -0.76818  -0.76356  -0.73702
 Alpha  occ. eigenvalues --   -0.69424  -0.67871  -0.64641  -0.62337  -0.60550
 Alpha  occ. eigenvalues --   -0.58249  -0.57683  -0.56242  -0.55851
 Alpha virt. eigenvalues --   -0.31663  -0.20978  -0.19336  -0.18737  -0.15018
 Alpha virt. eigenvalues --   -0.13966  -0.13241  -0.09773  -0.09021  -0.07848
 Alpha virt. eigenvalues --   -0.06352  -0.05148  -0.04657  -0.04071  -0.01809
 Alpha virt. eigenvalues --   -0.01289  -0.00801  -0.00059   0.01368   0.01833
 Alpha virt. eigenvalues --    0.02646   0.03611   0.04065   0.04880   0.05526
 Alpha virt. eigenvalues --    0.06164   0.06767   0.08402   0.09191   0.09570
 Alpha virt. eigenvalues --    0.10326   0.10574   0.11369   0.12205   0.13118
 Alpha virt. eigenvalues --    0.13758   0.13916   0.14672   0.15044   0.16161
 Alpha virt. eigenvalues --    0.17617   0.17970   0.18979   0.19704   0.21106
 Alpha virt. eigenvalues --    0.21943   0.22051   0.23937   0.24248   0.25428
 Alpha virt. eigenvalues --    0.26038   0.26580   0.27104   0.28044   0.28591
 Alpha virt. eigenvalues --    0.29138   0.32575   0.32735   0.34394   0.34873
 Alpha virt. eigenvalues --    0.36823   0.37434   0.39390   0.40027   0.42057
 Alpha virt. eigenvalues --    0.42992   0.43861   0.45533   0.46623   0.47565
 Alpha virt. eigenvalues --    0.47966   0.48703   0.49663   0.50544   0.53053
 Alpha virt. eigenvalues --    0.53544   0.53809   0.56924   0.57441   0.59418
 Alpha virt. eigenvalues --    0.61020   0.62078   0.63202   0.64298   0.68035
 Alpha virt. eigenvalues --    0.70116   0.70448   0.72160   0.73968   0.74169
 Alpha virt. eigenvalues --    0.75408   0.78642   0.80572   0.81101   0.84253
 Alpha virt. eigenvalues --    0.86261   0.87085   0.91219   0.93420   0.98333
 Alpha virt. eigenvalues --    0.99855   1.01513   1.03544   1.04654   1.06367
 Alpha virt. eigenvalues --    1.06877   1.12514   1.13250   1.14073   1.18178
 Alpha virt. eigenvalues --    1.19674   1.22818   1.27487   1.32123   1.35581
 Alpha virt. eigenvalues --    1.35876   1.38045   1.41560   1.53410   1.55650
 Alpha virt. eigenvalues --    1.57081   1.59111   1.60408   1.63205   1.64472
 Alpha virt. eigenvalues --    1.67470   1.70661   1.73553   1.74310   1.78608
 Alpha virt. eigenvalues --    1.82215   1.84917   1.87792   1.91162   1.93249
 Alpha virt. eigenvalues --    1.96894   2.00482   2.02349   2.06017   2.07084
 Alpha virt. eigenvalues --    2.11342   2.13752   2.21637   2.23101   2.27519
 Alpha virt. eigenvalues --    2.33079   2.38518   2.41376   2.43398   2.52476
 Alpha virt. eigenvalues --    2.56781   2.62529   2.65577   2.68292   2.71316
 Alpha virt. eigenvalues --    2.73427   2.75892   2.76793   2.79944   2.80966
 Alpha virt. eigenvalues --    2.91969   2.96974   3.00702   3.03880   3.08281
 Alpha virt. eigenvalues --    3.14400   3.15511   3.17315   3.21973   3.26432
 Alpha virt. eigenvalues --    3.28111   3.37387   3.46152   3.49663   3.54500
 Alpha virt. eigenvalues --    3.56733   3.68588   3.73959   3.82728   3.86432
 Alpha virt. eigenvalues --    4.06122   4.06931   4.15878   4.19849   4.39845
 Alpha virt. eigenvalues --    4.44773   4.53570   4.59575   4.93403   4.96010
 Alpha virt. eigenvalues --    5.05337   5.09078   5.61689   6.14903   6.64136
 Alpha virt. eigenvalues --    7.44952   7.47308   7.57528  23.21228  23.60507
 Alpha virt. eigenvalues --   23.69203  23.77321  23.94677  24.02014  35.31231
 Alpha virt. eigenvalues --   47.90437  49.84863  49.93523 289.78116 289.80462
 Alpha virt. eigenvalues --  289.931171020.91678
          Condensed to atoms (all electrons):
               1          2          3          4          5          6
     1  C    7.529219  -0.989520   0.278787  -0.105444   0.285603   0.037892
     2  C   -0.989520  17.255078  -2.492544   0.553281  -0.007210   0.230231
     3  C    0.278787  -2.492544  22.652449  -1.506336   0.016367   0.068442
     4  C   -0.105444   0.553281  -1.506336   6.654458   0.013905  -0.009736
     5  H    0.285603  -0.007210   0.016367   0.013905   0.257701  -0.000641
     6  H    0.037892   0.230231   0.068442  -0.009736  -0.000641   0.250183
     7  H    0.055040  -0.025118   0.021947   0.298895  -0.001919   0.000012
     8  N   -0.092662  -0.486567  -2.396048   0.048850  -0.000064  -0.020985
     9  O    0.029897   0.304792   0.158088  -0.030059  -0.000018  -0.001817
    10  O    0.220909  -0.042682  -0.275138  -0.017344  -0.000068   0.015565
    11  C    0.886167  -1.266332   1.695513  -0.398274  -0.015326   0.005466
    12  H   -0.037777   0.026862   0.012614   0.073402   0.000065  -0.000021
    13  C   -2.004553  -7.012163 -12.018176   0.773808   0.019588  -0.002841
    14  H    0.017483  -0.018040   0.027897  -0.014952  -0.000029   0.000076
    15  Br   0.010848  -0.262454  -0.208342  -0.051078   0.000247  -0.000450
               7          8          9         10         11         12
     1  C    0.055040  -0.092662   0.029897   0.220909   0.886167  -0.037777
     2  C   -0.025118  -0.486567   0.304792  -0.042682  -1.266332   0.026862
     3  C    0.021947  -2.396048   0.158088  -0.275138   1.695513   0.012614
     4  C    0.298895   0.048850  -0.030059  -0.017344  -0.398274   0.073402
     5  H   -0.001919  -0.000064  -0.000018  -0.000068  -0.015326   0.000065
     6  H    0.000012  -0.020985  -0.001817   0.015565   0.005466  -0.000021
     7  H    0.331642  -0.000041   0.000010  -0.000001   0.006847  -0.003146
     8  N   -0.000041   7.880999  -0.105490   0.262187  -0.406078  -0.000494
     9  O    0.000010  -0.105490   8.112764   0.015639   0.317596   0.000312
    10  O   -0.000001   0.262187   0.015639   7.597191  -0.014642  -0.000049
    11  C    0.006847  -0.406078   0.317596  -0.014642  10.408259   0.226994
    12  H   -0.003146  -0.000494   0.000312  -0.000049   0.226994   0.408737
    13  C   -0.022152   2.379664  -0.724962   0.038257  -5.131225   0.020638
    14  H   -0.000003  -0.020496   0.010355  -0.000884   0.186433  -0.006922
    15  Br  -0.000340   0.190982  -0.056713   0.002408  -0.306107   0.007568
              13         14         15
     1  C   -2.004553   0.017483   0.010848
     2  C   -7.012163  -0.018040  -0.262454
     3  C  -12.018176   0.027897  -0.208342
     4  C    0.773808  -0.014952  -0.051078
     5  H    0.019588  -0.000029   0.000247
     6  H   -0.002841   0.000076  -0.000450
     7  H   -0.022152  -0.000003  -0.000340
     8  N    2.379664  -0.020496   0.190982
     9  O   -0.724962   0.010355  -0.056713
    10  O    0.038257  -0.000884   0.002408
    11  C   -5.131225   0.186433  -0.306107
    12  H    0.020638  -0.006922   0.007568
    13  C   29.150388   0.155754   0.754421
    14  H    0.155754   0.375986  -0.068657
    15  Br   0.754421  -0.068657  34.968001
 Mulliken charges:
               1
     1  C   -0.121889
     2  C    0.232387
     3  C   -0.035518
     4  C   -0.283376
     5  H    0.431798
     6  H    0.428625
     7  H    0.338328
     8  N   -0.233758
     9  O   -0.030393
    10  O    0.198652
    11  C   -0.195291
    12  H    0.271217
    13  C   -0.376446
    14  H    0.355998
    15  Br   0.019666
 Sum of Mulliken charges =   1.00000
 Mulliken charges with hydrogens summed into heavy atoms:
               1
     1  C    0.309909
     2  C    0.661012
     3  C   -0.035518
     4  C    0.054952
     8  N   -0.233758
     9  O   -0.030393
    10  O    0.198652
    11  C    0.075926
    13  C   -0.020448
    15  Br   0.019666
 Electronic spatial extent (au):  <R**2>=           3951.3733
 Charge=              1.0000 electrons
 Dipole moment (field-independent basis, Debye):
    X=              2.4448    Y=              5.6744    Z=              0.1193  Tot=              6.1798
 Quadrupole moment (field-independent basis, Debye-Ang):
   XX=            -68.2085   YY=            -55.3300   ZZ=            -64.6776
   XY=             10.7165   XZ=             -0.6716   YZ=             -1.0439
 Traceless Quadrupole moment (field-independent basis, Debye-Ang):
   XX=             -5.4698   YY=              7.4087   ZZ=             -1.9389
   XY=             10.7165   XZ=             -0.6716   YZ=             -1.0439
 Octapole moment (field-independent basis, Debye-Ang**2):
  XXX=           -512.2570  YYY=            133.2847  ZZZ=             90.2660  XYY=           -145.6608
  XXY=             74.2901  XXZ=             29.6411  XZZ=           -138.5901  YZZ=             29.4508
  YYZ=             36.3384  XYZ=              0.3455
 Hexadecapole moment (field-independent basis, Debye-Ang**3):
 XXXX=          -3432.9957 YYYY=           -759.4029 ZZZZ=           -417.9680 XXXY=            379.9409
 XXXZ=            192.2069 YYYX=            265.7763 YYYZ=           -207.3422 ZZZX=            184.0276
 ZZZY=           -168.3642 XXYY=           -645.2255 XXZZ=           -542.4907 YYZZ=           -198.4637
 XXYZ=            -60.2297 YYXZ=             72.8355 ZZXY=             55.4727
 N-N= 7.755978904894D+02 E-N=-8.703068931021D+03  KE= 3.005871195718D+03
 No NMR shielding tensors so no spin-rotation constants.
 Leave Link  601 at Thu May  2 14:20:11 2024, MaxMem=   134217728 cpu:               7.5 elap:               7.5
 (Enter /software/gaussian/g16-c01/sse4/g16/l9999.exe)
 Unable to Open any file for archive entry.
 1\1\GINC-BHX0009\SP\RwB97XD\6-311+G(d)\C6H5Br1N1O2(1+)\BWEIGHT\02-May-
 2024\0\\#P wB97XD/6-311+G* NoSymm #P Field=Y-223\\TitleMe\\1,1\C,0,0.5
 193,1.233,-0.0319\C,0,1.9445,1.2692,-0.0367\C,0,2.6204,0.0928,-0.025\C
 ,0,-0.196,0.0301,0.001\H,0,-0.0207,2.1742,-0.0434\H,0,2.4828,2.2089,-0
 .0361\H,0,-1.2777,0.0399,0.0117\N,0,4.0921,0.0959,0.0366\O,0,4.6393,-1
 .0217,0.1446\O,0,4.6649,1.1984,-0.0233\C,0,0.4943,-1.1671,0.021\H,0,-0
 .0325,-2.1149,0.0545\C,0,1.9629,-1.2165,-0.0211\H,0,2.4436,-1.9631,0.6
 151\Br,0,2.173,-1.9491,-1.9062\\Version=ES64L-G16RevC.01\HF=-3010.5527
 322\RMSD=9.935e-09\Dipole=-3.36736,3.4605861,1.2961428\Quadrupole=-4.0
 666738,5.5082014,-1.4415275,7.9674449,-0.4993024,-0.7761068\PG=C01 [X(
 C6H5Br1N1O2)]\\@
 The archive entry for this job was punched.


 NOTHING PUZZLES ME MORE THAN TIME AND SPACE; AND YET NOTHING TROUBLES ME LESS
                                                          -- CHARLES LAMB (1810)
 Job cpu time:       0 days  0 hours 22 minutes 32.6 seconds.
 Elapsed time:       0 days  0 hours 22 minutes 32.8 seconds.
 File lengths (MBytes):  RWF=     40 Int=      0 D2E=      0 Chk=     32 Scr=      1
 Normal termination of Gaussian 16 at Thu May  2 14:20:12 2024.
