 Entering Gaussian System, Link 0=g16
 Initial command:
 /software/gaussian/g16-c01/sse4/g16/l1.exe "/local_scratch/24657458/Gau-7827.inp" -scrdir="/local_scratch/24657458/"
 Entering Link 1 = /software/gaussian/g16-c01/sse4/g16/l1.exe PID=      7876.
  
 Copyright (c) 1988-2019, Gaussian, Inc.  All Rights Reserved.
  
 This is part of the Gaussian(R) 16 program.  It is based on
 the Gaussian(R) 09 system (copyright 2009, Gaussian, Inc.),
 the Gaussian(R) 03 system (copyright 2003, Gaussian, Inc.),
 the Gaussian(R) 98 system (copyright 1998, Gaussian, Inc.),
 the Gaussian(R) 94 system (copyright 1995, Gaussian, Inc.),
 the Gaussian 92(TM) system (copyright 1992, Gaussian, Inc.),
 the Gaussian 90(TM) system (copyright 1990, Gaussian, Inc.),
 the Gaussian 88(TM) system (copyright 1988, Gaussian, Inc.),
 the Gaussian 86(TM) system (copyright 1986, Carnegie Mellon
 University), and the Gaussian 82(TM) system (copyright 1983,
 Carnegie Mellon University). Gaussian is a federally registered
 trademark of Gaussian, Inc.
  
 This software contains proprietary and confidential information,
 including trade secrets, belonging to Gaussian, Inc.
  
 This software is provided under written license and may be
 used, copied, transmitted, or stored only in accord with that
 written license.
  
 The following legend is applicable only to US Government
 contracts under FAR:
  
                    RESTRICTED RIGHTS LEGEND
  
 Use, reproduction and disclosure by the US Government is
 subject to restrictions as set forth in subparagraphs (a)
 and (c) of the Commercial Computer Software - Restricted
 Rights clause in FAR 52.227-19.
  
 Gaussian, Inc.
 340 Quinnipiac St., Bldg. 40, Wallingford CT 06492
  
  
 ---------------------------------------------------------------
 Warning -- This program may not be used in any manner that
 competes with the business of Gaussian, Inc. or will provide
 assistance to any competitor of Gaussian, Inc.  The licensee
 of this program is prohibited from giving any competitor of
 Gaussian, Inc. access to this program.  By using this program,
 the user acknowledges that Gaussian, Inc. is engaged in the
 business of creating and licensing software in the field of
 computational chemistry and represents and warrants to the
 licensee that it is not a competitor of Gaussian, Inc. and that
 it will not use this program in any manner prohibited above.
 ---------------------------------------------------------------
  

 Cite this work as:
 Gaussian 16, Revision C.01,
 M. J. Frisch, G. W. Trucks, H. B. Schlegel, G. E. Scuseria, 
 M. A. Robb, J. R. Cheeseman, G. Scalmani, V. Barone, 
 G. A. Petersson, H. Nakatsuji, X. Li, M. Caricato, A. V. Marenich, 
 J. Bloino, B. G. Janesko, R. Gomperts, B. Mennucci, H. P. Hratchian, 
 J. V. Ortiz, A. F. Izmaylov, J. L. Sonnenberg, D. Williams-Young, 
 F. Ding, F. Lipparini, F. Egidi, J. Goings, B. Peng, A. Petrone, 
 T. Henderson, D. Ranasinghe, V. G. Zakrzewski, J. Gao, N. Rega, 
 G. Zheng, W. Liang, M. Hada, M. Ehara, K. Toyota, R. Fukuda, 
 J. Hasegawa, M. Ishida, T. Nakajima, Y. Honda, O. Kitao, H. Nakai, 
 T. Vreven, K. Throssell, J. A. Montgomery, Jr., J. E. Peralta, 
 F. Ogliaro, M. J. Bearpark, J. J. Heyd, E. N. Brothers, K. N. Kudin, 
 V. N. Staroverov, T. A. Keith, R. Kobayashi, J. Normand, 
 K. Raghavachari, A. P. Rendell, J. C. Burant, S. S. Iyengar, 
 J. Tomasi, M. Cossi, J. M. Millam, M. Klene, C. Adamo, R. Cammi, 
 J. W. Ochterski, R. L. Martin, K. Morokuma, O. Farkas, 
 J. B. Foresman, and D. J. Fox, Gaussian, Inc., Wallingford CT, 2019.
 
 ******************************************
 Gaussian 16:  ES64L-G16RevC.01  3-Jul-2019
                 1-May-2024 
 ******************************************
 %chk=geometry.chk
 %mem=9GB
 %nprocshared=12
 Will use up to   12 processors via shared memory.
 ----------------------------------------
 #P wB97XD/6-311+G* NoSymm #P Field=X+165
 ----------------------------------------
 1/38=1,172=1/1;
 2/12=2,15=1,17=6,18=5,40=1/2;
 3/5=4,6=6,7=11,11=2,14=1,15=165,25=1,30=1,74=-58/1,2,3;
 4//1;
 5/5=2,38=5/2;
 6/7=2,8=2,9=2,10=2,28=1/1;
 99/5=1,9=1/99;
 Leave Link    1 at Wed May  1 14:27:48 2024, MaxMem=  1207959552 cpu:               2.9 elap:               2.9
 (Enter /software/gaussian/g16-c01/sse4/g16/l101.exe)
 -------
 TitleMe
 -------
 Symbolic Z-matrix:
 Charge =  1 Multiplicity = 1
 C                     0.0295    1.3397    0.0682 
 C                     1.4348    1.2867    0.0064 
 C                     2.1118    0.0511   -0.0054 
 C                     1.4451   -1.1372    0.0312 
 C                    -0.6879    0.1682    0.11 
 H                    -0.4713    2.2984    0.0781 
 H                     2.0273    2.1965   -0.0322 
 H                     1.9897   -2.0764    0.0232 
 H                    -1.7716    0.1804    0.1582 
 N                     3.5864    0.051    -0.0675 
 O                     4.1471   -1.0597   -0.0881 
 O                     4.145     1.1639   -0.0901 
 C                    -0.0236   -1.1458    0.0835 
 H                    -0.4367   -1.8725    0.7889 
 Br                   -0.5359   -1.8697   -1.7408 
 
 ITRead=  0  0  0  0  0  0  0  0  0  0  0  0  0  0  0
 MicOpt= -1 -1 -1 -1 -1 -1 -1 -1 -1 -1 -1 -1 -1 -1 -1
 NAtoms=     15 NQM=       15 NQMF=       0 NMMI=      0 NMMIF=      0
                NMic=       0 NMicF=      0.
                    Isotopes and Nuclear Properties:
 (Nuclear quadrupole moments (NQMom) in fm**2, nuclear magnetic moments (NMagM)
  in nuclear magnetons)

  Atom         1           2           3           4           5           6           7           8           9          10
 IAtWgt=          12          12          12          12          12           1           1           1           1          14
 AtmWgt=  12.0000000  12.0000000  12.0000000  12.0000000  12.0000000   1.0078250   1.0078250   1.0078250   1.0078250  14.0030740
 NucSpn=           0           0           0           0           0           1           1           1           1           2
 AtZEff=  -0.0000000  -0.0000000  -0.0000000  -0.0000000  -0.0000000  -0.0000000  -0.0000000  -0.0000000  -0.0000000  -0.0000000
 NQMom=    0.0000000   0.0000000   0.0000000   0.0000000   0.0000000   0.0000000   0.0000000   0.0000000   0.0000000   2.0440000
 NMagM=    0.0000000   0.0000000   0.0000000   0.0000000   0.0000000   2.7928460   2.7928460   2.7928460   2.7928460   0.4037610
 AtZNuc=   6.0000000   6.0000000   6.0000000   6.0000000   6.0000000   1.0000000   1.0000000   1.0000000   1.0000000   7.0000000

  Atom        11          12          13          14          15
 IAtWgt=          16          16          12           1          79
 AtmWgt=  15.9949146  15.9949146  12.0000000   1.0078250  78.9183361
 NucSpn=           0           0           0           1           3
 AtZEff=  -0.0000000  -0.0000000  -0.0000000  -0.0000000  -0.0000000
 NQMom=    0.0000000   0.0000000   0.0000000   0.0000000  31.3000000
 NMagM=    0.0000000   0.0000000   0.0000000   2.7928460   2.1063990
 AtZNuc=   8.0000000   8.0000000   6.0000000   1.0000000  35.0000000
 Leave Link  101 at Wed May  1 14:27:55 2024, MaxMem=  1207959552 cpu:               2.0 elap:               2.0
 (Enter /software/gaussian/g16-c01/sse4/g16/l202.exe)
                          Input orientation:                          
 ---------------------------------------------------------------------
 Center     Atomic      Atomic             Coordinates (Angstroms)
 Number     Number       Type             X           Y           Z
 ---------------------------------------------------------------------
      1          6           0        0.029500    1.339700    0.068200
      2          6           0        1.434800    1.286700    0.006400
      3          6           0        2.111800    0.051100   -0.005400
      4          6           0        1.445100   -1.137200    0.031200
      5          6           0       -0.687900    0.168200    0.110000
      6          1           0       -0.471300    2.298400    0.078100
      7          1           0        2.027300    2.196500   -0.032200
      8          1           0        1.989700   -2.076400    0.023200
      9          1           0       -1.771600    0.180400    0.158200
     10          7           0        3.586400    0.051000   -0.067500
     11          8           0        4.147100   -1.059700   -0.088100
     12          8           0        4.145000    1.163900   -0.090100
     13          6           0       -0.023600   -1.145800    0.083500
     14          1           0       -0.436700   -1.872500    0.788900
     15         35           0       -0.535900   -1.869700   -1.740800
 ---------------------------------------------------------------------
                    Distance matrix (angstroms):
                    1          2          3          4          5
     1  C    0.000000
     2  C    1.407656   0.000000
     3  C    2.449874   1.408963   0.000000
     4  C    2.853126   2.424049   1.363043   0.000000
     5  C    1.374344   2.401589   2.804523   2.501993   0.000000
     6  H    1.081667   2.159142   3.424870   3.934226   2.141421
     7  H    2.176095   1.086408   2.147231   3.384750   3.392128
     8  H    3.938800   3.408612   2.131193   1.085702   3.495040
     9  H    2.143837   3.395283   3.888995   3.478413   1.084840
    10  N    3.785591   2.482297   1.475907   2.450862   4.279589
    11  O    4.768247   3.587631   2.320164   2.705743   4.992415
    12  O    4.122294   2.714696   2.319353   3.549540   4.938459
    13  C    2.486114   2.837240   2.449573   1.469656   1.472614
    14  H    3.324903   3.754379   3.290289   2.157764   2.165286
    15  Br   3.727252   4.110867   3.702891   2.756973   2.757100
                    6          7          8          9         10
     6  H    0.000000
     7  H    2.503108   0.000000
     8  H    5.019802   4.273425   0.000000
     9  H    2.486588   4.304945   4.388479   0.000000
    10  N    4.640790   2.652397   2.661486   5.364313   0.000000
    11  O    5.712624   3.885809   2.387560   6.052233   1.244373
    12  O    4.756638   2.356750   3.893289   6.002923   1.245428
    13  C    3.473180   3.923079   2.218790   2.195425   3.806210
    14  H    4.231175   4.827242   2.552506   2.528663   4.540772
    15  Br   4.548146   5.101303   3.087568   3.055498   4.845862
                   11         12         13         14         15
    11  O    0.000000
    12  O    2.223602   0.000000
    13  C    4.175117   4.768865   0.000000
    14  H    4.737193   5.566358   1.093770   0.000000
    15  Br   5.031700   5.817075   2.028436   2.531646   0.000000
 Symmetry turned off by external request.
 Stoichiometry    C6H5BrNO2(1+)
 Framework group  C1[X(C6H5BrNO2)]
 Deg. of freedom    39
 Full point group                 C1      NOp   1
 Rotational constants (GHZ):           1.8252210           0.5518633           0.4576002
 Leave Link  202 at Wed May  1 14:27:57 2024, MaxMem=  1207959552 cpu:               1.2 elap:               1.2
 (Enter /software/gaussian/g16-c01/sse4/g16/l301.exe)
 Standard basis: 6-311+G(d) (5D, 7F)
 Ernie: Thresh=  0.10000D-02 Tol=  0.10000D-05 Strict=F.
 The following finite field(s) will be applied:
 An electric field of              0.0165  0.0000  0.0000
   261 basis functions,   443 primitive gaussians,   273 cartesian basis functions
    49 alpha electrons       49 beta electrons
       nuclear repulsion energy       739.2122215416 Hartrees.
 IExCor= 4639 DFT=T Ex+Corr=wB97XD ExCW=0 ScaHFX=  1.000000
 ScaDFX=  1.000000  1.000000  1.000000  1.000000 ScalE2=  1.000000  1.000000
 IRadAn=      5 IRanWt=     -1 IRanGd=            0 ICorTp=0 IEmpDi=121
 HFx  wShort=  0.000000 wLong=  0.200000 cFull=  0.222036 cShort=  0.000000 cLong=  0.777964
 DFx  wShort=  0.000000 wLong=  0.200000 cFull=  0.000000 cShort=  0.000000 cLong=  1.000000
 NAtoms=   15 NActive=   15 NUniq=   15 SFac= 1.00D+00 NAtFMM=   60 NAOKFM=F Big=F
 Integral buffers will be    131072 words long.
 Raffenetti 2 integral format.
 Two-electron integral symmetry is turned off.
 R6Disp:  Grimme-D2 Dispersion energy=       -0.0077368520 Hartrees.
 Nuclear repulsion after empirical dispersion term =      739.2044846896 Hartrees.
 Leave Link  301 at Wed May  1 14:27:58 2024, MaxMem=  1207959552 cpu:               1.0 elap:               1.0
 (Enter /software/gaussian/g16-c01/sse4/g16/l302.exe)
 NPDir=0 NMtPBC=     1 NCelOv=     1 NCel=       1 NClECP=     1 NCelD=      1
         NCelK=      1 NCelE2=     1 NClLst=     1 CellRange=     0.0.
 One-electron integrals computed using PRISM.
 NBasis=   261 RedAO= T EigKep=  2.35D-06  NBF=   261
 NBsUse=   261 1.00D-06 EigRej= -1.00D+00 NBFU=   261
 Precomputing XC quadrature grid using
 IXCGrd= 4 IRadAn=           5 IRanWt=          -1 IRanGd=           0 AccXCQ= 0.00D+00.
 Generated NRdTot=       0 NPtTot=           0 NUsed=           0 NTot=          32
 NSgBfM=   273   273   273   273   273 MxSgAt=    15 MxSgA2=    15.
 Leave Link  302 at Wed May  1 14:28:21 2024, MaxMem=  1207959552 cpu:              21.7 elap:              21.7
 (Enter /software/gaussian/g16-c01/sse4/g16/l303.exe)
 DipDrv:  MaxL=1.
 The nuclear repulsion energy is now       742.3188129637 hartrees.
 Leave Link  303 at Wed May  1 14:28:24 2024, MaxMem=  1207959552 cpu:               3.2 elap:               3.2
 (Enter /software/gaussian/g16-c01/sse4/g16/l401.exe)
 ExpMin= 3.50D-02 ExpMax= 4.40D+05 ExpMxC= 1.51D+04 IAcc=3 IRadAn=         5 AccDes= 0.00D+00
 Harris functional with IExCor= 4639 and IRadAn=       5 diagonalized for initial guess.
 HarFok:  IExCor= 4639 AccDes= 0.00D+00 IRadAn=         5 IDoV= 1 UseB2=F ITyADJ=14
 ICtDFT=  3500011 ScaDFX=  1.000000  1.000000  1.000000  1.000000
 FoFCou: FMM=F IPFlag=           0 FMFlag=      100000 FMFlg1=           0
         NFxFlg=           0 DoJE=T BraDBF=F KetDBF=T FulRan=T
         wScrn=  0.000000 ICntrl=       500 IOpCl=  0 I1Cent=   200000004 NGrid=           0
         NMat0=    1 NMatS0=      1 NMatT0=    0 NMatD0=    1 NMtDS0=    0 NMtDT0=    0
 Symmetry not used in FoFCou.
 Harris En= -2970.63419962302    
 JPrj=0 DoOrth=F DoCkMO=F.
 Leave Link  401 at Wed May  1 14:28:55 2024, MaxMem=  1207959552 cpu:              30.8 elap:              30.8
 (Enter /software/gaussian/g16-c01/sse4/g16/l502.exe)
 Two-electron integral symmetry not used.
 Closed shell SCF:
 Using DIIS extrapolation, IDIIS=  1040.
 NGot=  1207959552 LenX=  1207804877 LenY=  1207729907
 Requested convergence on RMS density matrix=1.00D-08 within 128 cycles.
 Requested convergence on MAX density matrix=1.00D-06.
 Requested convergence on             energy=1.00D-06.
 No special actions if energy rises.
 Fock matrices will be formed incrementally for  20 cycles.

 Cycle   1  Pass 1  IDiag  1:
 FoFJK:  IHMeth= 1 ICntrl=       0 DoSepK=T KAlg= 0 I1Cent=           0 FoldK=F
 IRaf=         1 NMat=       1 IRICut=       1 DoRegI=T DoRafI=F ISym2E= 0 IDoP0=0 IntGTp=1.
 FoFCou: FMM=F IPFlag=           0 FMFlag=      100000 FMFlg1=           0
         NFxFlg=           0 DoJE=T BraDBF=F KetDBF=F FulRan=T
         wScrn=  0.000000 ICntrl=       500 IOpCl=  0 I1Cent=           0 NGrid=           0
         NMat0=    1 NMatS0=      1 NMatT0=    0 NMatD0=    1 NMtDS0=    0 NMtDT0=    0
 Symmetry not used in FoFCou.
 E= -3009.72359890999    
 DIIS: error= 3.20D-01 at cycle   1 NSaved=   1.
 NSaved= 1 IEnMin= 1 EnMin= -3009.72359890999     IErMin= 1 ErrMin= 3.20D-01
 ErrMax= 3.20D-01  0.00D+00 EMaxC= 1.00D-01 BMatC= 1.20D+01 BMatP= 1.20D+01
 IDIUse=3 WtCom= 0.00D+00 WtEn= 1.00D+00
 Coeff-Com:  0.100D+01
 Coeff-En:   0.100D+01
 Coeff:      0.100D+01
 Gap=     0.303 Goal=   None    Shift=    0.000
 GapD=    0.303 DampG=1.000 DampE=0.250 DampFc=0.2500 IDamp=-1.
 Damping current iteration by 2.50D-01
 RMSDP=6.67D-02 MaxDP=7.16D+00              OVMax= 2.62D-01

 Cycle   2  Pass 1  IDiag  1:
 RMSU=  4.73D-03    CP:  8.62D-01
 E= -3010.01431518250     Delta-E=       -0.290716272508 Rises=F Damp=T
 DIIS: error= 2.25D-01 at cycle   2 NSaved=   2.
 NSaved= 2 IEnMin= 2 EnMin= -3010.01431518250     IErMin= 2 ErrMin= 2.25D-01
 ErrMax= 2.25D-01  0.00D+00 EMaxC= 1.00D-01 BMatC= 5.46D+00 BMatP= 1.20D+01
 IDIUse=3 WtCom= 0.00D+00 WtEn= 1.00D+00
 Coeff-Com: -0.182D+01 0.282D+01
 Coeff-En:   0.000D+00 0.100D+01
 Coeff:      0.000D+00 0.100D+01
 Gap=     0.277 Goal=   None    Shift=    0.000
 RMSDP=5.08D-02 MaxDP=5.30D+00 DE=-2.91D-01 OVMax= 7.67D-02

 Cycle   3  Pass 1  IDiag  1:
 RMSU=  4.51D-03    CP:  4.36D-01  3.00D+00
 E= -3010.40000184196     Delta-E=       -0.385686659466 Rises=F Damp=F
 DIIS: error= 6.63D-02 at cycle   3 NSaved=   3.
 NSaved= 3 IEnMin= 3 EnMin= -3010.40000184196     IErMin= 3 ErrMin= 6.63D-02
 ErrMax= 6.63D-02  0.00D+00 EMaxC= 1.00D-01 BMatC= 7.54D-01 BMatP= 5.46D+00
 IDIUse=3 WtCom= 3.37D-01 WtEn= 6.63D-01
 Coeff-Com:  0.275D+01-0.361D+01 0.187D+01
 Coeff-En:   0.326D-01 0.000D+00 0.967D+00
 Coeff:      0.947D+00-0.122D+01 0.127D+01
 Gap=     0.265 Goal=   None    Shift=    0.000
 RMSDP=8.53D-03 MaxDP=5.87D-01 DE=-3.86D-01 OVMax= 7.78D-02

 Cycle   4  Pass 1  IDiag  1:
 RMSU=  6.00D-03    CP:  4.57D-01  2.55D+00  1.89D+00
 E= -3010.50744074305     Delta-E=       -0.107438901089 Rises=F Damp=F
 DIIS: error= 3.86D-02 at cycle   4 NSaved=   4.
 NSaved= 4 IEnMin= 4 EnMin= -3010.50744074305     IErMin= 4 ErrMin= 3.86D-02
 ErrMax= 3.86D-02  0.00D+00 EMaxC= 1.00D-01 BMatC= 2.38D-01 BMatP= 7.54D-01
 IDIUse=3 WtCom= 6.14D-01 WtEn= 3.86D-01
 Coeff-Com: -0.297D+00 0.409D+00 0.211D+00 0.677D+00
 Coeff-En:   0.000D+00 0.000D+00 0.205D+00 0.795D+00
 Coeff:     -0.182D+00 0.251D+00 0.209D+00 0.723D+00
 Gap=     0.259 Goal=   None    Shift=    0.000
 RMSDP=4.24D-03 MaxDP=4.05D-01 DE=-1.07D-01 OVMax= 3.37D-02

 Cycle   5  Pass 1  IDiag  1:
 RMSU=  1.60D-03    CP:  4.28D-01  2.92D+00  1.75D+00  9.08D-01
 E= -3010.55531513106     Delta-E=       -0.047874388008 Rises=F Damp=F
 DIIS: error= 6.70D-03 at cycle   5 NSaved=   5.
 NSaved= 5 IEnMin= 5 EnMin= -3010.55531513106     IErMin= 5 ErrMin= 6.70D-03
 ErrMax= 6.70D-03  0.00D+00 EMaxC= 1.00D-01 BMatC= 6.99D-03 BMatP= 2.38D-01
 IDIUse=3 WtCom= 9.33D-01 WtEn= 6.70D-02
 Coeff-Com: -0.141D+00 0.191D+00 0.228D-01 0.298D+00 0.629D+00
 Coeff-En:   0.000D+00 0.000D+00 0.000D+00 0.000D+00 0.100D+01
 Coeff:     -0.132D+00 0.178D+00 0.213D-01 0.278D+00 0.654D+00
 Gap=     0.247 Goal=   None    Shift=    0.000
 RMSDP=7.42D-04 MaxDP=5.40D-02 DE=-4.79D-02 OVMax= 1.06D-02

 Cycle   6  Pass 1  IDiag  1:
 RMSU=  5.03D-04    CP:  4.28D-01  2.85D+00  1.78D+00  9.17D-01  7.38D-01
 E= -3010.55678459642     Delta-E=       -0.001469465359 Rises=F Damp=F
 DIIS: error= 3.23D-04 at cycle   6 NSaved=   6.
 NSaved= 6 IEnMin= 6 EnMin= -3010.55678459642     IErMin= 6 ErrMin= 3.23D-04
 ErrMax= 3.23D-04  0.00D+00 EMaxC= 1.00D-01 BMatC= 6.18D-05 BMatP= 6.99D-03
 IDIUse=3 WtCom= 9.97D-01 WtEn= 3.23D-03
 Coeff-Com: -0.618D-01 0.826D-01-0.150D-01 0.832D-01 0.269D+00 0.642D+00
 Coeff-En:   0.000D+00 0.000D+00 0.000D+00 0.000D+00 0.000D+00 0.100D+01
 Coeff:     -0.616D-01 0.824D-01-0.149D-01 0.829D-01 0.268D+00 0.643D+00
 Gap=     0.249 Goal=   None    Shift=    0.000
 RMSDP=3.15D-04 MaxDP=1.80D-02 DE=-1.47D-03 OVMax= 3.45D-03

 Cycle   7  Pass 1  IDiag  1:
 RMSU=  1.19D-04    CP:  4.27D-01  2.86D+00  1.80D+00  9.33D-01  8.58D-01
                    CP:  7.60D-01
 E= -3010.55684981296     Delta-E=       -0.000065216544 Rises=F Damp=F
 DIIS: error= 3.05D-04 at cycle   7 NSaved=   7.
 NSaved= 7 IEnMin= 7 EnMin= -3010.55684981296     IErMin= 7 ErrMin= 3.05D-04
 ErrMax= 3.05D-04  0.00D+00 EMaxC= 1.00D-01 BMatC= 1.25D-05 BMatP= 6.18D-05
 IDIUse=3 WtCom= 9.97D-01 WtEn= 3.05D-03
 Coeff-Com: -0.135D-01 0.178D-01-0.112D-01 0.415D-02 0.470D-01 0.313D+00
 Coeff-Com:  0.643D+00
 Coeff-En:   0.000D+00 0.000D+00 0.000D+00 0.000D+00 0.000D+00 0.000D+00
 Coeff-En:   0.100D+01
 Coeff:     -0.135D-01 0.177D-01-0.111D-01 0.414D-02 0.469D-01 0.312D+00
 Coeff:      0.644D+00
 Gap=     0.249 Goal=   None    Shift=    0.000
 RMSDP=7.77D-05 MaxDP=3.44D-03 DE=-6.52D-05 OVMax= 1.40D-03

 Cycle   8  Pass 1  IDiag  1:
 RMSU=  4.45D-05    CP:  4.27D-01  2.86D+00  1.81D+00  9.38D-01  8.70D-01
                    CP:  8.09D-01  1.25D+00
 E= -3010.55686266497     Delta-E=       -0.000012852007 Rises=F Damp=F
 DIIS: error= 1.85D-04 at cycle   8 NSaved=   8.
 NSaved= 8 IEnMin= 8 EnMin= -3010.55686266497     IErMin= 8 ErrMin= 1.85D-04
 ErrMax= 1.85D-04  0.00D+00 EMaxC= 1.00D-01 BMatC= 3.91D-06 BMatP= 1.25D-05
 IDIUse=3 WtCom= 9.98D-01 WtEn= 1.85D-03
 Coeff-Com:  0.122D-01-0.166D-01-0.243D-02-0.241D-01-0.524D-01 0.111D-01
 Coeff-Com:  0.414D+00 0.658D+00
 Coeff-En:   0.000D+00 0.000D+00 0.000D+00 0.000D+00 0.000D+00 0.000D+00
 Coeff-En:   0.000D+00 0.100D+01
 Coeff:      0.122D-01-0.166D-01-0.242D-02-0.240D-01-0.523D-01 0.110D-01
 Coeff:      0.414D+00 0.659D+00
 Gap=     0.249 Goal=   None    Shift=    0.000
 RMSDP=5.25D-05 MaxDP=2.40D-03 DE=-1.29D-05 OVMax= 1.04D-03

 Cycle   9  Pass 1  IDiag  1:
 RMSU=  2.13D-05    CP:  4.27D-01  2.86D+00  1.81D+00  9.41D-01  8.76D-01
                    CP:  8.54D-01  1.48D+00  1.05D+00
 E= -3010.55686805408     Delta-E=       -0.000005389112 Rises=F Damp=F
 DIIS: error= 5.21D-05 at cycle   9 NSaved=   9.
 NSaved= 9 IEnMin= 9 EnMin= -3010.55686805408     IErMin= 9 ErrMin= 5.21D-05
 ErrMax= 5.21D-05  0.00D+00 EMaxC= 1.00D-01 BMatC= 4.92D-07 BMatP= 3.91D-06
 IDIUse=1 WtCom= 1.00D+00 WtEn= 0.00D+00
 Coeff-Com:  0.854D-02-0.115D-01 0.104D-02-0.119D-01-0.276D-01-0.430D-01
 Coeff-Com:  0.433D-01 0.278D+00 0.763D+00
 Coeff:      0.854D-02-0.115D-01 0.104D-02-0.119D-01-0.276D-01-0.430D-01
 Coeff:      0.433D-01 0.278D+00 0.763D+00
 Gap=     0.249 Goal=   None    Shift=    0.000
 RMSDP=2.22D-05 MaxDP=9.04D-04 DE=-5.39D-06 OVMax= 5.68D-04

 Cycle  10  Pass 1  IDiag  1:
 RMSU=  1.04D-05    CP:  4.27D-01  2.86D+00  1.81D+00  9.42D-01  8.81D-01
                    CP:  8.69D-01  1.58D+00  1.19D+00  1.17D+00
 E= -3010.55686901289     Delta-E=       -0.000000958803 Rises=F Damp=F
 DIIS: error= 2.43D-05 at cycle  10 NSaved=  10.
 NSaved=10 IEnMin=10 EnMin= -3010.55686901289     IErMin=10 ErrMin= 2.43D-05
 ErrMax= 2.43D-05  0.00D+00 EMaxC= 1.00D-01 BMatC= 9.72D-08 BMatP= 4.92D-07
 IDIUse=1 WtCom= 1.00D+00 WtEn= 0.00D+00
 Coeff-Com:  0.836D-03-0.109D-02 0.494D-03-0.610D-03 0.667D-03-0.100D-01
 Coeff-Com: -0.539D-01-0.195D-01 0.264D+00 0.819D+00
 Coeff:      0.836D-03-0.109D-02 0.494D-03-0.610D-03 0.667D-03-0.100D-01
 Coeff:     -0.539D-01-0.195D-01 0.264D+00 0.819D+00
 Gap=     0.249 Goal=   None    Shift=    0.000
 RMSDP=1.43D-05 MaxDP=9.87D-04 DE=-9.59D-07 OVMax= 3.34D-04

 Cycle  11  Pass 1  IDiag  1:
 RMSU=  4.84D-06    CP:  4.27D-01  2.86D+00  1.81D+00  9.41D-01  8.79D-01
                    CP:  8.81D-01  1.58D+00  1.23D+00  1.37D+00  1.27D+00
 E= -3010.55686922141     Delta-E=       -0.000000208522 Rises=F Damp=F
 DIIS: error= 6.51D-06 at cycle  11 NSaved=  11.
 NSaved=11 IEnMin=11 EnMin= -3010.55686922141     IErMin=11 ErrMin= 6.51D-06
 ErrMax= 6.51D-06  0.00D+00 EMaxC= 1.00D-01 BMatC= 8.54D-09 BMatP= 9.72D-08
 IDIUse=1 WtCom= 1.00D+00 WtEn= 0.00D+00
 Coeff-Com: -0.492D-03 0.659D-03-0.806D-05 0.118D-02 0.410D-02 0.945D-02
 Coeff-Com: -0.224D-02-0.418D-01-0.129D+00-0.118D-01 0.117D+01
 Coeff:     -0.492D-03 0.659D-03-0.806D-05 0.118D-02 0.410D-02 0.945D-02
 Coeff:     -0.224D-02-0.418D-01-0.129D+00-0.118D-01 0.117D+01
 Gap=     0.249 Goal=   None    Shift=    0.000
 RMSDP=9.91D-06 MaxDP=6.25D-04 DE=-2.09D-07 OVMax= 2.57D-04

 Cycle  12  Pass 1  IDiag  1:
 RMSU=  1.75D-06    CP:  4.27D-01  2.86D+00  1.81D+00  9.41D-01  8.78D-01
                    CP:  8.90D-01  1.57D+00  1.25D+00  1.49D+00  1.65D+00
                    CP:  1.39D+00
 E= -3010.55686928083     Delta-E=       -0.000000059425 Rises=F Damp=F
 DIIS: error= 2.39D-06 at cycle  12 NSaved=  12.
 NSaved=12 IEnMin=12 EnMin= -3010.55686928083     IErMin=12 ErrMin= 2.39D-06
 ErrMax= 2.39D-06  0.00D+00 EMaxC= 1.00D-01 BMatC= 3.44D-09 BMatP= 8.54D-09
 IDIUse=1 WtCom= 1.00D+00 WtEn= 0.00D+00
 Coeff-Com: -0.348D-03 0.462D-03-0.625D-04 0.637D-03 0.142D-02 0.549D-02
 Coeff-Com:  0.690D-02-0.177D-01-0.107D+00-0.165D+00 0.564D+00 0.712D+00
 Coeff:     -0.348D-03 0.462D-03-0.625D-04 0.637D-03 0.142D-02 0.549D-02
 Coeff:      0.690D-02-0.177D-01-0.107D+00-0.165D+00 0.564D+00 0.712D+00
 Gap=     0.249 Goal=   None    Shift=    0.000
 RMSDP=4.15D-06 MaxDP=2.18D-04 DE=-5.94D-08 OVMax= 1.15D-04

 Cycle  13  Pass 1  IDiag  1:
 RMSU=  8.66D-07    CP:  4.27D-01  2.86D+00  1.81D+00  9.41D-01  8.77D-01
                    CP:  8.94D-01  1.57D+00  1.25D+00  1.53D+00  1.79D+00
                    CP:  1.64D+00  1.21D+00
 E= -3010.55686929337     Delta-E=       -0.000000012536 Rises=F Damp=F
 DIIS: error= 9.12D-07 at cycle  13 NSaved=  13.
 NSaved=13 IEnMin=13 EnMin= -3010.55686929337     IErMin=13 ErrMin= 9.12D-07
 ErrMax= 9.12D-07  0.00D+00 EMaxC= 1.00D-01 BMatC= 4.35D-10 BMatP= 3.44D-09
 IDIUse=1 WtCom= 1.00D+00 WtEn= 0.00D+00
 Coeff-Com:  0.141D-04-0.184D-04-0.154D-04-0.199D-03-0.110D-02-0.225D-02
 Coeff-Com:  0.500D-03 0.103D-01 0.320D-01-0.111D-01-0.215D+00 0.101D-01
 Coeff-Com:  0.118D+01
 Coeff:      0.141D-04-0.184D-04-0.154D-04-0.199D-03-0.110D-02-0.225D-02
 Coeff:      0.500D-03 0.103D-01 0.320D-01-0.111D-01-0.215D+00 0.101D-01
 Coeff:      0.118D+01
 Gap=     0.249 Goal=   None    Shift=    0.000
 RMSDP=1.09D-06 MaxDP=3.54D-05 DE=-1.25D-08 OVMax= 6.56D-05

 Cycle  14  Pass 1  IDiag  1:
 RMSU=  4.68D-07    CP:  4.27D-01  2.86D+00  1.81D+00  9.41D-01  8.77D-01
                    CP:  8.94D-01  1.57D+00  1.25D+00  1.53D+00  1.82D+00
                    CP:  1.71D+00  1.46D+00  1.37D+00
 E= -3010.55686929643     Delta-E=       -0.000000003056 Rises=F Damp=F
 DIIS: error= 6.39D-07 at cycle  14 NSaved=  14.
 NSaved=14 IEnMin=14 EnMin= -3010.55686929643     IErMin=14 ErrMin= 6.39D-07
 ErrMax= 6.39D-07  0.00D+00 EMaxC= 1.00D-01 BMatC= 8.38D-11 BMatP= 4.35D-10
 IDIUse=1 WtCom= 1.00D+00 WtEn= 0.00D+00
 Coeff-Com:  0.344D-04-0.454D-04-0.632D-06-0.119D-03-0.406D-03-0.122D-02
 Coeff-Com: -0.970D-03 0.512D-02 0.239D-01 0.159D-01-0.144D+00-0.114D+00
 Coeff-Com:  0.352D+00 0.864D+00
 Coeff:      0.344D-04-0.454D-04-0.632D-06-0.119D-03-0.406D-03-0.122D-02
 Coeff:     -0.970D-03 0.512D-02 0.239D-01 0.159D-01-0.144D+00-0.114D+00
 Coeff:      0.352D+00 0.864D+00
 Gap=     0.249 Goal=   None    Shift=    0.000
 RMSDP=6.24D-07 MaxDP=3.49D-05 DE=-3.06D-09 OVMax= 2.67D-05

 Cycle  15  Pass 1  IDiag  1:
 RMSU=  1.69D-07    CP:  4.27D-01  2.86D+00  1.81D+00  9.41D-01  8.77D-01
                    CP:  8.95D-01  1.57D+00  1.26D+00  1.54D+00  1.84D+00
                    CP:  1.75D+00  1.53D+00  1.58D+00  1.27D+00
 E= -3010.55686929693     Delta-E=       -0.000000000507 Rises=F Damp=F
 DIIS: error= 2.15D-07 at cycle  15 NSaved=  15.
 NSaved=15 IEnMin=15 EnMin= -3010.55686929693     IErMin=15 ErrMin= 2.15D-07
 ErrMax= 2.15D-07  0.00D+00 EMaxC= 1.00D-01 BMatC= 2.56D-11 BMatP= 8.38D-11
 IDIUse=1 WtCom= 1.00D+00 WtEn= 0.00D+00
 Coeff-Com:  0.125D-04-0.167D-04 0.340D-05 0.110D-04 0.184D-03 0.264D-03
 Coeff-Com: -0.490D-03-0.120D-02-0.409D-03 0.763D-02 0.907D-02-0.446D-01
 Coeff-Com: -0.193D+00 0.358D+00 0.865D+00
 Coeff:      0.125D-04-0.167D-04 0.340D-05 0.110D-04 0.184D-03 0.264D-03
 Coeff:     -0.490D-03-0.120D-02-0.409D-03 0.763D-02 0.907D-02-0.446D-01
 Coeff:     -0.193D+00 0.358D+00 0.865D+00
 Gap=     0.249 Goal=   None    Shift=    0.000
 RMSDP=2.88D-07 MaxDP=1.19D-05 DE=-5.07D-10 OVMax= 1.18D-05

 Cycle  16  Pass 1  IDiag  1:
 RMSU=  7.75D-08    CP:  4.27D-01  2.86D+00  1.81D+00  9.41D-01  8.77D-01
                    CP:  8.95D-01  1.57D+00  1.25D+00  1.54D+00  1.84D+00
                    CP:  1.76D+00  1.54D+00  1.73D+00  1.51D+00  1.21D+00
 E= -3010.55686929705     Delta-E=       -0.000000000121 Rises=F Damp=F
 DIIS: error= 1.05D-07 at cycle  16 NSaved=  16.
 NSaved=16 IEnMin=16 EnMin= -3010.55686929705     IErMin=16 ErrMin= 1.05D-07
 ErrMax= 1.05D-07  0.00D+00 EMaxC= 1.00D-01 BMatC= 2.17D-12 BMatP= 2.56D-11
 IDIUse=1 WtCom= 1.00D+00 WtEn= 0.00D+00
 Coeff-Com: -0.256D-05 0.339D-05 0.105D-05 0.172D-04 0.817D-04 0.213D-03
 Coeff-Com: -0.146D-04-0.983D-03-0.320D-02 0.132D-03 0.219D-01 0.673D-02
 Coeff-Com: -0.956D-01-0.427D-01 0.153D+00 0.960D+00
 Coeff:     -0.256D-05 0.339D-05 0.105D-05 0.172D-04 0.817D-04 0.213D-03
 Coeff:     -0.146D-04-0.983D-03-0.320D-02 0.132D-03 0.219D-01 0.673D-02
 Coeff:     -0.956D-01-0.427D-01 0.153D+00 0.960D+00
 Gap=     0.249 Goal=   None    Shift=    0.000
 RMSDP=9.23D-08 MaxDP=3.38D-06 DE=-1.21D-10 OVMax= 3.83D-06

 Cycle  17  Pass 1  IDiag  1:
 RMSU=  1.90D-08    CP:  4.27D-01  2.86D+00  1.81D+00  9.41D-01  8.77D-01
                    CP:  8.95D-01  1.57D+00  1.25D+00  1.54D+00  1.84D+00
                    CP:  1.77D+00  1.54D+00  1.76D+00  1.59D+00  1.42D+00
                    CP:  1.30D+00
 E= -3010.55686929702     Delta-E=        0.000000000030 Rises=F Damp=F
 DIIS: error= 3.03D-08 at cycle  17 NSaved=  17.
 NSaved=17 IEnMin=16 EnMin= -3010.55686929705     IErMin=17 ErrMin= 3.03D-08
 ErrMax= 3.03D-08  0.00D+00 EMaxC= 1.00D-01 BMatC= 2.89D-13 BMatP= 2.17D-12
 IDIUse=1 WtCom= 1.00D+00 WtEn= 0.00D+00
 Coeff-Com: -0.537D-06 0.714D-06-0.566D-07-0.166D-05-0.222D-04-0.151D-04
 Coeff-Com:  0.979D-04 0.995D-04-0.264D-03-0.120D-02 0.751D-03 0.706D-02
 Coeff-Com:  0.156D-01-0.537D-01-0.108D+00 0.153D+00 0.986D+00
 Coeff:     -0.537D-06 0.714D-06-0.566D-07-0.166D-05-0.222D-04-0.151D-04
 Coeff:      0.979D-04 0.995D-04-0.264D-03-0.120D-02 0.751D-03 0.706D-02
 Coeff:      0.156D-01-0.537D-01-0.108D+00 0.153D+00 0.986D+00
 Gap=     0.249 Goal=   None    Shift=    0.000
 RMSDP=4.20D-08 MaxDP=2.17D-06 DE= 3.05D-11 OVMax= 1.44D-06

 Cycle  18  Pass 1  IDiag  1:
 RMSU=  9.20D-09    CP:  4.27D-01  2.86D+00  1.81D+00  9.41D-01  8.77D-01
                    CP:  8.95D-01  1.57D+00  1.25D+00  1.54D+00  1.84D+00
                    CP:  1.77D+00  1.54D+00  1.79D+00  1.60D+00  1.46D+00
                    CP:  1.52D+00  1.41D+00
 E= -3010.55686929707     Delta-E=       -0.000000000051 Rises=F Damp=F
 DIIS: error= 1.12D-08 at cycle  18 NSaved=  18.
 NSaved=18 IEnMin=18 EnMin= -3010.55686929707     IErMin=18 ErrMin= 1.12D-08
 ErrMax= 1.12D-08  0.00D+00 EMaxC= 1.00D-01 BMatC= 6.37D-14 BMatP= 2.89D-13
 IDIUse=1 WtCom= 1.00D+00 WtEn= 0.00D+00
 Coeff-Com:  0.473D-06-0.632D-06-0.996D-07-0.292D-05-0.167D-04-0.320D-04
 Coeff-Com:  0.248D-04 0.155D-03 0.363D-03-0.384D-03-0.266D-02 0.137D-02
 Coeff-Com:  0.194D-01-0.102D-01-0.557D-01-0.114D+00 0.257D+00 0.905D+00
 Coeff:      0.473D-06-0.632D-06-0.996D-07-0.292D-05-0.167D-04-0.320D-04
 Coeff:      0.248D-04 0.155D-03 0.363D-03-0.384D-03-0.266D-02 0.137D-02
 Coeff:      0.194D-01-0.102D-01-0.557D-01-0.114D+00 0.257D+00 0.905D+00
 Gap=     0.249 Goal=   None    Shift=    0.000
 RMSDP=1.83D-08 MaxDP=1.05D-06 DE=-5.09D-11 OVMax= 6.04D-07

 Cycle  19  Pass 1  IDiag  1:
 RMSU=  2.99D-09    CP:  4.27D-01  2.86D+00  1.81D+00  9.41D-01  8.77D-01
                    CP:  8.95D-01  1.57D+00  1.25D+00  1.54D+00  1.84D+00
                    CP:  1.77D+00  1.54D+00  1.79D+00  1.60D+00  1.48D+00
                    CP:  1.60D+00  1.67D+00  1.38D+00
 E= -3010.55686929707     Delta-E=        0.000000000000 Rises=F Damp=F
 DIIS: error= 4.61D-09 at cycle  19 NSaved=  19.
 NSaved=19 IEnMin=18 EnMin= -3010.55686929707     IErMin=19 ErrMin= 4.61D-09
 ErrMax= 4.61D-09  0.00D+00 EMaxC= 1.00D-01 BMatC= 7.96D-15 BMatP= 6.37D-14
 IDIUse=1 WtCom= 1.00D+00 WtEn= 0.00D+00
 Coeff-Com:  0.207D-06-0.275D-06 0.914D-09-0.175D-06 0.157D-05-0.132D-05
 Coeff-Com: -0.184D-04-0.181D-05 0.111D-03 0.204D-03-0.461D-03-0.128D-02
 Coeff-Com: -0.744D-03 0.596D-02 0.131D-01-0.207D-01-0.128D+00 0.562D-01
 Coeff-Com:  0.108D+01
 Coeff:      0.207D-06-0.275D-06 0.914D-09-0.175D-06 0.157D-05-0.132D-05
 Coeff:     -0.184D-04-0.181D-05 0.111D-03 0.204D-03-0.461D-03-0.128D-02
 Coeff:     -0.744D-03 0.596D-02 0.131D-01-0.207D-01-0.128D+00 0.562D-01
 Coeff:      0.108D+01
 Gap=     0.249 Goal=   None    Shift=    0.000
 RMSDP=7.99D-09 MaxDP=5.41D-07 DE= 0.00D+00 OVMax= 3.18D-07

 SCF Done:  E(RwB97XD) =  -3010.55686930     A.U. after   19 cycles
            NFock= 19  Conv=0.80D-08     -V/T= 2.0016
 KE= 3.005837196511D+03 PE=-8.634970473782D+03 EE= 1.876257595011D+03
 Leave Link  502 at Wed May  1 14:47:24 2024, MaxMem=  1207959552 cpu:            1108.1 elap:            1108.3
 (Enter /software/gaussian/g16-c01/sse4/g16/l601.exe)
 Copying SCF densities to generalized density rwf, IOpCl= 0 IROHF=0.

 **********************************************************************

            Population analysis using the SCF Density.

 **********************************************************************

 Alpha  occ. eigenvalues -- -483.32380 -62.87377 -56.67093 -56.66493 -56.66484
 Alpha  occ. eigenvalues --  -19.54160 -19.54076 -14.93397 -10.61095 -10.60264
 Alpha  occ. eigenvalues --  -10.60032 -10.59578 -10.58360 -10.54488  -9.03162
 Alpha  occ. eigenvalues --   -6.85899  -6.83939  -6.83906  -2.95789  -2.95275
 Alpha  occ. eigenvalues --   -2.95246  -2.93679  -2.93679  -1.57880  -1.40950
 Alpha  occ. eigenvalues --   -1.25461  -1.17163  -1.14037  -1.06544  -1.04997
 Alpha  occ. eigenvalues --   -0.97722  -0.94319  -0.90991  -0.87778  -0.86252
 Alpha  occ. eigenvalues --   -0.84637  -0.81642  -0.80162  -0.78183  -0.74535
 Alpha  occ. eigenvalues --   -0.71043  -0.69617  -0.66140  -0.65366  -0.65135
 Alpha  occ. eigenvalues --   -0.64149  -0.61956  -0.57071  -0.56440
 Alpha virt. eigenvalues --   -0.31567  -0.27992  -0.17806  -0.16172  -0.13682
 Alpha virt. eigenvalues --   -0.10762  -0.10052  -0.08644  -0.08396  -0.06272
 Alpha virt. eigenvalues --   -0.04989  -0.04636  -0.03997  -0.02733  -0.02402
 Alpha virt. eigenvalues --   -0.01786  -0.01472  -0.00681  -0.00071   0.00591
 Alpha virt. eigenvalues --    0.01670   0.01934   0.02561   0.02868   0.03392
 Alpha virt. eigenvalues --    0.04018   0.04201   0.05120   0.05778   0.06484
 Alpha virt. eigenvalues --    0.06902   0.07711   0.08250   0.08858   0.09131
 Alpha virt. eigenvalues --    0.09892   0.10179   0.10871   0.11463   0.12978
 Alpha virt. eigenvalues --    0.13085   0.13467   0.14536   0.14828   0.15575
 Alpha virt. eigenvalues --    0.16769   0.17552   0.18454   0.18678   0.20008
 Alpha virt. eigenvalues --    0.20479   0.21327   0.23132   0.23222   0.26708
 Alpha virt. eigenvalues --    0.28130   0.29119   0.31631   0.31847   0.33375
 Alpha virt. eigenvalues --    0.34081   0.35347   0.36783   0.37275   0.39826
 Alpha virt. eigenvalues --    0.40275   0.41095   0.41280   0.42594   0.44276
 Alpha virt. eigenvalues --    0.44810   0.47239   0.48592   0.49093   0.50942
 Alpha virt. eigenvalues --    0.51331   0.52588   0.54258   0.55194   0.56201
 Alpha virt. eigenvalues --    0.59640   0.61227   0.62857   0.64715   0.65732
 Alpha virt. eigenvalues --    0.66567   0.68591   0.71066   0.71793   0.72337
 Alpha virt. eigenvalues --    0.73054   0.74062   0.76007   0.78619   0.81324
 Alpha virt. eigenvalues --    0.83573   0.84115   0.87991   0.89238   0.90778
 Alpha virt. eigenvalues --    0.92257   0.96741   0.99788   1.01170   1.02705
 Alpha virt. eigenvalues --    1.03297   1.04217   1.05503   1.05946   1.08409
 Alpha virt. eigenvalues --    1.13808   1.19449   1.22257   1.30519   1.33683
 Alpha virt. eigenvalues --    1.34389   1.35352   1.42820   1.50736   1.51112
 Alpha virt. eigenvalues --    1.52494   1.53682   1.57869   1.58933   1.63898
 Alpha virt. eigenvalues --    1.65190   1.67316   1.67951   1.71339   1.76217
 Alpha virt. eigenvalues --    1.79326   1.82522   1.83733   1.91074   1.93612
 Alpha virt. eigenvalues --    1.95268   1.97368   2.00001   2.04811   2.05676
 Alpha virt. eigenvalues --    2.07256   2.12227   2.16455   2.18733   2.27244
 Alpha virt. eigenvalues --    2.32446   2.36120   2.39483   2.41197   2.49584
 Alpha virt. eigenvalues --    2.54422   2.59730   2.61761   2.63714   2.65904
 Alpha virt. eigenvalues --    2.66516   2.69001   2.72986   2.73536   2.79435
 Alpha virt. eigenvalues --    2.90765   2.93151   2.93802   3.03142   3.05119
 Alpha virt. eigenvalues --    3.08855   3.11860   3.16143   3.17384   3.18797
 Alpha virt. eigenvalues --    3.21432   3.33496   3.45113   3.46415   3.47983
 Alpha virt. eigenvalues --    3.52521   3.62282   3.65943   3.79512   3.84410
 Alpha virt. eigenvalues --    4.07963   4.08180   4.15488   4.20801   4.35756
 Alpha virt. eigenvalues --    4.41551   4.52266   4.55376   4.84478   4.87064
 Alpha virt. eigenvalues --    4.95748   4.99913   5.54573   6.07142   6.63648
 Alpha virt. eigenvalues --    7.46667   7.48219   7.57915  23.18845  23.58676
 Alpha virt. eigenvalues --   23.68003  23.76923  23.93451  23.98592  35.24582
 Alpha virt. eigenvalues --   47.90082  49.77226  49.86035 289.79379 289.81042
 Alpha virt. eigenvalues --  289.934661020.90457
          Condensed to atoms (all electrons):
               1          2          3          4          5          6
     1  C    8.445557  -2.568889   0.840145  -1.431392  -0.958962   0.295281
     2  C   -2.568889  13.872417  -2.853845  -2.617676   1.455954  -0.012517
     3  C    0.840145  -2.853845  12.998490  -2.497549  -1.504695   0.014011
     4  C   -1.431392  -2.617676  -2.497549  13.266270   1.248431   0.010695
     5  C   -0.958962   1.455954  -1.504695   1.248431   7.579692   0.033715
     6  H    0.295281  -0.012517   0.014011   0.010695   0.033715   0.305370
     7  H    0.055822   0.254849   0.084981  -0.035535  -0.022443  -0.001836
     8  H   -0.000015  -0.015523   0.054449   0.278527   0.001409   0.000002
     9  H    0.017294   0.000659  -0.002173  -0.003969   0.322668  -0.001550
    10  N   -0.085826   0.320169  -0.941041   0.236923   0.061559  -0.000399
    11  O    0.026423   0.000446  -0.249283  -0.057739  -0.051431  -0.000013
    12  O    0.226535  -0.050993  -0.270620  -0.013625  -0.044491  -0.000056
    13  C    1.671766  -2.327583   1.002358  -2.669465  -2.167642  -0.010385
    14  H    0.007323  -0.023137   0.014708  -0.041158  -0.091706  -0.000061
    15  Br   0.074626  -0.000444   0.058533   0.135495   0.076700  -0.000364
               7          8          9         10         11         12
     1  C    0.055822  -0.000015   0.017294  -0.085826   0.026423   0.226535
     2  C    0.254849  -0.015523   0.000659   0.320169   0.000446  -0.050993
     3  C    0.084981   0.054449  -0.002173  -0.941041  -0.249283  -0.270620
     4  C   -0.035535   0.278527  -0.003969   0.236923  -0.057739  -0.013625
     5  C   -0.022443   0.001409   0.322668   0.061559  -0.051431  -0.044491
     6  H   -0.001836   0.000002  -0.001550  -0.000399  -0.000013  -0.000056
     7  H    0.331864   0.000033   0.000022  -0.029189  -0.001646   0.014329
     8  H    0.000033   0.326750   0.000139  -0.023573   0.014793  -0.000967
     9  H    0.000022   0.000139   0.265585   0.000467   0.000001   0.000005
    10  N   -0.029189  -0.023573   0.000467   7.135713   0.282701   0.253287
    11  O   -0.001646   0.014793   0.000001   0.282701   7.877221  -0.026081
    12  O    0.014329  -0.000967   0.000005   0.253287  -0.026081   7.908472
    13  C    0.013144   0.022066  -0.017060  -0.104991   0.226386   0.048528
    14  H   -0.000011  -0.005478  -0.004028  -0.001745  -0.000105  -0.000072
    15  Br  -0.000302  -0.002551   0.001155  -0.000045   0.001350   0.001910
              13         14         15
     1  C    1.671766   0.007323   0.074626
     2  C   -2.327583  -0.023137  -0.000444
     3  C    1.002358   0.014708   0.058533
     4  C   -2.669465  -0.041158   0.135495
     5  C   -2.167642  -0.091706   0.076700
     6  H   -0.010385  -0.000061  -0.000364
     7  H    0.013144  -0.000011  -0.000302
     8  H    0.022066  -0.005478  -0.002551
     9  H   -0.017060  -0.004028   0.001155
    10  N   -0.104991  -0.001745  -0.000045
    11  O    0.226386  -0.000105   0.001350
    12  O    0.048528  -0.000072   0.001910
    13  C   10.473286   0.430623  -0.153312
    14  H    0.430623   0.318778  -0.035473
    15  Br  -0.153312  -0.035473  34.573059
 Mulliken charges:
               1
     1  C   -0.615688
     2  C    0.566114
     3  C   -0.748468
     4  C    0.191767
     5  C    0.061240
     6  H    0.368105
     7  H    0.335917
     8  H    0.349937
     9  H    0.420785
    10  N   -0.104009
    11  O   -0.043024
    12  O   -0.046162
    13  C   -0.437720
    14  H    0.431542
    15  Br   0.269663
 Sum of Mulliken charges =   1.00000
 Mulliken charges with hydrogens summed into heavy atoms:
               1
     1  C   -0.247583
     2  C    0.902031
     3  C   -0.748468
     4  C    0.541704
     5  C    0.482025
    10  N   -0.104009
    11  O   -0.043024
    12  O   -0.046162
    13  C   -0.006178
    15  Br   0.269663
 Electronic spatial extent (au):  <R**2>=           2806.1974
 Charge=              1.0000 electrons
 Dipole moment (field-independent basis, Debye):
    X=             -5.8472    Y=             -1.1712    Z=             -0.4411  Tot=              5.9797
 Quadrupole moment (field-independent basis, Debye-Ang):
   XX=            -83.4483   YY=            -51.4899   ZZ=            -61.4401
   XY=              2.0445   XZ=              2.3954   YZ=              2.8435
 Traceless Quadrupole moment (field-independent basis, Debye-Ang):
   XX=            -17.9889   YY=             13.9695   ZZ=              4.0194
   XY=              2.0445   XZ=              2.3954   YZ=              2.8435
 Octapole moment (field-independent basis, Debye-Ang**2):
  XXX=           -369.7662  YYY=             83.5117  ZZZ=             74.1818  XYY=            -87.9644
  XXY=             27.7749  XXZ=             31.9107  XZZ=            -83.7662  YZZ=             13.2693
  YYZ=             22.7313  XYZ=             -5.7343
 Hexadecapole moment (field-independent basis, Debye-Ang**3):
 XXXX=          -2585.3657 YYYY=           -667.9497 ZZZZ=           -338.4193 XXXY=            -68.0062
 XXXZ=            -13.1515 YYYX=            -54.3969 YYYZ=           -147.6424 ZZZX=            -11.5822
 ZZZY=           -128.2503 XXYY=           -479.5526 XXZZ=           -375.2958 YYZZ=           -156.6916
 XXYZ=            -51.5769 YYXZ=              3.6124 ZZXY=             -3.7167
 N-N= 7.423188129637D+02 E-N=-8.634970472277D+03  KE= 3.005837196511D+03
 No NMR shielding tensors so no spin-rotation constants.
 Leave Link  601 at Wed May  1 14:47:31 2024, MaxMem=  1207959552 cpu:               7.4 elap:               7.4
 (Enter /software/gaussian/g16-c01/sse4/g16/l9999.exe)
 Unable to Open any file for archive entry.
 1\1\GINC-BHX0027\SP\RwB97XD\6-311+G(d)\C6H5Br1N1O2(1+)\BWEIGHT\01-May-
 2024\0\\#P wB97XD/6-311+G* NoSymm #P Field=X+165\\TitleMe\\1,1\C,0,0.0
 295,1.3397,0.0682\C,0,1.4348,1.2867,0.0064\C,0,2.1118,0.0511,-0.0054\C
 ,0,1.4451,-1.1372,0.0312\C,0,-0.6879,0.1682,0.11\H,0,-0.4713,2.2984,0.
 0781\H,0,2.0273,2.1965,-0.0322\H,0,1.9897,-2.0764,0.0232\H,0,-1.7716,0
 .1804,0.1582\N,0,3.5864,0.051,-0.0675\O,0,4.1471,-1.0597,-0.0881\O,0,4
 .145,1.1639,-0.0901\C,0,-0.0236,-1.1458,0.0835\H,0,-0.4367,-1.8725,0.7
 889\Br,0,-0.5359,-1.8697,-1.7408\\Version=ES64L-G16RevC.01\HF=-3010.55
 68693\RMSD=7.994e-09\Dipole=-4.2070106,0.6873027,0.9726191\Quadrupole=
 -13.3743037,10.386011,2.9882927,1.5200111,1.7808868,2.1140935\PG=C01 [
 X(C6H5Br1N1O2)]\\@
 The archive entry for this job was punched.


 ALMOST ALL THE CHEMICAL PROCESSES WHICH OCCUR IN NATURE,
 WHETHER IN ANIMAL OR VEGETABLE ORGANISMS,
 OR IN THE NON-LIVING SURFACE OF THE EARTH ... 
 TAKE PLACE BETWEEN SUBSTANCES IN SOLUTION

                                    -- W. OSTWALD, 1890
 Job cpu time:       0 days  0 hours 19 minutes 39.3 seconds.
 Elapsed time:       0 days  0 hours 19 minutes 39.4 seconds.
 File lengths (MBytes):  RWF=     40 Int=      0 D2E=      0 Chk=     32 Scr=      1
 Normal termination of Gaussian 16 at Wed May  1 14:47:32 2024.
