 Entering Gaussian System, Link 0=g16
 Initial command:
 /software/gaussian/g16-c01/sse4/g16/l1.exe "/local_scratch/24665377/Gau-25887.inp" -scrdir="/local_scratch/24665377/"
 Entering Link 1 = /software/gaussian/g16-c01/sse4/g16/l1.exe PID=     25891.
  
 Copyright (c) 1988-2019, Gaussian, Inc.  All Rights Reserved.
  
 This is part of the Gaussian(R) 16 program.  It is based on
 the Gaussian(R) 09 system (copyright 2009, Gaussian, Inc.),
 the Gaussian(R) 03 system (copyright 2003, Gaussian, Inc.),
 the Gaussian(R) 98 system (copyright 1998, Gaussian, Inc.),
 the Gaussian(R) 94 system (copyright 1995, Gaussian, Inc.),
 the Gaussian 92(TM) system (copyright 1992, Gaussian, Inc.),
 the Gaussian 90(TM) system (copyright 1990, Gaussian, Inc.),
 the Gaussian 88(TM) system (copyright 1988, Gaussian, Inc.),
 the Gaussian 86(TM) system (copyright 1986, Carnegie Mellon
 University), and the Gaussian 82(TM) system (copyright 1983,
 Carnegie Mellon University). Gaussian is a federally registered
 trademark of Gaussian, Inc.
  
 This software contains proprietary and confidential information,
 including trade secrets, belonging to Gaussian, Inc.
  
 This software is provided under written license and may be
 used, copied, transmitted, or stored only in accord with that
 written license.
  
 The following legend is applicable only to US Government
 contracts under FAR:
  
                    RESTRICTED RIGHTS LEGEND
  
 Use, reproduction and disclosure by the US Government is
 subject to restrictions as set forth in subparagraphs (a)
 and (c) of the Commercial Computer Software - Restricted
 Rights clause in FAR 52.227-19.
  
 Gaussian, Inc.
 340 Quinnipiac St., Bldg. 40, Wallingford CT 06492
  
  
 ---------------------------------------------------------------
 Warning -- This program may not be used in any manner that
 competes with the business of Gaussian, Inc. or will provide
 assistance to any competitor of Gaussian, Inc.  The licensee
 of this program is prohibited from giving any competitor of
 Gaussian, Inc. access to this program.  By using this program,
 the user acknowledges that Gaussian, Inc. is engaged in the
 business of creating and licensing software in the field of
 computational chemistry and represents and warrants to the
 licensee that it is not a competitor of Gaussian, Inc. and that
 it will not use this program in any manner prohibited above.
 ---------------------------------------------------------------
  

 Cite this work as:
 Gaussian 16, Revision C.01,
 M. J. Frisch, G. W. Trucks, H. B. Schlegel, G. E. Scuseria, 
 M. A. Robb, J. R. Cheeseman, G. Scalmani, V. Barone, 
 G. A. Petersson, H. Nakatsuji, X. Li, M. Caricato, A. V. Marenich, 
 J. Bloino, B. G. Janesko, R. Gomperts, B. Mennucci, H. P. Hratchian, 
 J. V. Ortiz, A. F. Izmaylov, J. L. Sonnenberg, D. Williams-Young, 
 F. Ding, F. Lipparini, F. Egidi, J. Goings, B. Peng, A. Petrone, 
 T. Henderson, D. Ranasinghe, V. G. Zakrzewski, J. Gao, N. Rega, 
 G. Zheng, W. Liang, M. Hada, M. Ehara, K. Toyota, R. Fukuda, 
 J. Hasegawa, M. Ishida, T. Nakajima, Y. Honda, O. Kitao, H. Nakai, 
 T. Vreven, K. Throssell, J. A. Montgomery, Jr., J. E. Peralta, 
 F. Ogliaro, M. J. Bearpark, J. J. Heyd, E. N. Brothers, K. N. Kudin, 
 V. N. Staroverov, T. A. Keith, R. Kobayashi, J. Normand, 
 K. Raghavachari, A. P. Rendell, J. C. Burant, S. S. Iyengar, 
 J. Tomasi, M. Cossi, J. M. Millam, M. Klene, C. Adamo, R. Cammi, 
 J. W. Ochterski, R. L. Martin, K. Morokuma, O. Farkas, 
 J. B. Foresman, and D. J. Fox, Gaussian, Inc., Wallingford CT, 2019.
 
 ******************************************
 Gaussian 16:  ES64L-G16RevC.01  3-Jul-2019
                 2-May-2024 
 ******************************************
 %chk=geometry.chk
 %mem=1GB
 %nprocshared=12
 Will use up to   12 processors via shared memory.
 ---------------------------------------
 #P wB97XD/6-311+G* NoSymm #P Field=Z-58
 ---------------------------------------
 1/38=1,172=1/1;
 2/12=2,15=1,17=6,18=5,40=1/2;
 3/5=4,6=6,7=11,11=2,14=3,15=-58,25=1,30=1,74=-58/1,2,3;
 4//1;
 5/5=2,38=5/2;
 6/7=2,8=2,9=2,10=2,28=1/1;
 99/5=1,9=1/99;
 Leave Link    1 at Thu May  2 13:58:19 2024, MaxMem=   134217728 cpu:               1.8 elap:               1.8
 (Enter /software/gaussian/g16-c01/sse4/g16/l101.exe)
 -------
 TitleMe
 -------
 Symbolic Z-matrix:
 Charge =  1 Multiplicity = 1
 C                     0.5193    1.233    -0.0319 
 C                     1.9445    1.2692   -0.0367 
 C                     2.6204    0.0928   -0.025 
 C                    -0.196     0.0301    0.001 
 H                    -0.0207    2.1742   -0.0434 
 H                     2.4828    2.2089   -0.0361 
 H                    -1.2777    0.0399    0.0117 
 N                     4.0921    0.0959    0.0366 
 O                     4.6393   -1.0217    0.1446 
 O                     4.6649    1.1984   -0.0233 
 C                     0.4943   -1.1671    0.021 
 H                    -0.0325   -2.1149    0.0545 
 C                     1.9629   -1.2165   -0.0211 
 H                     2.4436   -1.9631    0.6151 
 Br                    2.173    -1.9491   -1.9062 
 
 ITRead=  0  0  0  0  0  0  0  0  0  0  0  0  0  0  0
 MicOpt= -1 -1 -1 -1 -1 -1 -1 -1 -1 -1 -1 -1 -1 -1 -1
 NAtoms=     15 NQM=       15 NQMF=       0 NMMI=      0 NMMIF=      0
                NMic=       0 NMicF=      0.
                    Isotopes and Nuclear Properties:
 (Nuclear quadrupole moments (NQMom) in fm**2, nuclear magnetic moments (NMagM)
  in nuclear magnetons)

  Atom         1           2           3           4           5           6           7           8           9          10
 IAtWgt=          12          12          12          12           1           1           1          14          16          16
 AtmWgt=  12.0000000  12.0000000  12.0000000  12.0000000   1.0078250   1.0078250   1.0078250  14.0030740  15.9949146  15.9949146
 NucSpn=           0           0           0           0           1           1           1           2           0           0
 AtZEff=  -0.0000000  -0.0000000  -0.0000000  -0.0000000  -0.0000000  -0.0000000  -0.0000000  -0.0000000  -0.0000000  -0.0000000
 NQMom=    0.0000000   0.0000000   0.0000000   0.0000000   0.0000000   0.0000000   0.0000000   2.0440000   0.0000000   0.0000000
 NMagM=    0.0000000   0.0000000   0.0000000   0.0000000   2.7928460   2.7928460   2.7928460   0.4037610   0.0000000   0.0000000
 AtZNuc=   6.0000000   6.0000000   6.0000000   6.0000000   1.0000000   1.0000000   1.0000000   7.0000000   8.0000000   8.0000000

  Atom        11          12          13          14          15
 IAtWgt=          12           1          12           1          79
 AtmWgt=  12.0000000   1.0078250  12.0000000   1.0078250  78.9183361
 NucSpn=           0           1           0           1           3
 AtZEff=  -0.0000000  -0.0000000  -0.0000000  -0.0000000  -0.0000000
 NQMom=    0.0000000   0.0000000   0.0000000   0.0000000  31.3000000
 NMagM=    0.0000000   2.7928460   0.0000000   2.7928460   2.1063990
 AtZNuc=   6.0000000   1.0000000   6.0000000   1.0000000  35.0000000
 Leave Link  101 at Thu May  2 13:58:21 2024, MaxMem=   134217728 cpu:               1.8 elap:               1.8
 (Enter /software/gaussian/g16-c01/sse4/g16/l202.exe)
                          Input orientation:                          
 ---------------------------------------------------------------------
 Center     Atomic      Atomic             Coordinates (Angstroms)
 Number     Number       Type             X           Y           Z
 ---------------------------------------------------------------------
      1          6           0        0.519300    1.233000   -0.031900
      2          6           0        1.944500    1.269200   -0.036700
      3          6           0        2.620400    0.092800   -0.025000
      4          6           0       -0.196000    0.030100    0.001000
      5          1           0       -0.020700    2.174200   -0.043400
      6          1           0        2.482800    2.208900   -0.036100
      7          1           0       -1.277700    0.039900    0.011700
      8          7           0        4.092100    0.095900    0.036600
      9          8           0        4.639300   -1.021700    0.144600
     10          8           0        4.664900    1.198400   -0.023300
     11          6           0        0.494300   -1.167100    0.021000
     12          1           0       -0.032500   -2.114900    0.054500
     13          6           0        1.962900   -1.216500   -0.021100
     14          1           0        2.443600   -1.963100    0.615100
     15         35           0        2.173000   -1.949100   -1.906200
 ---------------------------------------------------------------------
                    Distance matrix (angstroms):
                    1          2          3          4          5
     1  C    0.000000
     2  C    1.425668   0.000000
     3  C    2.390549   1.356796   0.000000
     4  C    1.399895   2.473566   2.817218   0.000000
     5  H    1.085168   2.163581   3.362733   2.151712   0.000000
     6  H    2.192654   1.082960   2.120598   3.453189   2.503751
     7  H    2.157452   3.449071   3.898632   1.081797   2.477564
     8  N    3.750012   2.448304   1.472992   4.288753   4.608780
     9  O    4.699917   3.541615   2.312322   4.950458   5.653735
    10  O    4.145753   2.721354   2.324292   4.999386   4.786171
    11  C    2.400813   2.835836   2.471794   1.382101   3.381369
    12  H    3.394169   3.920329   3.452266   2.151887   4.290233
    13  C    2.843264   2.485817   1.465124   2.493060   3.928360
    14  H    3.786370   3.334922   2.160489   3.364142   4.860416
    15  Br   4.046416   3.728900   2.812194   3.628609   5.028314
                    6          7          8          9         10
     6  H    0.000000
     7  H    4.341452   0.000000
     8  N    2.657047   5.370150   0.000000
     9  O    3.888434   6.012948   1.249048   0.000000
    10  O    2.404752   6.054572   1.243863   2.226587   0.000000
    11  C    3.918516   2.144043   3.813080   4.149391   4.794941
    12  H    5.003018   2.489080   4.679774   4.798846   5.748876
    13  C    3.464662   3.475788   2.501842   2.688591   3.623886
    14  H    4.222698   4.268978   2.700314   2.434893   3.916224
    15  Br   4.569706   4.420610   3.411663   3.338935   4.434144
                   11         12         13         14         15
    11  C    0.000000
    12  H    1.084880   0.000000
    13  C    1.470034   2.189625   0.000000
    14  H    2.187771   2.543302   1.092353   0.000000
    15  Br   2.672762   2.955683   2.033334   2.535818   0.000000
 Symmetry turned off by external request.
 Stoichiometry    C6H5BrNO2(1+)
 Framework group  C1[X(C6H5BrNO2)]
 Deg. of freedom    39
 Full point group                 C1      NOp   1
 Rotational constants (GHZ):           1.1632986           0.9594224           0.5957624
 Leave Link  202 at Thu May  2 13:58:23 2024, MaxMem=   134217728 cpu:               1.2 elap:               1.3
 (Enter /software/gaussian/g16-c01/sse4/g16/l301.exe)
 Standard basis: 6-311+G(d) (5D, 7F)
 Ernie: Thresh=  0.10000D-02 Tol=  0.10000D-05 Strict=F.
 The following finite field(s) will be applied:
 An electric field of              0.0000  0.0000 -0.0058
   261 basis functions,   443 primitive gaussians,   273 cartesian basis functions
    49 alpha electrons       49 beta electrons
       nuclear repulsion energy       772.8945969580 Hartrees.
 IExCor= 4639 DFT=T Ex+Corr=wB97XD ExCW=0 ScaHFX=  1.000000
 ScaDFX=  1.000000  1.000000  1.000000  1.000000 ScalE2=  1.000000  1.000000
 IRadAn=      5 IRanWt=     -1 IRanGd=            0 ICorTp=0 IEmpDi=121
 HFx  wShort=  0.000000 wLong=  0.200000 cFull=  0.222036 cShort=  0.000000 cLong=  0.777964
 DFx  wShort=  0.000000 wLong=  0.200000 cFull=  0.000000 cShort=  0.000000 cLong=  1.000000
 NAtoms=   15 NActive=   15 NUniq=   15 SFac= 1.00D+00 NAtFMM=   60 NAOKFM=F Big=F
 Integral buffers will be    131072 words long.
 Raffenetti 2 integral format.
 Two-electron integral symmetry is turned off.
 R6Disp:  Grimme-D2 Dispersion energy=       -0.0080346408 Hartrees.
 Nuclear repulsion after empirical dispersion term =      772.8865623173 Hartrees.
 Leave Link  301 at Thu May  2 13:58:25 2024, MaxMem=   134217728 cpu:               1.0 elap:               1.6
 (Enter /software/gaussian/g16-c01/sse4/g16/l302.exe)
 NPDir=0 NMtPBC=     1 NCelOv=     1 NCel=       1 NClECP=     1 NCelD=      1
         NCelK=      1 NCelE2=     1 NClLst=     1 CellRange=     0.0.
 One-electron integrals computed using PRISM.
 NBasis=   261 RedAO= T EigKep=  2.52D-06  NBF=   261
 NBsUse=   261 1.00D-06 EigRej= -1.00D+00 NBFU=   261
 Precomputing XC quadrature grid using
 IXCGrd= 4 IRadAn=           5 IRanWt=          -1 IRanGd=           0 AccXCQ= 0.00D+00.
 Generated NRdTot=       0 NPtTot=           0 NUsed=           0 NTot=          32
 NSgBfM=   273   273   273   273   273 MxSgAt=    15 MxSgA2=    15.
 Leave Link  302 at Thu May  2 13:58:47 2024, MaxMem=   134217728 cpu:              21.8 elap:              21.8
 (Enter /software/gaussian/g16-c01/sse4/g16/l303.exe)
 DipDrv:  MaxL=1.
 The nuclear repulsion energy is now       773.6038642573 hartrees.
 Leave Link  303 at Thu May  2 13:58:50 2024, MaxMem=   134217728 cpu:               3.3 elap:               3.2
 (Enter /software/gaussian/g16-c01/sse4/g16/l401.exe)
 ExpMin= 3.50D-02 ExpMax= 4.40D+05 ExpMxC= 1.51D+04 IAcc=3 IRadAn=         5 AccDes= 0.00D+00
 Harris functional with IExCor= 4639 and IRadAn=       5 diagonalized for initial guess.
 HarFok:  IExCor= 4639 AccDes= 0.00D+00 IRadAn=         5 IDoV= 1 UseB2=F ITyADJ=14
 ICtDFT=  3500011 ScaDFX=  1.000000  1.000000  1.000000  1.000000
 FoFCou: FMM=F IPFlag=           0 FMFlag=      100000 FMFlg1=           0
         NFxFlg=           0 DoJE=T BraDBF=F KetDBF=T FulRan=T
         wScrn=  0.000000 ICntrl=       500 IOpCl=  0 I1Cent=   200000004 NGrid=           0
         NMat0=    1 NMatS0=      1 NMatT0=    0 NMatD0=    1 NMtDS0=    0 NMtDT0=    0
 Symmetry not used in FoFCou.
 Harris En= -2970.60350710157    
 JPrj=0 DoOrth=F DoCkMO=F.
 Leave Link  401 at Thu May  2 13:59:22 2024, MaxMem=   134217728 cpu:              31.5 elap:              31.5
 (Enter /software/gaussian/g16-c01/sse4/g16/l502.exe)
 Two-electron integral symmetry not used.
 Closed shell SCF:
 Using DIIS extrapolation, IDIIS=  1040.
 NGot=   134217728 LenX=   134063053 LenY=   133988083
 Requested convergence on RMS density matrix=1.00D-08 within 128 cycles.
 Requested convergence on MAX density matrix=1.00D-06.
 Requested convergence on             energy=1.00D-06.
 No special actions if energy rises.
 Fock matrices will be formed incrementally for  20 cycles.

 Cycle   1  Pass 1  IDiag  1:
 FoFJK:  IHMeth= 1 ICntrl=       0 DoSepK=T KAlg= 0 I1Cent=           0 FoldK=F
 IRaf=         1 NMat=       1 IRICut=       1 DoRegI=T DoRafI=F ISym2E= 0 IDoP0=0 IntGTp=1.
 FoFCou: FMM=F IPFlag=           0 FMFlag=      100000 FMFlg1=           0
         NFxFlg=           0 DoJE=T BraDBF=F KetDBF=F FulRan=T
         wScrn=  0.000000 ICntrl=       500 IOpCl=  0 I1Cent=           0 NGrid=           0
         NMat0=    1 NMatS0=      1 NMatT0=    0 NMatD0=    1 NMtDS0=    0 NMtDT0=    0
 Symmetry not used in FoFCou.
 E= -3009.69685919133    
 DIIS: error= 2.90D-01 at cycle   1 NSaved=   1.
 NSaved= 1 IEnMin= 1 EnMin= -3009.69685919133     IErMin= 1 ErrMin= 2.90D-01
 ErrMax= 2.90D-01  0.00D+00 EMaxC= 1.00D-01 BMatC= 1.19D+01 BMatP= 1.19D+01
 IDIUse=3 WtCom= 0.00D+00 WtEn= 1.00D+00
 Coeff-Com:  0.100D+01
 Coeff-En:   0.100D+01
 Coeff:      0.100D+01
 Gap=     0.316 Goal=   None    Shift=    0.000
 GapD=    0.316 DampG=1.000 DampE=0.250 DampFc=0.2500 IDamp=-1.
 Damping current iteration by 2.50D-01
 RMSDP=4.42D-02 MaxDP=4.71D+00              OVMax= 2.61D-01

 Cycle   2  Pass 1  IDiag  1:
 RMSU=  5.98D-03    CP:  9.13D-01
 E= -3009.98808047168     Delta-E=       -0.291221280347 Rises=F Damp=T
 DIIS: error= 2.18D-01 at cycle   2 NSaved=   2.
 NSaved= 2 IEnMin= 2 EnMin= -3009.98808047168     IErMin= 2 ErrMin= 2.18D-01
 ErrMax= 2.18D-01  0.00D+00 EMaxC= 1.00D-01 BMatC= 5.46D+00 BMatP= 1.19D+01
 IDIUse=3 WtCom= 0.00D+00 WtEn= 1.00D+00
 Coeff-Com: -0.184D+01 0.284D+01
 Coeff-En:   0.000D+00 0.100D+01
 Coeff:      0.000D+00 0.100D+01
 Gap=     0.268 Goal=   None    Shift=    0.000
 RMSDP=3.56D-02 MaxDP=3.90D+00 DE=-2.91D-01 OVMax= 6.72D-02

 Cycle   3  Pass 1  IDiag  1:
 RMSU=  5.02D-03    CP:  6.04D-01  3.00D+00
 E= -3010.37734524347     Delta-E=       -0.389264771792 Rises=F Damp=F
 DIIS: error= 6.57D-02 at cycle   3 NSaved=   3.
 NSaved= 3 IEnMin= 3 EnMin= -3010.37734524347     IErMin= 3 ErrMin= 6.57D-02
 ErrMax= 6.57D-02  0.00D+00 EMaxC= 1.00D-01 BMatC= 7.29D-01 BMatP= 5.46D+00
 IDIUse=3 WtCom= 3.43D-01 WtEn= 6.57D-01
 Coeff-Com:  0.260D+01-0.341D+01 0.181D+01
 Coeff-En:   0.304D-01 0.000D+00 0.970D+00
 Coeff:      0.913D+00-0.117D+01 0.126D+01
 Gap=     0.263 Goal=   None    Shift=    0.000
 RMSDP=1.06D-02 MaxDP=6.16D-01 DE=-3.89D-01 OVMax= 7.38D-02

 Cycle   4  Pass 1  IDiag  1:
 RMSU=  6.64D-03    CP:  6.34D-01  2.15D+00  2.02D+00
 E= -3010.48420275347     Delta-E=       -0.106857509995 Rises=F Damp=F
 DIIS: error= 3.80D-02 at cycle   4 NSaved=   4.
 NSaved= 4 IEnMin= 4 EnMin= -3010.48420275347     IErMin= 4 ErrMin= 3.80D-02
 ErrMax= 3.80D-02  0.00D+00 EMaxC= 1.00D-01 BMatC= 2.26D-01 BMatP= 7.29D-01
 IDIUse=3 WtCom= 6.20D-01 WtEn= 3.80D-01
 Coeff-Com:  0.271D-01-0.221D-01 0.380D+00 0.615D+00
 Coeff-En:   0.000D+00 0.000D+00 0.195D+00 0.805D+00
 Coeff:      0.168D-01-0.137D-01 0.310D+00 0.687D+00
 Gap=     0.262 Goal=   None    Shift=    0.000
 RMSDP=4.93D-03 MaxDP=5.52D-01 DE=-1.07D-01 OVMax= 3.49D-02

 Cycle   5  Pass 1  IDiag  1:
 RMSU=  1.72D-03    CP:  5.98D-01  2.31D+00  1.87D+00  6.44D-01
 E= -3010.52746238929     Delta-E=       -0.043259635821 Rises=F Damp=F
 DIIS: error= 7.69D-03 at cycle   5 NSaved=   5.
 NSaved= 5 IEnMin= 5 EnMin= -3010.52746238929     IErMin= 5 ErrMin= 7.69D-03
 ErrMax= 7.69D-03  0.00D+00 EMaxC= 1.00D-01 BMatC= 1.01D-02 BMatP= 2.26D-01
 IDIUse=3 WtCom= 9.23D-01 WtEn= 7.69D-02
 Coeff-Com: -0.917D-01 0.128D+00 0.132D+00 0.399D+00 0.433D+00
 Coeff-En:   0.000D+00 0.000D+00 0.000D+00 0.000D+00 0.100D+01
 Coeff:     -0.846D-01 0.118D+00 0.122D+00 0.368D+00 0.476D+00
 Gap=     0.252 Goal=   None    Shift=    0.000
 RMSDP=1.41D-03 MaxDP=1.55D-01 DE=-4.33D-02 OVMax= 2.22D-02

 Cycle   6  Pass 1  IDiag  1:
 RMSU=  5.71D-04    CP:  6.01D-01  2.35D+00  1.94D+00  7.95D-01  6.53D-01
 E= -3010.53078711242     Delta-E=       -0.003324723129 Rises=F Damp=F
 DIIS: error= 3.06D-03 at cycle   6 NSaved=   6.
 NSaved= 6 IEnMin= 6 EnMin= -3010.53078711242     IErMin= 6 ErrMin= 3.06D-03
 ErrMax= 3.06D-03  0.00D+00 EMaxC= 1.00D-01 BMatC= 7.98D-04 BMatP= 1.01D-02
 IDIUse=3 WtCom= 9.69D-01 WtEn= 3.06D-02
 Coeff-Com: -0.932D-01 0.126D+00 0.385D-02 0.160D+00 0.327D+00 0.477D+00
 Coeff-En:   0.000D+00 0.000D+00 0.000D+00 0.000D+00 0.109D+00 0.891D+00
 Coeff:     -0.904D-01 0.122D+00 0.373D-02 0.156D+00 0.320D+00 0.489D+00
 Gap=     0.246 Goal=   None    Shift=    0.000
 RMSDP=3.88D-04 MaxDP=2.64D-02 DE=-3.32D-03 OVMax= 7.31D-03

 Cycle   7  Pass 1  IDiag  1:
 RMSU=  2.19D-04    CP:  6.01D-01  2.34D+00  1.93D+00  7.68D-01  7.47D-01
                    CP:  6.77D-01
 E= -3010.53135245160     Delta-E=       -0.000565339180 Rises=F Damp=F
 DIIS: error= 3.03D-04 at cycle   7 NSaved=   7.
 NSaved= 7 IEnMin= 7 EnMin= -3010.53135245160     IErMin= 7 ErrMin= 3.03D-04
 ErrMax= 3.03D-04  0.00D+00 EMaxC= 1.00D-01 BMatC= 1.51D-05 BMatP= 7.98D-04
 IDIUse=3 WtCom= 9.97D-01 WtEn= 3.03D-03
 Coeff-Com: -0.333D-01 0.444D-01-0.119D-01 0.299D-01 0.772D-01 0.177D+00
 Coeff-Com:  0.717D+00
 Coeff-En:   0.000D+00 0.000D+00 0.000D+00 0.000D+00 0.000D+00 0.000D+00
 Coeff-En:   0.100D+01
 Coeff:     -0.332D-01 0.443D-01-0.119D-01 0.298D-01 0.770D-01 0.177D+00
 Coeff:      0.717D+00
 Gap=     0.247 Goal=   None    Shift=    0.000
 RMSDP=1.58D-04 MaxDP=1.15D-02 DE=-5.65D-04 OVMax= 1.78D-03

 Cycle   8  Pass 1  IDiag  1:
 RMSU=  6.73D-05    CP:  6.01D-01  2.34D+00  1.94D+00  7.84D-01  7.92D-01
                    CP:  7.43D-01  9.60D-01
 E= -3010.53137144334     Delta-E=       -0.000018991742 Rises=F Damp=F
 DIIS: error= 9.58D-05 at cycle   8 NSaved=   8.
 NSaved= 8 IEnMin= 8 EnMin= -3010.53137144334     IErMin= 8 ErrMin= 9.58D-05
 ErrMax= 9.58D-05  0.00D+00 EMaxC= 1.00D-01 BMatC= 2.15D-06 BMatP= 1.51D-05
 IDIUse=1 WtCom= 1.00D+00 WtEn= 0.00D+00
 Coeff-Com:  0.540D-02-0.744D-02-0.337D-02-0.141D-01-0.293D-01-0.376D-01
 Coeff-Com:  0.162D+00 0.924D+00
 Coeff:      0.540D-02-0.744D-02-0.337D-02-0.141D-01-0.293D-01-0.376D-01
 Coeff:      0.162D+00 0.924D+00
 Gap=     0.247 Goal=   None    Shift=    0.000
 RMSDP=7.01D-05 MaxDP=6.20D-03 DE=-1.90D-05 OVMax= 1.70D-03

 Cycle   9  Pass 1  IDiag  1:
 RMSU=  2.43D-05    CP:  6.01D-01  2.34D+00  1.94D+00  7.90D-01  8.02D-01
                    CP:  7.54D-01  1.11D+00  1.24D+00
 E= -3010.53137652841     Delta-E=       -0.000005085072 Rises=F Damp=F
 DIIS: error= 2.52D-05 at cycle   9 NSaved=   9.
 NSaved= 9 IEnMin= 9 EnMin= -3010.53137652841     IErMin= 9 ErrMin= 2.52D-05
 ErrMax= 2.52D-05  0.00D+00 EMaxC= 1.00D-01 BMatC= 2.81D-07 BMatP= 2.15D-06
 IDIUse=1 WtCom= 1.00D+00 WtEn= 0.00D+00
 Coeff-Com:  0.668D-02-0.897D-02 0.784D-03-0.869D-02-0.178D-01-0.324D-01
 Coeff-Com: -0.675D-01 0.258D+00 0.870D+00
 Coeff:      0.668D-02-0.897D-02 0.784D-03-0.869D-02-0.178D-01-0.324D-01
 Coeff:     -0.675D-01 0.258D+00 0.870D+00
 Gap=     0.247 Goal=   None    Shift=    0.000
 RMSDP=3.28D-05 MaxDP=3.01D-03 DE=-5.09D-06 OVMax= 9.78D-04

 Cycle  10  Pass 1  IDiag  1:
 RMSU=  1.19D-05    CP:  6.01D-01  2.34D+00  1.94D+00  7.89D-01  8.08D-01
                    CP:  7.48D-01  1.15D+00  1.46D+00  1.08D+00
 E= -3010.53137766855     Delta-E=       -0.000001140142 Rises=F Damp=F
 DIIS: error= 1.58D-05 at cycle  10 NSaved=  10.
 NSaved=10 IEnMin=10 EnMin= -3010.53137766855     IErMin=10 ErrMin= 1.58D-05
 ErrMax= 1.58D-05  0.00D+00 EMaxC= 1.00D-01 BMatC= 7.63D-08 BMatP= 2.81D-07
 IDIUse=1 WtCom= 1.00D+00 WtEn= 0.00D+00
 Coeff-Com:  0.383D-03-0.484D-03 0.521D-03 0.208D-03 0.280D-02 0.498D-02
 Coeff-Com: -0.439D-01-0.107D+00 0.190D+00 0.953D+00
 Coeff:      0.383D-03-0.484D-03 0.521D-03 0.208D-03 0.280D-02 0.498D-02
 Coeff:     -0.439D-01-0.107D+00 0.190D+00 0.953D+00
 Gap=     0.247 Goal=   None    Shift=    0.000
 RMSDP=1.62D-05 MaxDP=1.53D-03 DE=-1.14D-06 OVMax= 5.61D-04

 Cycle  11  Pass 1  IDiag  1:
 RMSU=  7.62D-06    CP:  6.01D-01  2.34D+00  1.94D+00  7.89D-01  8.11D-01
                    CP:  7.44D-01  1.16D+00  1.60D+00  1.20D+00  1.49D+00
 E= -3010.53137798189     Delta-E=       -0.000000313343 Rises=F Damp=F
 DIIS: error= 8.08D-06 at cycle  11 NSaved=  11.
 NSaved=11 IEnMin=11 EnMin= -3010.53137798189     IErMin=11 ErrMin= 8.08D-06
 ErrMax= 8.08D-06  0.00D+00 EMaxC= 1.00D-01 BMatC= 9.38D-09 BMatP= 7.63D-08
 IDIUse=1 WtCom= 1.00D+00 WtEn= 0.00D+00
 Coeff-Com: -0.495D-03 0.660D-03 0.583D-05 0.102D-02 0.193D-02 0.448D-02
 Coeff-Com:  0.209D-01-0.199D-01-0.213D+00-0.237D+00 0.144D+01
 Coeff:     -0.495D-03 0.660D-03 0.583D-05 0.102D-02 0.193D-02 0.448D-02
 Coeff:      0.209D-01-0.199D-01-0.213D+00-0.237D+00 0.144D+01
 Gap=     0.247 Goal=   None    Shift=    0.000
 RMSDP=1.52D-05 MaxDP=1.41D-03 DE=-3.13D-07 OVMax= 4.29D-04

 Cycle  12  Pass 1  IDiag  1:
 RMSU=  1.71D-06    CP:  6.01D-01  2.34D+00  1.94D+00  7.88D-01  8.12D-01
                    CP:  7.37D-01  1.16D+00  1.68D+00  1.24D+00  1.97D+00
                    CP:  1.77D+00
 E= -3010.53137807631     Delta-E=       -0.000000094412 Rises=F Damp=F
 DIIS: error= 3.21D-06 at cycle  12 NSaved=  12.
 NSaved=12 IEnMin=12 EnMin= -3010.53137807631     IErMin=12 ErrMin= 3.21D-06
 ErrMax= 3.21D-06  0.00D+00 EMaxC= 1.00D-01 BMatC= 2.02D-09 BMatP= 9.38D-09
 IDIUse=1 WtCom= 1.00D+00 WtEn= 0.00D+00
 Coeff-Com: -0.175D-03 0.230D-03-0.402D-04 0.304D-03 0.111D-03 0.500D-03
 Coeff-Com:  0.125D-01 0.690D-02-0.918D-01-0.205D+00 0.539D+00 0.738D+00
 Coeff:     -0.175D-03 0.230D-03-0.402D-04 0.304D-03 0.111D-03 0.500D-03
 Coeff:      0.125D-01 0.690D-02-0.918D-01-0.205D+00 0.539D+00 0.738D+00
 Gap=     0.247 Goal=   None    Shift=    0.000
 RMSDP=2.31D-06 MaxDP=2.59D-04 DE=-9.44D-08 OVMax= 8.45D-05

 Cycle  13  Pass 1  IDiag  1:
 RMSU=  8.28D-07    CP:  6.01D-01  2.34D+00  1.94D+00  7.88D-01  8.12D-01
                    CP:  7.36D-01  1.16D+00  1.69D+00  1.24D+00  2.03D+00
                    CP:  1.86D+00  1.21D+00
 E= -3010.53137808346     Delta-E=       -0.000000007156 Rises=F Damp=F
 DIIS: error= 1.86D-06 at cycle  13 NSaved=  13.
 NSaved=13 IEnMin=13 EnMin= -3010.53137808346     IErMin=13 ErrMin= 1.86D-06
 ErrMax= 1.86D-06  0.00D+00 EMaxC= 1.00D-01 BMatC= 3.46D-10 BMatP= 2.02D-09
 IDIUse=1 WtCom= 1.00D+00 WtEn= 0.00D+00
 Coeff-Com:  0.227D-05-0.279D-05-0.275D-04-0.127D-03-0.414D-03-0.993D-03
 Coeff-Com: -0.318D-02 0.312D-02 0.399D-01 0.223D-01-0.271D+00 0.108D+00
 Coeff-Com:  0.110D+01
 Coeff:      0.227D-05-0.279D-05-0.275D-04-0.127D-03-0.414D-03-0.993D-03
 Coeff:     -0.318D-02 0.312D-02 0.399D-01 0.223D-01-0.271D+00 0.108D+00
 Coeff:      0.110D+01
 Gap=     0.247 Goal=   None    Shift=    0.000
 RMSDP=1.06D-06 MaxDP=6.39D-05 DE=-7.16D-09 OVMax= 5.36D-05

 Cycle  14  Pass 1  IDiag  1:
 RMSU=  4.72D-07    CP:  6.01D-01  2.34D+00  1.94D+00  7.88D-01  8.12D-01
                    CP:  7.36D-01  1.16D+00  1.69D+00  1.24D+00  2.03D+00
                    CP:  1.90D+00  1.48D+00  1.63D+00
 E= -3010.53137808548     Delta-E=       -0.000000002015 Rises=F Damp=F
 DIIS: error= 5.84D-07 at cycle  14 NSaved=  14.
 NSaved=14 IEnMin=14 EnMin= -3010.53137808548     IErMin=14 ErrMin= 5.84D-07
 ErrMax= 5.84D-07  0.00D+00 EMaxC= 1.00D-01 BMatC= 5.91D-11 BMatP= 3.46D-10
 IDIUse=1 WtCom= 1.00D+00 WtEn= 0.00D+00
 Coeff-Com:  0.141D-04-0.183D-04-0.671D-05-0.715D-04-0.116D-03-0.322D-03
 Coeff-Com: -0.247D-02 0.252D-03 0.252D-01 0.338D-01-0.154D+00-0.672D-01
 Coeff-Com:  0.357D+00 0.808D+00
 Coeff:      0.141D-04-0.183D-04-0.671D-05-0.715D-04-0.116D-03-0.322D-03
 Coeff:     -0.247D-02 0.252D-03 0.252D-01 0.338D-01-0.154D+00-0.672D-01
 Coeff:      0.357D+00 0.808D+00
 Gap=     0.247 Goal=   None    Shift=    0.000
 RMSDP=3.13D-07 MaxDP=2.19D-05 DE=-2.01D-09 OVMax= 1.13D-05

 Cycle  15  Pass 1  IDiag  1:
 RMSU=  1.55D-07    CP:  6.01D-01  2.34D+00  1.94D+00  7.88D-01  8.12D-01
                    CP:  7.36D-01  1.16D+00  1.69D+00  1.24D+00  2.04D+00
                    CP:  1.89D+00  1.53D+00  1.76D+00  1.00D+00
 E= -3010.53137808570     Delta-E=       -0.000000000226 Rises=F Damp=F
 DIIS: error= 2.95D-07 at cycle  15 NSaved=  15.
 NSaved=15 IEnMin=15 EnMin= -3010.53137808570     IErMin=15 ErrMin= 2.95D-07
 ErrMax= 2.95D-07  0.00D+00 EMaxC= 1.00D-01 BMatC= 1.40D-11 BMatP= 5.91D-11
 IDIUse=1 WtCom= 1.00D+00 WtEn= 0.00D+00
 Coeff-Com:  0.349D-05-0.459D-05 0.319D-05 0.582D-05 0.632D-04 0.129D-03
 Coeff-Com: -0.409D-04-0.682D-03-0.116D-02 0.552D-02 0.782D-02-0.522D-01
 Coeff-Com: -0.114D+00 0.335D+00 0.819D+00
 Coeff:      0.349D-05-0.459D-05 0.319D-05 0.582D-05 0.632D-04 0.129D-03
 Coeff:     -0.409D-04-0.682D-03-0.116D-02 0.552D-02 0.782D-02-0.522D-01
 Coeff:     -0.114D+00 0.335D+00 0.819D+00
 Gap=     0.247 Goal=   None    Shift=    0.000
 RMSDP=1.27D-07 MaxDP=6.51D-06 DE=-2.26D-10 OVMax= 6.29D-06

 Cycle  16  Pass 1  IDiag  1:
 RMSU=  5.98D-08    CP:  6.01D-01  2.34D+00  1.94D+00  7.88D-01  8.12D-01
                    CP:  7.36D-01  1.16D+00  1.69D+00  1.24D+00  2.04D+00
                    CP:  1.89D+00  1.55D+00  1.81D+00  1.13D+00  1.32D+00
 E= -3010.53137808569     Delta-E=        0.000000000013 Rises=F Damp=F
 DIIS: error= 8.59D-08 at cycle  16 NSaved=  16.
 NSaved=16 IEnMin=15 EnMin= -3010.53137808570     IErMin=16 ErrMin= 8.59D-08
 ErrMax= 8.59D-08  0.00D+00 EMaxC= 1.00D-01 BMatC= 1.21D-12 BMatP= 1.40D-11
 IDIUse=1 WtCom= 1.00D+00 WtEn= 0.00D+00
 Coeff-Com:  0.871D-07-0.141D-06 0.188D-05 0.914D-05 0.280D-04 0.602D-04
 Coeff-Com:  0.227D-03-0.227D-03-0.304D-02-0.150D-02 0.186D-01-0.577D-02
 Coeff-Com: -0.651D-01-0.369D-01 0.157D+00 0.936D+00
 Coeff:      0.871D-07-0.141D-06 0.188D-05 0.914D-05 0.280D-04 0.602D-04
 Coeff:      0.227D-03-0.227D-03-0.304D-02-0.150D-02 0.186D-01-0.577D-02
 Coeff:     -0.651D-01-0.369D-01 0.157D+00 0.936D+00
 Gap=     0.247 Goal=   None    Shift=    0.000
 RMSDP=5.35D-08 MaxDP=2.15D-06 DE= 1.32D-11 OVMax= 1.84D-06

 Cycle  17  Pass 1  IDiag  1:
 RMSU=  1.85D-08    CP:  6.01D-01  2.34D+00  1.94D+00  7.88D-01  8.12D-01
                    CP:  7.36D-01  1.16D+00  1.69D+00  1.24D+00  2.04D+00
                    CP:  1.89D+00  1.55D+00  1.81D+00  1.17D+00  1.48D+00
                    CP:  1.35D+00
 E= -3010.53137808576     Delta-E=       -0.000000000067 Rises=F Damp=F
 DIIS: error= 3.70D-08 at cycle  17 NSaved=  17.
 NSaved=17 IEnMin=17 EnMin= -3010.53137808576     IErMin=17 ErrMin= 3.70D-08
 ErrMax= 3.70D-08  0.00D+00 EMaxC= 1.00D-01 BMatC= 2.47D-13 BMatP= 1.21D-12
 IDIUse=1 WtCom= 1.00D+00 WtEn= 0.00D+00
 Coeff-Com: -0.181D-05 0.241D-05-0.223D-06 0.301D-05 0.191D-05 0.133D-05
 Coeff-Com:  0.700D-04 0.680D-04-0.742D-03-0.104D-02 0.417D-02 0.541D-02
 Coeff-Com: -0.459D-03-0.579D-01-0.788D-01 0.250D+00 0.879D+00
 Coeff:     -0.181D-05 0.241D-05-0.223D-06 0.301D-05 0.191D-05 0.133D-05
 Coeff:      0.700D-04 0.680D-04-0.742D-03-0.104D-02 0.417D-02 0.541D-02
 Coeff:     -0.459D-03-0.579D-01-0.788D-01 0.250D+00 0.879D+00
 Gap=     0.247 Goal=   None    Shift=    0.000
 RMSDP=3.63D-08 MaxDP=3.34D-06 DE=-6.68D-11 OVMax= 5.29D-07

 Cycle  18  Pass 1  IDiag  1:
 RMSU=  7.98D-09    CP:  6.01D-01  2.34D+00  1.94D+00  7.88D-01  8.12D-01
                    CP:  7.36D-01  1.16D+00  1.69D+00  1.24D+00  2.04D+00
                    CP:  1.89D+00  1.55D+00  1.80D+00  1.16D+00  1.55D+00
                    CP:  1.57D+00  1.19D+00
 E= -3010.53137808576     Delta-E=       -0.000000000003 Rises=F Damp=F
 DIIS: error= 1.35D-08 at cycle  18 NSaved=  18.
 NSaved=18 IEnMin=18 EnMin= -3010.53137808576     IErMin=18 ErrMin= 1.35D-08
 ErrMax= 1.35D-08  0.00D+00 EMaxC= 1.00D-01 BMatC= 4.24D-14 BMatP= 2.47D-13
 IDIUse=1 WtCom= 1.00D+00 WtEn= 0.00D+00
 Coeff-Com: -0.358D-06 0.480D-06-0.371D-06-0.104D-05-0.585D-05-0.144D-04
 Coeff-Com: -0.231D-04 0.885D-04 0.262D-03-0.172D-03-0.215D-02 0.289D-02
 Coeff-Com:  0.128D-01-0.132D-01-0.584D-01-0.764D-01 0.303D+00 0.831D+00
 Coeff:     -0.358D-06 0.480D-06-0.371D-06-0.104D-05-0.585D-05-0.144D-04
 Coeff:     -0.231D-04 0.885D-04 0.262D-03-0.172D-03-0.215D-02 0.289D-02
 Coeff:      0.128D-01-0.132D-01-0.584D-01-0.764D-01 0.303D+00 0.831D+00
 Gap=     0.247 Goal=   None    Shift=    0.000
 RMSDP=2.80D-08 MaxDP=2.80D-06 DE=-3.18D-12 OVMax= 2.62D-07

 Cycle  19  Pass 1  IDiag  1:
 RMSU=  2.79D-09    CP:  6.01D-01  2.34D+00  1.94D+00  7.88D-01  8.12D-01
                    CP:  7.36D-01  1.16D+00  1.69D+00  1.24D+00  2.04D+00
                    CP:  1.89D+00  1.55D+00  1.79D+00  1.15D+00  1.56D+00
                    CP:  1.65D+00  1.36D+00  1.20D+00
 E= -3010.53137808579     Delta-E=       -0.000000000029 Rises=F Damp=F
 DIIS: error= 6.20D-09 at cycle  19 NSaved=  19.
 NSaved=19 IEnMin=19 EnMin= -3010.53137808579     IErMin=19 ErrMin= 6.20D-09
 ErrMax= 6.20D-09  0.00D+00 EMaxC= 1.00D-01 BMatC= 6.94D-15 BMatP= 4.24D-14
 IDIUse=1 WtCom= 1.00D+00 WtEn= 0.00D+00
 Large coefficients: NSaved= 19 BigCof=    0.00 CofMax=   10.00 Det=-1.68D-14
 Inversion failed.  Reducing to 18 matrices.
 Coeff-Com:  0.639D-09-0.482D-07-0.231D-06-0.449D-06-0.139D-05-0.822D-05
 Coeff-Com:  0.953D-06 0.972D-04 0.119D-03-0.561D-03-0.412D-03 0.140D-02
 Coeff-Com:  0.521D-02 0.267D-02-0.414D-01-0.985D-01 0.123D+00 0.101D+01
 Coeff:      0.639D-09-0.482D-07-0.231D-06-0.449D-06-0.139D-05-0.822D-05
 Coeff:      0.953D-06 0.972D-04 0.119D-03-0.561D-03-0.412D-03 0.140D-02
 Coeff:      0.521D-02 0.267D-02-0.414D-01-0.985D-01 0.123D+00 0.101D+01
 Gap=     0.247 Goal=   None    Shift=    0.000
 RMSDP=4.59D-09 MaxDP=4.04D-07 DE=-2.86D-11 OVMax= 1.40D-07

 SCF Done:  E(RwB97XD) =  -3010.53137809     A.U. after   19 cycles
            NFock= 19  Conv=0.46D-08     -V/T= 2.0016
 KE= 3.005857297116D+03 PE=-8.700416397928D+03 EE= 1.910423858468D+03
 Leave Link  502 at Thu May  2 14:18:36 2024, MaxMem=   134217728 cpu:            1153.9 elap:            1154.1
 (Enter /software/gaussian/g16-c01/sse4/g16/l601.exe)
 Copying SCF densities to generalized density rwf, IOpCl= 0 IROHF=0.

 **********************************************************************

            Population analysis using the SCF Density.

 **********************************************************************

 Alpha  occ. eigenvalues -- -483.32006 -62.87041 -56.66719 -56.66170 -56.66161
 Alpha  occ. eigenvalues --  -19.46331 -19.46306 -14.85763 -10.59468 -10.58477
 Alpha  occ. eigenvalues --  -10.57559 -10.57281 -10.53620 -10.52967  -9.02855
 Alpha  occ. eigenvalues --   -6.85494  -6.83688  -6.83662  -2.95407  -2.94930
 Alpha  occ. eigenvalues --   -2.94909  -2.93464  -2.93463  -1.50012  -1.32968
 Alpha  occ. eigenvalues --   -1.22734  -1.13224  -1.12747  -1.05357  -1.00612
 Alpha  occ. eigenvalues --   -0.95631  -0.90814  -0.85105  -0.81082  -0.80352
 Alpha  occ. eigenvalues --   -0.80205  -0.78130  -0.76330  -0.75828  -0.72398
 Alpha  occ. eigenvalues --   -0.68789  -0.67822  -0.63804  -0.60334  -0.57550
 Alpha  occ. eigenvalues --   -0.57320  -0.56776  -0.56034  -0.55168
 Alpha virt. eigenvalues --   -0.30463  -0.20553  -0.16300  -0.13263  -0.09253
 Alpha virt. eigenvalues --   -0.06685  -0.06397  -0.05800  -0.04202  -0.03464
 Alpha virt. eigenvalues --   -0.03092  -0.02576  -0.01895  -0.01094  -0.00830
 Alpha virt. eigenvalues --    0.00423   0.00967   0.01524   0.01939   0.03287
 Alpha virt. eigenvalues --    0.04357   0.05194   0.05735   0.06098   0.06618
 Alpha virt. eigenvalues --    0.07296   0.07666   0.07908   0.09276   0.09503
 Alpha virt. eigenvalues --    0.10087   0.10842   0.11579   0.11776   0.12576
 Alpha virt. eigenvalues --    0.12981   0.13335   0.13453   0.14580   0.15843
 Alpha virt. eigenvalues --    0.16484   0.17072   0.17782   0.18730   0.19257
 Alpha virt. eigenvalues --    0.20225   0.20652   0.21298   0.22436   0.23854
 Alpha virt. eigenvalues --    0.24375   0.26835   0.27617   0.28860   0.30730
 Alpha virt. eigenvalues --    0.32009   0.33087   0.33565   0.34286   0.36309
 Alpha virt. eigenvalues --    0.37019   0.37552   0.39385   0.40403   0.41587
 Alpha virt. eigenvalues --    0.43261   0.44097   0.45207   0.46821   0.47325
 Alpha virt. eigenvalues --    0.48407   0.50223   0.50535   0.51792   0.53464
 Alpha virt. eigenvalues --    0.54877   0.55843   0.57940   0.58067   0.60033
 Alpha virt. eigenvalues --    0.60926   0.62105   0.64154   0.67027   0.68024
 Alpha virt. eigenvalues --    0.71211   0.71448   0.72752   0.74226   0.74464
 Alpha virt. eigenvalues --    0.74612   0.77252   0.79577   0.82626   0.85368
 Alpha virt. eigenvalues --    0.86776   0.87497   0.91379   0.93943   0.98641
 Alpha virt. eigenvalues --    1.00263   1.02334   1.03736   1.05482   1.06827
 Alpha virt. eigenvalues --    1.08654   1.12556   1.13288   1.13964   1.17780
 Alpha virt. eigenvalues --    1.20970   1.22784   1.27984   1.33302   1.36171
 Alpha virt. eigenvalues --    1.36786   1.38860   1.42919   1.54740   1.56585
 Alpha virt. eigenvalues --    1.57212   1.59761   1.61104   1.63838   1.65598
 Alpha virt. eigenvalues --    1.68024   1.71289   1.73904   1.75157   1.79321
 Alpha virt. eigenvalues --    1.83836   1.85237   1.87154   1.94010   1.95602
 Alpha virt. eigenvalues --    1.97711   2.02177   2.02817   2.07061   2.08608
 Alpha virt. eigenvalues --    2.12579   2.14459   2.22231   2.23608   2.27304
 Alpha virt. eigenvalues --    2.33419   2.39820   2.41460   2.44284   2.53148
 Alpha virt. eigenvalues --    2.57992   2.63060   2.65840   2.68633   2.71633
 Alpha virt. eigenvalues --    2.73602   2.76298   2.77344   2.80536   2.81884
 Alpha virt. eigenvalues --    2.93044   2.98027   3.01290   3.05665   3.08849
 Alpha virt. eigenvalues --    3.14740   3.16252   3.17466   3.22417   3.26491
 Alpha virt. eigenvalues --    3.27709   3.37845   3.46489   3.50059   3.54615
 Alpha virt. eigenvalues --    3.57483   3.68809   3.74135   3.83518   3.87214
 Alpha virt. eigenvalues --    4.09144   4.09987   4.18653   4.22750   4.42557
 Alpha virt. eigenvalues --    4.45077   4.54495   4.59740   4.93480   4.96321
 Alpha virt. eigenvalues --    5.05171   5.09657   5.61918   6.15078   6.67190
 Alpha virt. eigenvalues --    7.47987   7.50328   7.60476  23.22005  23.61164
 Alpha virt. eigenvalues --   23.71583  23.77840  23.95560  24.01992  35.31401
 Alpha virt. eigenvalues --   47.93304  49.85142  49.93805 289.80956 289.83296
 Alpha virt. eigenvalues --  289.959281020.94503
          Condensed to atoms (all electrons):
               1          2          3          4          5          6
     1  C    7.903108  -2.731941   0.942079  -0.106907   0.299949   0.055412
     2  C   -2.731941  17.144590  -4.556487   0.497539  -0.020929   0.187904
     3  C    0.942079  -4.556487  18.595631  -1.374294   0.031478   0.121666
     4  C   -0.106907   0.497539  -1.374294   6.429897   0.017414  -0.016100
     5  H    0.299949  -0.020929   0.031478   0.017414   0.330100  -0.001623
     6  H    0.055412   0.187904   0.121666  -0.016100  -0.001623   0.310937
     7  H    0.026027  -0.025824   0.023349   0.307106  -0.002787  -0.000004
     8  N   -0.100499   0.157346  -1.611448   0.018358  -0.000568  -0.029859
     9  O   -0.028704   0.195019  -0.202197  -0.013862  -0.000036  -0.002431
    10  O    0.276041  -0.241494  -0.185028  -0.026173   0.000024   0.021421
    11  C    0.783666  -0.846852   2.289072  -0.290048  -0.023576   0.009089
    12  H   -0.010025   0.014949   0.011912   0.012758   0.000010  -0.000016
    13  C   -1.206457  -3.774187  -7.797242   0.856346   0.023967  -0.007541
    14  H   -0.005488   0.011567   0.014534   0.006219  -0.000025   0.000028
    15  Br  -0.001867  -0.171776  -0.219241   0.019336  -0.000163  -0.000530
               7          8          9         10         11         12
     1  C    0.026027  -0.100499  -0.028704   0.276041   0.783666  -0.010025
     2  C   -0.025824   0.157346   0.195019  -0.241494  -0.846852   0.014949
     3  C    0.023349  -1.611448  -0.202197  -0.185028   2.289072   0.011912
     4  C    0.307106   0.018358  -0.013862  -0.026173  -0.290048   0.012758
     5  H   -0.002787  -0.000568  -0.000036   0.000024  -0.023576   0.000010
     6  H   -0.000004  -0.029859  -0.002431   0.021421   0.009089  -0.000016
     7  H    0.336426  -0.000011   0.000008  -0.000004   0.032600  -0.002300
     8  N   -0.000011   7.606145   0.093730   0.167301  -0.301341   0.000367
     9  O    0.000008   0.093730   7.859921   0.008270   0.255156   0.000095
    10  O   -0.000004   0.167301   0.008270   7.830129   0.014409  -0.000015
    11  C    0.032600  -0.301341   0.255156   0.014409   7.966470   0.320096
    12  H   -0.002300   0.000367   0.000095  -0.000015   0.320096   0.318372
    13  C   -0.026780   1.103722  -0.211370   0.064062  -4.078056  -0.018808
    14  H   -0.000021  -0.024658   0.009166  -0.001782   0.002237  -0.003971
    15  Br  -0.000474   0.149883  -0.051725   0.002050   0.053609  -0.002260
              13         14         15
     1  C   -1.206457  -0.005488  -0.001867
     2  C   -3.774187   0.011567  -0.171776
     3  C   -7.797242   0.014534  -0.219241
     4  C    0.856346   0.006219   0.019336
     5  H    0.023967  -0.000025  -0.000163
     6  H   -0.007541   0.000028  -0.000530
     7  H   -0.026780  -0.000021  -0.000474
     8  N    1.103722  -0.024658   0.149883
     9  O   -0.211370   0.009166  -0.051725
    10  O    0.064062  -0.001782   0.002050
    11  C   -4.078056   0.002237   0.053609
    12  H   -0.018808  -0.003971  -0.002260
    13  C   20.750661   0.299258   0.358051
    14  H    0.299258   0.298225  -0.035217
    15  Br   0.358051  -0.035217  34.774129
 Mulliken charges:
               1
     1  C   -0.094393
     2  C    0.160575
     3  C   -0.083783
     4  C   -0.337588
     5  H    0.346766
     6  H    0.351648
     7  H    0.332690
     8  N   -0.228468
     9  O    0.088959
    10  O    0.070789
    11  C   -0.186529
    12  H    0.358837
    13  C   -0.335625
    14  H    0.429928
    15  Br   0.126195
 Sum of Mulliken charges =   1.00000
 Mulliken charges with hydrogens summed into heavy atoms:
               1
     1  C    0.252373
     2  C    0.512223
     3  C   -0.083783
     4  C   -0.004898
     8  N   -0.228468
     9  O    0.088959
    10  O    0.070789
    11  C    0.172308
    13  C    0.094303
    15  Br   0.126195
 Electronic spatial extent (au):  <R**2>=           3947.3977
 Charge=              1.0000 electrons
 Dipole moment (field-independent basis, Debye):
    X=              2.7009    Y=             -0.6756    Z=              0.2887  Tot=              2.7990
 Quadrupole moment (field-independent basis, Debye-Ang):
   XX=            -67.8327   YY=            -51.5095   ZZ=            -63.5265
   XY=             -2.5100   XZ=             -0.4174   YZ=              1.4415
 Traceless Quadrupole moment (field-independent basis, Debye-Ang):
   XX=             -6.8765   YY=              9.4468   ZZ=             -2.5703
   XY=             -2.5100   XZ=             -0.4174   YZ=              1.4415
 Octapole moment (field-independent basis, Debye-Ang**2):
  XXX=           -512.3019  YYY=             93.8262  ZZZ=             88.3674  XYY=           -137.5645
  XXY=             25.3823  XXZ=             32.1036  XZZ=           -135.5137  YZZ=             19.9464
  YYZ=             29.0479  XYZ=              5.7189
 Hexadecapole moment (field-independent basis, Debye-Ang**3):
 XXXX=          -3442.0189 YYYY=           -706.0457 ZZZZ=           -408.8925 XXXY=            181.1529
 XXXZ=            206.5827 YYYX=            188.9764 YYYZ=           -178.4306 ZZZX=            179.0071
 ZZZY=           -153.0356 XXYY=           -626.3164 XXZZ=           -533.5372 YYZZ=           -178.0257
 XXYZ=            -46.9094 YYXZ=             56.6613 ZZXY=             35.0261
 N-N= 7.736038642573D+02 E-N=-8.700416397754D+03  KE= 3.005857297116D+03
 No NMR shielding tensors so no spin-rotation constants.
 Leave Link  601 at Thu May  2 14:18:43 2024, MaxMem=   134217728 cpu:               7.5 elap:               7.5
 (Enter /software/gaussian/g16-c01/sse4/g16/l9999.exe)
 Unable to Open any file for archive entry.
 1\1\GINC-BHX0016\SP\RwB97XD\6-311+G(d)\C6H5Br1N1O2(1+)\BWEIGHT\02-May-
 2024\0\\#P wB97XD/6-311+G* NoSymm #P Field=Z-58\\TitleMe\\1,1\C,0,0.51
 93,1.233,-0.0319\C,0,1.9445,1.2692,-0.0367\C,0,2.6204,0.0928,-0.025\C,
 0,-0.196,0.0301,0.001\H,0,-0.0207,2.1742,-0.0434\H,0,2.4828,2.2089,-0.
 0361\H,0,-1.2777,0.0399,0.0117\N,0,4.0921,0.0959,0.0366\O,0,4.6393,-1.
 0217,0.1446\O,0,4.6649,1.1984,-0.0233\C,0,0.4943,-1.1671,0.021\H,0,-0.
 0325,-2.1149,0.0545\C,0,1.9629,-1.2165,-0.0211\H,0,2.4436,-1.9631,0.61
 51\Br,0,2.173,-1.9491,-1.9062\\Version=ES64L-G16RevC.01\HF=-3010.53137
 81\RMSD=4.590e-09\Dipole=-3.2666113,0.9623401,1.3628174\Quadrupole=-5.
 112503,7.0234377,-1.9109347,-1.8661434,-0.310323,1.0717006\PG=C01 [X(C
 6H5Br1N1O2)]\\@
 The archive entry for this job was punched.


 BE LIKE A POSTAGE STAMP.  STICK TO ONE THING UNTIL
 YOU GET THERE -- JOSH BILLINGS
 Job cpu time:       0 days  0 hours 20 minutes 24.6 seconds.
 Elapsed time:       0 days  0 hours 20 minutes 25.4 seconds.
 File lengths (MBytes):  RWF=     40 Int=      0 D2E=      0 Chk=     32 Scr=      1
 Normal termination of Gaussian 16 at Thu May  2 14:18:44 2024.
