 Entering Gaussian System, Link 0=g16
 Initial command:
 /software/gaussian/g16-a03/l1.exe "/local_scratch/6484956/Gau-28351.inp" -scrdir="/local_scratch/6484956/"
 Entering Link 1 = /software/gaussian/g16-a03/l1.exe PID=     28466.
  
 Copyright (c) 1988,1990,1992,1993,1995,1998,2003,2009,2016,
            Gaussian, Inc.  All Rights Reserved.
  
 This is part of the Gaussian(R) 16 program.  It is based on
 the Gaussian(R) 09 system (copyright 2009, Gaussian, Inc.),
 the Gaussian(R) 03 system (copyright 2003, Gaussian, Inc.),
 the Gaussian(R) 98 system (copyright 1998, Gaussian, Inc.),
 the Gaussian(R) 94 system (copyright 1995, Gaussian, Inc.),
 the Gaussian 92(TM) system (copyright 1992, Gaussian, Inc.),
 the Gaussian 90(TM) system (copyright 1990, Gaussian, Inc.),
 the Gaussian 88(TM) system (copyright 1988, Gaussian, Inc.),
 the Gaussian 86(TM) system (copyright 1986, Carnegie Mellon
 University), and the Gaussian 82(TM) system (copyright 1983,
 Carnegie Mellon University). Gaussian is a federally registered
 trademark of Gaussian, Inc.
  
 This software contains proprietary and confidential information,
 including trade secrets, belonging to Gaussian, Inc.
  
 This software is provided under written license and may be
 used, copied, transmitted, or stored only in accord with that
 written license.
  
 The following legend is applicable only to US Government
 contracts under FAR:
  
                    RESTRICTED RIGHTS LEGEND
  
 Use, reproduction and disclosure by the US Government is
 subject to restrictions as set forth in subparagraphs (a)
 and (c) of the Commercial Computer Software - Restricted
 Rights clause in FAR 52.227-19.
  
 Gaussian, Inc.
 340 Quinnipiac St., Bldg. 40, Wallingford CT 06492
  
  
 ---------------------------------------------------------------
 Warning -- This program may not be used in any manner that
 competes with the business of Gaussian, Inc. or will provide
 assistance to any competitor of Gaussian, Inc.  The licensee
 of this program is prohibited from giving any competitor of
 Gaussian, Inc. access to this program.  By using this program,
 the user acknowledges that Gaussian, Inc. is engaged in the
 business of creating and licensing software in the field of
 computational chemistry and represents and warrants to the
 licensee that it is not a competitor of Gaussian, Inc. and that
 it will not use this program in any manner prohibited above.
 ---------------------------------------------------------------
  

 Cite this work as:
 Gaussian 16, Revision A.03,
 M. J. Frisch, G. W. Trucks, H. B. Schlegel, G. E. Scuseria, 
 M. A. Robb, J. R. Cheeseman, G. Scalmani, V. Barone, 
 G. A. Petersson, H. Nakatsuji, X. Li, M. Caricato, A. V. Marenich, 
 J. Bloino, B. G. Janesko, R. Gomperts, B. Mennucci, H. P. Hratchian, 
 J. V. Ortiz, A. F. Izmaylov, J. L. Sonnenberg, D. Williams-Young, 
 F. Ding, F. Lipparini, F. Egidi, J. Goings, B. Peng, A. Petrone, 
 T. Henderson, D. Ranasinghe, V. G. Zakrzewski, J. Gao, N. Rega, 
 G. Zheng, W. Liang, M. Hada, M. Ehara, K. Toyota, R. Fukuda, 
 J. Hasegawa, M. Ishida, T. Nakajima, Y. Honda, O. Kitao, H. Nakai, 
 T. Vreven, K. Throssell, J. A. Montgomery, Jr., J. E. Peralta, 
 F. Ogliaro, M. J. Bearpark, J. J. Heyd, E. N. Brothers, K. N. Kudin, 
 V. N. Staroverov, T. A. Keith, R. Kobayashi, J. Normand, 
 K. Raghavachari, A. P. Rendell, J. C. Burant, S. S. Iyengar, 
 J. Tomasi, M. Cossi, J. M. Millam, M. Klene, C. Adamo, R. Cammi, 
 J. W. Ochterski, R. L. Martin, K. Morokuma, O. Farkas, 
 J. B. Foresman, and D. J. Fox, Gaussian, Inc., Wallingford CT, 2016.
 
 ******************************************
 Gaussian 16:  ES64L-G16RevA.03 25-Dec-2016
                17-Sep-2021 
 ******************************************
 %chk=geometry.chk
 %mem=2GB
 %nprocshared=1
 Will use up to    1 processors via shared memory.
 --------------------------------------------------------------------
 #p B3LYP/6-311+G** #p TD=(singlets,nstates=30)IOp(6/8=3) IOp(9/40=4)
 --------------------------------------------------------------------
 1/38=1,172=1/1;
 2/12=2,17=6,18=5,40=1/2;
 3/5=4,6=6,7=111,11=9,25=1,30=1,74=-5/1,2,3,8;
 4//1;
 5/5=2,38=5/2;
 8/6=1,10=2,108=30/1;
 9/40=4,41=30,42=1,48=1,70=2/14;
 6/7=2,8=3,9=2,10=2/1;
 99/5=1,9=1/99;
 Leave Link    1 at Fri Sep 17 10:52:33 2021, MaxMem=   268435456 cpu:               0.0 elap:               0.4
 (Enter /software/gaussian/g16-a03/l101.exe)
 --------------------------------
 Scan Step 225, Bond Length 1.625
 --------------------------------
 Symbolic Z-matrix:
 Charge =  0 Multiplicity = 1
 C                     0.        0.       -0.52736 
 H                     0.        0.93726  -1.11871 
 H                     0.       -0.93726  -1.11871 
 O                     0.        0.        1.09764 
 
 ITRead=  0  0  0  0
 MicOpt= -1 -1 -1 -1
 NAtoms=      4 NQM=        4 NQMF=       0 NMMI=      0 NMMIF=      0
                NMic=       0 NMicF=      0.
                    Isotopes and Nuclear Properties:
 (Nuclear quadrupole moments (NQMom) in fm**2, nuclear magnetic moments (NMagM)
  in nuclear magnetons)

  Atom         1           2           3           4
 IAtWgt=          12           1           1          16
 AtmWgt=  12.0000000   1.0078250   1.0078250  15.9949146
 NucSpn=           0           1           1           0
 AtZEff=  -0.0000000  -0.0000000  -0.0000000  -0.0000000
 NQMom=    0.0000000   0.0000000   0.0000000   0.0000000
 NMagM=    0.0000000   2.7928460   2.7928460   0.0000000
 AtZNuc=   6.0000000   1.0000000   1.0000000   8.0000000
 Leave Link  101 at Fri Sep 17 10:52:34 2021, MaxMem=   268435456 cpu:               0.1 elap:               0.1
 (Enter /software/gaussian/g16-a03/l202.exe)
                          Input orientation:                          
 ---------------------------------------------------------------------
 Center     Atomic      Atomic             Coordinates (Angstroms)
 Number     Number       Type             X           Y           Z
 ---------------------------------------------------------------------
      1          6           0        0.000000    0.000000   -0.527360
      2          1           0        0.000000    0.937260   -1.118710
      3          1           0        0.000000   -0.937260   -1.118710
      4          8           0        0.000000    0.000000    1.097640
 ---------------------------------------------------------------------
                    Distance matrix (angstroms):
                    1          2          3          4
     1  C    0.000000
     2  H    1.108220   0.000000
     3  H    1.108220   1.874520   0.000000
     4  O    1.625000   2.406380   2.406380   0.000000
 Stoichiometry    CH2O
 Framework group  C2V[C2(CO),SGV(H2)]
 Deg. of freedom     3
 Full point group                 C2V     NOp   4
 Largest Abelian subgroup         C2V     NOp   4
 Largest concise Abelian subgroup C2      NOp   2
                         Standard orientation:                         
 ---------------------------------------------------------------------
 Center     Atomic      Atomic             Coordinates (Angstroms)
 Number     Number       Type             X           Y           Z
 ---------------------------------------------------------------------
      1          6           0        0.000000   -0.000000   -0.738581
      2          1           0        0.000000    0.937260   -1.329931
      3          1           0       -0.000000   -0.937260   -1.329931
      4          8           0        0.000000    0.000000    0.886419
 ---------------------------------------------------------------------
 Rotational constants (GHZ):         285.4183527          22.5136424          20.8676163
 Leave Link  202 at Fri Sep 17 10:52:34 2021, MaxMem=   268435456 cpu:               0.0 elap:               0.0
 (Enter /software/gaussian/g16-a03/l301.exe)
 Standard basis: 6-311+G(d,p) (5D, 7F)
 Ernie: Thresh=  0.10000D-02 Tol=  0.10000D-05 Strict=F.
 There are    29 symmetry adapted cartesian basis functions of A1  symmetry.
 There are     3 symmetry adapted cartesian basis functions of A2  symmetry.
 There are    11 symmetry adapted cartesian basis functions of B1  symmetry.
 There are    15 symmetry adapted cartesian basis functions of B2  symmetry.
 There are    27 symmetry adapted basis functions of A1  symmetry.
 There are     3 symmetry adapted basis functions of A2  symmetry.
 There are    11 symmetry adapted basis functions of B1  symmetry.
 There are    15 symmetry adapted basis functions of B2  symmetry.
    56 basis functions,    88 primitive gaussians,    58 cartesian basis functions
     8 alpha electrons        8 beta electrons
       nuclear repulsion energy        25.1619002951 Hartrees.
 IExCor=  402 DFT=T Ex+Corr=B3LYP ExCW=0 ScaHFX=  0.200000
 ScaDFX=  0.800000  0.720000  1.000000  0.810000 ScalE2=  1.000000  1.000000
 IRadAn=      5 IRanWt=     -1 IRanGd=            0 ICorTp=0 IEmpDi=  4
 NAtoms=    4 NActive=    4 NUniq=    3 SFac= 1.78D+00 NAtFMM=   60 NAOKFM=F Big=F
 Integral buffers will be    131072 words long.
 Regular integral format.
 Two-electron integral symmetry is turned on.
 Leave Link  301 at Fri Sep 17 10:52:34 2021, MaxMem=   268435456 cpu:               0.1 elap:               0.1
 (Enter /software/gaussian/g16-a03/l302.exe)
 NPDir=0 NMtPBC=     1 NCelOv=     1 NCel=       1 NClECP=     1 NCelD=      1
         NCelK=      1 NCelE2=     1 NClLst=     1 CellRange=     0.0.
 One-electron integrals computed using PRISM.
 One-electron integral symmetry used in STVInt
 NBasis=    56 RedAO= T EigKep=  1.01D-02  NBF=    27     3    11    15
 NBsUse=    56 1.00D-06 EigRej= -1.00D+00 NBFU=    27     3    11    15
 Precomputing XC quadrature grid using
 IXCGrd= 4 IRadAn=           5 IRanWt=          -1 IRanGd=           0 AccXCQ= 0.00D+00.
 Generated NRdTot=       0 NPtTot=           0 NUsed=           0 NTot=          32
 NSgBfM=    58    58    58    58    58 MxSgAt=     4 MxSgA2=     4.
 Leave Link  302 at Fri Sep 17 10:52:34 2021, MaxMem=   268435456 cpu:               0.3 elap:               0.3
 (Enter /software/gaussian/g16-a03/l303.exe)
 DipDrv:  MaxL=1.
 Leave Link  303 at Fri Sep 17 10:52:34 2021, MaxMem=   268435456 cpu:               0.1 elap:               0.1
 (Enter /software/gaussian/g16-a03/l308.exe)
 Leave Link  308 at Fri Sep 17 10:52:34 2021, MaxMem=   268435456 cpu:               0.1 elap:               0.1
 (Enter /software/gaussian/g16-a03/l401.exe)
 ExpMin= 4.38D-02 ExpMax= 8.59D+03 ExpMxC= 1.30D+03 IAcc=3 IRadAn=         5 AccDes= 0.00D+00
 Harris functional with IExCor=  402 and IRadAn=       5 diagonalized for initial guess.
 HarFok:  IExCor=  402 AccDes= 0.00D+00 IRadAn=         5 IDoV= 1 UseB2=F ITyADJ=14
 ICtDFT=  3500011 ScaDFX=  1.000000  1.000000  1.000000  1.000000
 FoFCou: FMM=F IPFlag=           0 FMFlag=      100000 FMFlg1=           0
         NFxFlg=           0 DoJE=T BraDBF=F KetDBF=T FulRan=T
         wScrn=  0.000000 ICntrl=       500 IOpCl=  0 I1Cent=   200000004 NGrid=           0
         NMat0=    1 NMatS0=      1 NMatT0=    0 NMatD0=    1 NMtDS0=    0 NMtDT0=    0
 Petite list used in FoFCou.
 Harris En= -114.442470268043    
 JPrj=0 DoOrth=F DoCkMO=F.
 Initial guess orbital symmetries:
       Occupied  (A1) (A1) (A1) (A1) (B2) (A1) (B1) (B2)
       Virtual   (B1) (A1) (A1) (B2) (B1) (A1) (A1) (B2) (A1) (B1)
                 (B2) (A1) (A1) (B2) (B1) (A1) (B2) (A1) (B1) (A2)
                 (A1) (B2) (B1) (A1) (B2) (A1) (A1) (B2) (B1) (A2)
                 (A1) (B2) (A1) (B2) (A1) (B1) (A1) (A2) (A1) (B1)
                 (B2) (B2) (A1) (B1) (B2) (A1) (A1) (A1)
 The electronic state of the initial guess is 1-A1.
 Leave Link  401 at Fri Sep 17 10:52:35 2021, MaxMem=   268435456 cpu:               0.5 elap:               0.5
 (Enter /software/gaussian/g16-a03/l502.exe)
 Keep R1 ints in memory in symmetry-blocked form, NReq=2159909.
 FoFCou: FMM=F IPFlag=           0 FMFlag=           0 FMFlg1=           0
         NFxFlg=           0 DoJE=F BraDBF=F KetDBF=F FulRan=T
         wScrn=  0.000000 ICntrl=       600 IOpCl=  0 I1Cent=           0 NGrid=           0
         NMat0=    1 NMatS0=   1596 NMatT0=    0 NMatD0=    1 NMtDS0=    0 NMtDT0=    0
 Petite list used in FoFCou.
 Closed shell SCF:
 Using DIIS extrapolation, IDIIS=  1040.
 NGot=   268435456 LenX=   268074384 LenY=   268070579
 Requested convergence on RMS density matrix=1.00D-08 within 128 cycles.
 Requested convergence on MAX density matrix=1.00D-06.
 Requested convergence on             energy=1.00D-06.
 No special actions if energy rises.

 Cycle   1  Pass 1  IDiag  1:
 E= -114.319316928728    
 DIIS: error= 6.52D-02 at cycle   1 NSaved=   1.
 NSaved= 1 IEnMin= 1 EnMin= -114.319316928728     IErMin= 1 ErrMin= 6.52D-02
 ErrMax= 6.52D-02  0.00D+00 EMaxC= 1.00D-01 BMatC= 1.12D-01 BMatP= 1.12D-01
 IDIUse=3 WtCom= 3.48D-01 WtEn= 6.52D-01
 Coeff-Com:  0.100D+01
 Coeff-En:   0.100D+01
 Coeff:      0.100D+01
 Gap=     0.091 Goal=   None    Shift=    0.000
 GapD=    0.091 DampG=0.500 DampE=0.500 DampFc=0.2500 IDamp=-1.
 Damping current iteration by 2.50D-01
 RMSDP=1.77D-02 MaxDP=1.51D-01              OVMax= 3.42D-01

 Cycle   2  Pass 1  IDiag  1:
 E= -114.325879965663     Delta-E=       -0.006563036935 Rises=F Damp=T
 DIIS: error= 1.37D-02 at cycle   2 NSaved=   2.
 NSaved= 2 IEnMin= 2 EnMin= -114.325879965663     IErMin= 2 ErrMin= 1.37D-02
 ErrMax= 1.37D-02  0.00D+00 EMaxC= 1.00D-01 BMatC= 1.31D-02 BMatP= 1.12D-01
 IDIUse=3 WtCom= 8.63D-01 WtEn= 1.37D-01
 Coeff-Com:  0.182D+00 0.818D+00
 Coeff-En:   0.473D+00 0.527D+00
 Coeff:      0.222D+00 0.778D+00
 Gap=     0.065 Goal=   None    Shift=    0.000
 RMSDP=2.49D-03 MaxDP=3.41D-02 DE=-6.56D-03 OVMax= 5.97D-01

 Cycle   3  Pass 1  IDiag  1:
 E= -114.416272786867     Delta-E=       -0.090392821204 Rises=F Damp=F
 DIIS: error= 8.19D-03 at cycle   3 NSaved=   3.
 NSaved= 3 IEnMin= 3 EnMin= -114.416272786867     IErMin= 3 ErrMin= 8.19D-03
 ErrMax= 8.19D-03  0.00D+00 EMaxC= 1.00D-01 BMatC= 2.35D-03 BMatP= 1.31D-02
 IDIUse=3 WtCom= 9.18D-01 WtEn= 8.19D-02
 Coeff-Com:  0.758D-01 0.237D+00 0.687D+00
 Coeff-En:   0.000D+00 0.000D+00 0.100D+01
 Coeff:      0.696D-01 0.218D+00 0.712D+00
 Gap=     0.135 Goal=   None    Shift=    0.000
 RMSDP=8.36D-04 MaxDP=1.69D-02 DE=-9.04D-02 OVMax= 2.74D-02

 Cycle   4  Pass 1  IDiag  1:
 E= -114.417900058894     Delta-E=       -0.001627272027 Rises=F Damp=F
 DIIS: error= 3.98D-03 at cycle   4 NSaved=   4.
 NSaved= 4 IEnMin= 4 EnMin= -114.417900058894     IErMin= 4 ErrMin= 3.98D-03
 ErrMax= 3.98D-03  0.00D+00 EMaxC= 1.00D-01 BMatC= 6.11D-04 BMatP= 2.35D-03
 IDIUse=3 WtCom= 9.60D-01 WtEn= 3.98D-02
 Coeff-Com:  0.404D-01-0.192D-01 0.283D+00 0.695D+00
 Coeff-En:   0.000D+00 0.000D+00 0.119D+00 0.881D+00
 Coeff:      0.388D-01-0.184D-01 0.277D+00 0.703D+00
 Gap=     0.140 Goal=   None    Shift=    0.000
 RMSDP=2.57D-04 MaxDP=6.11D-03 DE=-1.63D-03 OVMax= 6.77D-03

 Cycle   5  Pass 1  IDiag  1:
 E= -114.418458567261     Delta-E=       -0.000558508368 Rises=F Damp=F
 DIIS: error= 1.67D-03 at cycle   5 NSaved=   5.
 NSaved= 5 IEnMin= 5 EnMin= -114.418458567261     IErMin= 5 ErrMin= 1.67D-03
 ErrMax= 1.67D-03  0.00D+00 EMaxC= 1.00D-01 BMatC= 5.91D-05 BMatP= 6.11D-04
 IDIUse=3 WtCom= 9.83D-01 WtEn= 1.67D-02
 Coeff-Com:  0.224D-01-0.324D-01 0.750D-01 0.244D+00 0.691D+00
 Coeff-En:   0.000D+00 0.000D+00 0.000D+00 0.000D+00 0.100D+01
 Coeff:      0.220D-01-0.318D-01 0.737D-01 0.240D+00 0.696D+00
 Gap=     0.141 Goal=   None    Shift=    0.000
 RMSDP=5.40D-05 MaxDP=3.91D-04 DE=-5.59D-04 OVMax= 1.58D-03

 Cycle   6  Pass 1  IDiag  1:
 E= -114.418502523611     Delta-E=       -0.000043956350 Rises=F Damp=F
 DIIS: error= 7.35D-04 at cycle   6 NSaved=   6.
 NSaved= 6 IEnMin= 6 EnMin= -114.418502523611     IErMin= 6 ErrMin= 7.35D-04
 ErrMax= 7.35D-04  0.00D+00 EMaxC= 1.00D-01 BMatC= 1.03D-05 BMatP= 5.91D-05
 IDIUse=3 WtCom= 9.93D-01 WtEn= 7.35D-03
 Coeff-Com:  0.570D-02-0.577D-02 0.589D-02-0.330D-01-0.118D+00 0.115D+01
 Coeff-En:   0.000D+00 0.000D+00 0.000D+00 0.000D+00 0.000D+00 0.100D+01
 Coeff:      0.566D-02-0.573D-02 0.585D-02-0.327D-01-0.118D+00 0.114D+01
 Gap=     0.141 Goal=   None    Shift=    0.000
 RMSDP=2.67D-05 MaxDP=2.52D-04 DE=-4.40D-05 OVMax= 1.22D-03

 Cycle   7  Pass 1  IDiag  1:
 E= -114.418511844331     Delta-E=       -0.000009320720 Rises=F Damp=F
 DIIS: error= 9.49D-05 at cycle   7 NSaved=   7.
 NSaved= 7 IEnMin= 7 EnMin= -114.418511844331     IErMin= 7 ErrMin= 9.49D-05
 ErrMax= 9.49D-05  0.00D+00 EMaxC= 1.00D-01 BMatC= 1.67D-07 BMatP= 1.03D-05
 IDIUse=1 WtCom= 1.00D+00 WtEn= 0.00D+00
 Coeff-Com:  0.441D-03-0.378D-03 0.182D-02 0.165D-02 0.136D-02-0.101D+00
 Coeff-Com:  0.110D+01
 Coeff:      0.441D-03-0.378D-03 0.182D-02 0.165D-02 0.136D-02-0.101D+00
 Coeff:      0.110D+01
 Gap=     0.141 Goal=   None    Shift=    0.000
 RMSDP=2.86D-06 MaxDP=3.69D-05 DE=-9.32D-06 OVMax= 1.70D-04

 Cycle   8  Pass 1  IDiag  1:
 E= -114.418511995995     Delta-E=       -0.000000151664 Rises=F Damp=F
 DIIS: error= 1.71D-05 at cycle   8 NSaved=   8.
 NSaved= 8 IEnMin= 8 EnMin= -114.418511995995     IErMin= 8 ErrMin= 1.71D-05
 ErrMax= 1.71D-05  0.00D+00 EMaxC= 1.00D-01 BMatC= 4.82D-09 BMatP= 1.67D-07
 IDIUse=1 WtCom= 1.00D+00 WtEn= 0.00D+00
 Coeff-Com: -0.302D-04 0.500D-04 0.342D-05 0.867D-03 0.235D-02-0.440D-01
 Coeff-Com:  0.683D-01 0.972D+00
 Coeff:     -0.302D-04 0.500D-04 0.342D-05 0.867D-03 0.235D-02-0.440D-01
 Coeff:      0.683D-01 0.972D+00
 Gap=     0.141 Goal=   None    Shift=    0.000
 RMSDP=7.91D-07 MaxDP=1.01D-05 DE=-1.52D-07 OVMax= 4.67D-05

 Cycle   9  Pass 1  IDiag  1:
 E= -114.418512000508     Delta-E=       -0.000000004513 Rises=F Damp=F
 DIIS: error= 3.10D-06 at cycle   9 NSaved=   9.
 NSaved= 9 IEnMin= 9 EnMin= -114.418512000508     IErMin= 9 ErrMin= 3.10D-06
 ErrMax= 3.10D-06  0.00D+00 EMaxC= 1.00D-01 BMatC= 1.88D-10 BMatP= 4.82D-09
 IDIUse=1 WtCom= 1.00D+00 WtEn= 0.00D+00
 Coeff-Com: -0.290D-05 0.387D-07 0.288D-05 0.465D-04 0.162D-03 0.362D-02
 Coeff-Com: -0.145D-01 0.630D-01 0.948D+00
 Coeff:     -0.290D-05 0.387D-07 0.288D-05 0.465D-04 0.162D-03 0.362D-02
 Coeff:     -0.145D-01 0.630D-01 0.948D+00
 Gap=     0.141 Goal=   None    Shift=    0.000
 RMSDP=1.33D-07 MaxDP=1.06D-06 DE=-4.51D-09 OVMax= 5.17D-06

 Cycle  10  Pass 1  IDiag  1:
 E= -114.418512000679     Delta-E=       -0.000000000171 Rises=F Damp=F
 DIIS: error= 1.95D-07 at cycle  10 NSaved=  10.
 NSaved=10 IEnMin=10 EnMin= -114.418512000679     IErMin=10 ErrMin= 1.95D-07
 ErrMax= 1.95D-07  0.00D+00 EMaxC= 1.00D-01 BMatC= 8.42D-13 BMatP= 1.88D-10
 IDIUse=1 WtCom= 1.00D+00 WtEn= 0.00D+00
 Coeff-Com:  0.112D-06-0.505D-06 0.479D-05 0.531D-05 0.121D-04 0.686D-03
 Coeff-Com: -0.799D-03-0.881D-03 0.799D-01 0.921D+00
 Coeff:      0.112D-06-0.505D-06 0.479D-05 0.531D-05 0.121D-04 0.686D-03
 Coeff:     -0.799D-03-0.881D-03 0.799D-01 0.921D+00
 Gap=     0.141 Goal=   None    Shift=    0.000
 RMSDP=9.29D-09 MaxDP=8.97D-08 DE=-1.71D-10 OVMax= 3.35D-07

 SCF Done:  E(RB3LYP) =  -114.418512001     A.U. after   10 cycles
            NFock= 10  Conv=0.93D-08     -V/T= 2.0092
 KE= 1.133755594967D+02 PE=-3.188246447390D+02 EE= 6.586867294656D+01
 Leave Link  502 at Fri Sep 17 10:52:37 2021, MaxMem=   268435456 cpu:               2.3 elap:               2.4
 (Enter /software/gaussian/g16-a03/l801.exe)
 DoSCS=F DFT=T ScalE2(SS,OS)=  1.000000  1.000000
 ExpMin= 4.38D-02 ExpMax= 8.59D+03 ExpMxC= 1.30D+03 IAcc=3 IRadAn=         5 AccDes= 0.00D+00
 HarFok:  IExCor=  205 AccDes= 0.00D+00 IRadAn=         5 IDoV=-2 UseB2=F ITyADJ=14
 ICtDFT= 12500011 ScaDFX=  1.000000  1.000000  1.000000  1.000000
 Largest valence mixing into a core orbital is  5.37D-05
 Largest core mixing into a valence orbital is  1.25D-05
 Range of M.O.s used for correlation:     3    56
 NBasis=    56 NAE=     8 NBE=     8 NFC=     2 NFV=     0
 NROrb=     54 NOA=     6 NOB=     6 NVA=    48 NVB=    48
 Leave Link  801 at Fri Sep 17 10:52:38 2021, MaxMem=   268435456 cpu:               0.2 elap:               0.2
 (Enter /software/gaussian/g16-a03/l914.exe)
 RHF ground state
 Keep R1, R2, and R3 ints in memory in symmetry-blocked form, NReq=6042848.
 FoFCou: FMM=F IPFlag=           0 FMFlag=           0 FMFlg1=           0
         NFxFlg=           0 DoJE=F BraDBF=F KetDBF=F FulRan=T
         wScrn=  0.000000 ICntrl=       600 IOpCl=  0 I1Cent=           0 NGrid=           0
         NMat0=    1 NMatS0=   1596 NMatT0=    0 NMatD0=    1 NMtDS0=    0 NMtDT0=    0
 Petite list used in FoFCou.
 MDV=   268435456 DFT=T DoStab=F Mixed=T DoRPA=T DoScal=F NonHer=T
 Making orbital integer symmetry assigments:
 Orbital symmetries:
       Occupied  (A1) (A1) (A1) (A1) (B2) (A1) (B1) (B2)
       Virtual   (B1) (A1) (A1) (B2) (B1) (A1) (A1) (B2) (A1) (B1)
                 (B2) (A1) (A1) (B2) (B1) (A1) (B2) (A1) (A2) (B1)
                 (A1) (B2) (B1) (A1) (B2) (A1) (A1) (B2) (B1) (A2)
                 (A1) (B2) (A1) (B2) (A1) (B1) (A1) (A2) (A1) (B1)
                 (B2) (B2) (A1) (B1) (B2) (A1) (A1) (A1)
   120 initial guesses have been made.
 Convergence on wavefunction:    0.001000000000000
 Davidson Disk Diagonalization:  ConvIn= 1.00D-03 SkipCon=T Conv= 1.00D-03.
 Max sub-space:  1728 roots to seek:   120 dimension of matrix:          576
 Iteration     1 Dimension   120 NMult     0 NNew    120
 CISAX will form   120 AO SS matrices at one time.
 NMat=   120 NSing=   120 JSym2X=-1.
 New state      5 was old state      6
 New state      6 was old state      5
 New state      7 was old state      9
 New state      9 was old state      7
 New state     11 was old state     12
 New state     12 was old state     11
 New state     14 was old state     15
 New state     15 was old state     14
 New state     18 was old state     20
 New state     20 was old state     18
 New state     23 was old state     24
 New state     24 was old state     23
 New state     25 was old state     27
 New state     27 was old state     28
 New state     28 was old state     25
 New state     30 was old state     31
 Excitation Energies [eV] at current iteration:
 Root      1 :     1.901042909061951
 Root      2 :     4.901714011655313
 Root      3 :     5.261016759386952
 Root      4 :     5.862411285938037
 Root      5 :     6.989672519870200
 Root      6 :     7.023834223284391
 Root      7 :     7.444723502461394
 Root      8 :     8.032988403835818
 Root      9 :     8.045900181865864
 Root     10 :     8.602335174522862
 Root     11 :     8.940498836168555
 Root     12 :     9.009414875313574
 Root     13 :     9.627094440306440
 Root     14 :     9.973952462289512
 Root     15 :    10.061780834915830
 Root     16 :    10.221452620789270
 Root     17 :    10.584670046555930
 Root     18 :    11.121471627413860
 Root     19 :    11.345421950476270
 Root     20 :    11.374198873876160
 Root     21 :    11.491067255727280
 Root     22 :    11.617120746076760
 Root     23 :    11.628186845599870
 Root     24 :    11.910104357387890
 Root     25 :    12.204342110292500
 Root     26 :    12.356081741616350
 Root     27 :    12.767437379879410
 Root     28 :    13.013833341453740
 Root     29 :    13.151560063246960
 Root     30 :    13.397917846379220
 Root     31 :    13.832912302699940
 Root     32 :    13.898257271624430
 Root     33 :    13.942353760944210
 Root     34 :    14.155206623401820
 Root     35 :    14.495094150309160
 Root     36 :    14.648163309339270
 Root     37 :    14.780323416457460
 Root     38 :    14.858068994703690
 Root     39 :    15.699254128386760
 Root     40 :    15.937143044077080
 Root     41 :    15.945286383863750
 Root     42 :    16.062510358212570
 Root     43 :    16.298882321045160
 Root     44 :    16.594491718843530
 Root     45 :    17.463847792098170
 Root     46 :    17.532664482387250
 Root     47 :    17.746968944412930
 Root     48 :    17.976319772184430
 Root     49 :    18.095220277942940
 Root     50 :    18.346843941285980
 Root     51 :    18.467725485019710
 Root     52 :    18.624663501864710
 Root     53 :    19.083313619577160
 Root     54 :    19.144205328127590
 Root     55 :    19.176623752722180
 Root     56 :    19.686560777098810
 Root     57 :    20.301488805694890
 Root     58 :    20.377234624838750
 Root     59 :    20.406638719582490
 Root     60 :    20.463121802004550
 Root     61 :    20.963139330084030
 Root     62 :    21.146991748668080
 Root     63 :    21.334940934655910
 Root     64 :    21.533940073202970
 Root     65 :    21.845664181108810
 Root     66 :    22.018022271912920
 Root     67 :    22.096192631506020
 Root     68 :    22.614034831598400
 Root     69 :    23.246683853757670
 Root     70 :    23.261220574206310
 Root     71 :    23.328462765220870
 Root     72 :    23.490031149705590
 Root     73 :    23.826499160681780
 Root     74 :    23.875428394743710
 Root     75 :    24.171772298514040
 Root     76 :    24.542473319806990
 Root     77 :    24.817162345905970
 Root     78 :    25.076522333107760
 Root     79 :    25.221481275549220
 Root     80 :    25.329887552117790
 Root     81 :    25.566110037348020
 Root     82 :    25.701443335215040
 Root     83 :    25.874112500811280
 Root     84 :    26.202736995007680
 Root     85 :    26.530202787585400
 Root     86 :    26.563199612204630
 Root     87 :    26.730923236304620
 Root     88 :    27.567414435459840
 Root     89 :    27.986045779784860
 Root     90 :    28.470233651680380
 Root     91 :    28.736829242202620
 Root     92 :    29.113110905734360
 Root     93 :    29.240278569922930
 Root     94 :    29.808944770222610
 Root     95 :    30.005372483557860
 Root     96 :    30.525579689210870
 Root     97 :    30.869008492712030
 Root     98 :    31.200222701372670
 Root     99 :    32.115091957131570
 Root    100 :    32.857357421573810
 Root    101 :    33.057171391350770
 Root    102 :    33.308062312487070
 Root    103 :    33.536008024057450
 Root    104 :    34.534355183464870
 Root    105 :    34.537811335096280
 Root    106 :    34.699403670158150
 Root    107 :    34.786605478338450
 Root    108 :    35.043532255690640
 Root    109 :    35.968461547487110
 Root    110 :    36.204030522031170
 Root    111 :    36.251007347091490
 Root    112 :    36.610116948312180
 Root    113 :    37.158516039594130
 Root    114 :    37.541141622475930
 Root    115 :    37.986643353302500
 Root    116 :    38.583560429526080
 Root    117 :    38.590796645536140
 Root    118 :    39.010694805135200
 Root    119 :    39.861230937638010
 Root    120 :    43.851393092938370
 Iteration     2 Dimension   180 NMult   120 NNew     60
 CISAX will form    60 AO SS matrices at one time.
 NMat=    60 NSing=    60 JSym2X=-1.
 Root      1 not converged, maximum delta is    0.006695083783014
 Root      2 not converged, maximum delta is    0.005800605783244
 Root      3 not converged, maximum delta is    0.010074186536245
 Root      4 not converged, maximum delta is    0.007831031871959
 Root      5 not converged, maximum delta is    0.007369771504686
 Root      6 not converged, maximum delta is    0.005551766083908
 Root      7 not converged, maximum delta is    0.011226001438505
 Root      8 not converged, maximum delta is    0.004167485535943
 Root      9 not converged, maximum delta is    0.001996581577201
 Root     10 not converged, maximum delta is    0.001931697394050
 Root     11 not converged, maximum delta is    0.003771387267059
 Root     12 not converged, maximum delta is    0.001606749986910
 Root     13 not converged, maximum delta is    0.002921492471641
 Root     14 not converged, maximum delta is    0.003104507385076
 Root     15 not converged, maximum delta is    0.004178843574980
 Root     16 not converged, maximum delta is    0.002734286608850
 Root     17 not converged, maximum delta is    0.005574758126923
 Root     18 not converged, maximum delta is    0.004579899922886
 Root     19 not converged, maximum delta is    0.004201823479339
 Root     20 not converged, maximum delta is    0.008716702624242
 Root     21 not converged, maximum delta is    0.004144070151580
 Root     22 not converged, maximum delta is    0.271710772779739
 Root     23 not converged, maximum delta is    0.256839617278695
 Root     24 not converged, maximum delta is    0.001534419920565
 Root     25 not converged, maximum delta is    0.006878164193318
 Root     26 not converged, maximum delta is    0.006060434915581
 Root     27 not converged, maximum delta is    0.002859432574155
 Root     28 not converged, maximum delta is    0.010942313308483
 Root     29 not converged, maximum delta is    0.011599206939546
 Root     30 not converged, maximum delta is    0.004568400266486
 Excitation Energies [eV] at current iteration:
 Root      1 :     1.892543146397804   Change is   -0.008499762664147
 Root      2 :     4.881997875981937   Change is   -0.019716135673376
 Root      3 :     5.228643660924197   Change is   -0.032373098462755
 Root      4 :     5.831696800488069   Change is   -0.030714485449968
 Root      5 :     6.972400554787005   Change is   -0.017271965083194
 Root      6 :     7.019001786943491   Change is   -0.004832436340900
 Root      7 :     7.429482191407549   Change is   -0.015241311053845
 Root      8 :     8.029765721576304   Change is   -0.003222682259515
 Root      9 :     8.044815512635848   Change is   -0.001084669230017
 Root     10 :     8.601957797703232   Change is   -0.000377376819629
 Root     11 :     8.931283294391383   Change is   -0.009215541777171
 Root     12 :     9.008877552346084   Change is   -0.000537322967490
 Root     13 :     9.624643399574124   Change is   -0.002451040732317
 Root     14 :     9.969852877763469   Change is   -0.004099584526043
 Root     15 :    10.054673027046400   Change is   -0.007107807869424
 Root     16 :    10.219084612340500   Change is   -0.002368008448768
 Root     17 :    10.575775167061610   Change is   -0.008894879494322
 Root     18 :    11.118845852446290   Change is   -0.002625774967569
 Root     19 :    11.343895042864090   Change is   -0.001526907612184
 Root     20 :    11.361036141071550   Change is   -0.013162732804601
 Root     21 :    11.488699672501070   Change is   -0.002367583226211
 Root     22 :    11.594415206329250   Change is   -0.022705539747511
 Root     23 :    11.618178813092080   Change is   -0.010008032507784
 Root     24 :    11.909276330751500   Change is   -0.000828026636385
 Root     25 :    12.200538183876290   Change is   -0.003803926416214
 Root     26 :    12.349662127564410   Change is   -0.006419614051937
 Root     27 :    12.765123269297270   Change is   -0.002314110582145
 Root     28 :    12.999300883120040   Change is   -0.014532458333698
 Root     29 :    13.145939062831130   Change is   -0.005621000415829
 Root     30 :    13.391747630736830   Change is   -0.006170215642384
 Iteration     3 Dimension   240 NMult   180 NNew     60
 CISAX will form    60 AO SS matrices at one time.
 NMat=    60 NSing=    60 JSym2X=-1.
 Root      1 has converged.
 Root      2 has converged.
 Root      3 has converged.
 Root      4 has converged.
 Root      5 has converged.
 Root      6 has converged.
 Root      7 has converged.
 Root      8 has converged.
 Root      9 has converged.
 Root     10 has converged.
 Root     11 has converged.
 Root     12 has converged.
 Root     13 has converged.
 Root     14 has converged.
 Root     15 has converged.
 Root     16 has converged.
 Root     17 has converged.
 Root     18 has converged.
 Root     19 has converged.
 Root     20 has converged.
 Root     21 has converged.
 Root     22 has converged.
 Root     23 has converged.
 Root     24 has converged.
 Root     25 has converged.
 Root     26 has converged.
 Root     27 has converged.
 Root     28 has converged.
 Root     29 has converged.
 Root     30 has converged.
 Excitation Energies [eV] at current iteration:
 Root      1 :     1.892542011108319   Change is   -0.000001135289485
 Root      2 :     4.881980403051001   Change is   -0.000017472930935
 Root      3 :     5.228624636071381   Change is   -0.000019024852816
 Root      4 :     5.831680074998068   Change is   -0.000016725490000
 Root      5 :     6.972393374100294   Change is   -0.000007180686711
 Root      6 :     7.018998960194394   Change is   -0.000002826749098
 Root      7 :     7.429476051845367   Change is   -0.000006139562182
 Root      8 :     8.029764250772013   Change is   -0.000001470804290
 Root      9 :     8.044814450104642   Change is   -0.000001062531206
 Root     10 :     8.601957740678776   Change is   -0.000000057024457
 Root     11 :     8.931274894215306   Change is   -0.000008400176077
 Root     12 :     9.008877231971624   Change is   -0.000000320374459
 Root     13 :     9.624638811868197   Change is   -0.000004587705927
 Root     14 :     9.969849770865091   Change is   -0.000003106898379
 Root     15 :    10.054658728037980   Change is   -0.000014299008425
 Root     16 :    10.219082687137590   Change is   -0.000001925202915
 Root     17 :    10.575759574370390   Change is   -0.000015592691227
 Root     18 :    11.118842785413330   Change is   -0.000003067032958
 Root     19 :    11.343892627394080   Change is   -0.000002415470010
 Root     20 :    11.361000546220460   Change is   -0.000035594851096
 Root     21 :    11.488695929861510   Change is   -0.000003742639556
 Root     22 :    11.594383545315420   Change is   -0.000031661013835
 Root     23 :    11.618170142188020   Change is   -0.000008670904061
 Root     24 :    11.909275838862060   Change is   -0.000000491889448
 Root     25 :    12.200536640332820   Change is   -0.000001543543468
 Root     26 :    12.349654219058220   Change is   -0.000007908506193
 Root     27 :    12.765118952432500   Change is   -0.000004316864767
 Root     28 :    12.999266260585590   Change is   -0.000034622534450
 Root     29 :    13.145930105830830   Change is   -0.000008957000296
 Root     30 :    13.391730204943990   Change is   -0.000017425792842
 Convergence achieved on expansion vectors.
 ***********************************************************************
 Excited states from <AA,BB:AA,BB> singles matrix:
 ***********************************************************************
 
 1PDM for each excited state written to RWF  633
 Ground to excited state transition densities written to RWF  633
 Ground to excited state transition electric dipole moments (Au):
       state          X           Y           Z        Dip. S.      Osc.
         1         0.0000      0.0000     -0.0000      0.0000      0.0000
         2        -0.0000      0.0000      0.7610      0.5791      0.0693
         3         0.1026      0.0000      0.0000      0.0105      0.0013
         4         0.0000     -0.2870     -0.0000      0.0824      0.0118
         5        -0.1869      0.0000     -0.0000      0.0349      0.0060
         6        -0.0000     -0.0964     -0.0000      0.0093      0.0016
         7         0.0000     -0.0000      0.0000      0.0000      0.0000
         8        -0.6820      0.0000     -0.0000      0.4651      0.0915
         9         0.0000     -0.0000     -0.3075      0.0946      0.0186
        10        -0.0000     -0.0000      0.0000      0.0000      0.0000
        11         0.0000     -0.3024     -0.0000      0.0914      0.0200
        12        -0.0000     -0.0000      0.0000      0.0000      0.0000
        13        -0.0000     -0.0000      0.2169      0.0471      0.0111
        14        -0.2126      0.0000      0.0000      0.0452      0.0110
        15        -0.0000      0.0000     -0.8037      0.6460      0.1591
        16        -0.0000     -0.3425     -0.0000      0.1173      0.0294
        17         0.0000      0.0000     -0.3728      0.1389      0.0360
        18        -0.4058      0.0000      0.0000      0.1647      0.0449
        19        -0.0000     -0.3269      0.0000      0.1069      0.0297
        20        -0.0000     -0.0000     -1.0511      1.1048      0.3075
        21        -0.0000      0.0000     -0.0000      0.0000      0.0000
        22         0.0000      0.2226      0.0000      0.0495      0.0141
        23        -0.0000     -0.0043     -0.0000      0.0000      0.0000
        24        -0.1197      0.0000     -0.0000      0.0143      0.0042
        25        -0.0000      0.0000      0.0000      0.0000      0.0000
        26        -0.0000     -0.6556      0.0000      0.4299      0.1301
        27         0.1260      0.0000      0.0000      0.0159      0.0050
        28         0.0000      0.0000      1.0223      1.0452      0.3329
        29        -0.0000      0.0000     -0.3217      0.1035      0.0333
        30        -0.0000      0.0000      0.4027      0.1622      0.0532
 Ground to excited state transition velocity dipole moments (Au):
       state          X           Y           Z        Dip. S.      Osc.
         1        -0.0000     -0.0000      0.0000      0.0000      0.0000
         2         0.0000     -0.0000     -0.1238      0.0153      0.0569
         3        -0.0382     -0.0000     -0.0000      0.0015      0.0051
         4        -0.0000      0.0605     -0.0000      0.0037      0.0114
         5         0.0388     -0.0000      0.0000      0.0015      0.0039
         6         0.0000      0.0211      0.0000      0.0004      0.0012
         7        -0.0000     -0.0000     -0.0000      0.0000      0.0000
         8         0.2035     -0.0000      0.0000      0.0414      0.0936
         9        -0.0000      0.0000      0.0887      0.0079      0.0178
        10         0.0000      0.0000     -0.0000      0.0000      0.0000
        11         0.0000      0.1043      0.0000      0.0109      0.0221
        12         0.0000      0.0000      0.0000      0.0000      0.0000
        13         0.0000      0.0000     -0.0740      0.0055      0.0103
        14         0.0955      0.0000     -0.0000      0.0091      0.0166
        15        -0.0000     -0.0000      0.3017      0.0910      0.1642
        16         0.0000      0.1316     -0.0000      0.0173      0.0308
        17        -0.0000      0.0000      0.1562      0.0244      0.0418
        18         0.1509     -0.0000     -0.0000      0.0228      0.0371
        19        -0.0000      0.1367     -0.0000      0.0187      0.0299
        20         0.0000     -0.0000      0.4412      0.1947      0.3108
        21         0.0000     -0.0000     -0.0000      0.0000      0.0000
        22        -0.0000     -0.0971     -0.0000      0.0094      0.0148
        23         0.0000     -0.0082     -0.0000      0.0001      0.0001
        24         0.0476     -0.0000     -0.0000      0.0023      0.0034
        25        -0.0000     -0.0000     -0.0000      0.0000      0.0000
        26         0.0000      0.2919     -0.0000      0.0852      0.1252
        27        -0.0505     -0.0000     -0.0000      0.0025      0.0036
        28        -0.0000      0.0000     -0.4747      0.2253      0.3144
        29         0.0000      0.0000      0.1445      0.0209      0.0288
        30         0.0000     -0.0000     -0.1906      0.0363      0.0492
 Ground to excited state transition magnetic dipole moments (Au):
       state          X           Y           Z
         1         0.0000     -0.0000      1.0268
         2         0.0000      0.0000      0.0000
         3        -0.0000     -1.7402      0.0000
         4         0.2295     -0.0000      0.0000
         5         0.0000     -0.5411     -0.0000
         6        -0.3975     -0.0000     -0.0000
         7         0.0000      0.0000     -0.9897
         8         0.0000     -0.2253     -0.0000
         9        -0.0000     -0.0000      0.0000
        10         0.0000     -0.0000      0.0062
        11        -0.5710      0.0000     -0.0000
        12        -0.0000      0.0000      0.0267
        13        -0.0000      0.0000      0.0000
        14        -0.0000      0.3810     -0.0000
        15         0.0000     -0.0000     -0.0000
        16         0.4166      0.0000     -0.0000
        17        -0.0000     -0.0000      0.0000
        18        -0.0000      0.2536      0.0000
        19        -0.2233      0.0000      0.0000
        20         0.0000      0.0000      0.0000
        21        -0.0000      0.0000     -0.0570
        22         0.4306     -0.0000      0.0000
        23         0.2367      0.0000     -0.0000
        24        -0.0000      0.1199      0.0000
        25        -0.0000      0.0000     -0.0339
        26         0.9515      0.0000     -0.0000
        27         0.0000      0.0005      0.0000
        28         0.0000      0.0000     -0.0000
        29         0.0000     -0.0000     -0.0000
        30        -0.0000      0.0000      0.0000
 Ground to excited state transition velocity quadrupole moments (Au):
       state          XX          YY          ZZ          XY          XZ          YZ
         1        -0.0000     -0.0000     -0.0000     -0.0360     -0.0000     -0.0000
         2         0.0818     -0.0052     -0.0450     -0.0000     -0.0000     -0.0000
         3         0.0000      0.0000      0.0000      0.0000     -0.1414     -0.0000
         4         0.0000      0.0000      0.0000     -0.0000     -0.0000     -0.0288
         5        -0.0000     -0.0000     -0.0000     -0.0000      0.2230     -0.0000
         6        -0.0000     -0.0000     -0.0000     -0.0000      0.0000      0.3155
         7         0.0000     -0.0000      0.0000      0.1790      0.0000     -0.0000
         8        -0.0000     -0.0000     -0.0000      0.0000     -0.0803      0.0000
         9         0.0327      0.0211     -0.2246     -0.0000     -0.0000      0.0000
        10        -0.0000      0.0000      0.0000      0.0544     -0.0000     -0.0000
        11        -0.0000     -0.0000     -0.0000     -0.0000      0.0000      0.1893
        12         0.0000      0.0000      0.0000      0.2843      0.0000      0.0000
        13         0.8077      0.0443     -0.0652     -0.0000      0.0000      0.0000
        14         0.0000      0.0000     -0.0000     -0.0000      0.3034     -0.0000
        15         0.0937      0.0527     -0.3287      0.0000     -0.0000     -0.0000
        16         0.0000      0.0000     -0.0000     -0.0000      0.0000     -0.1044
        17         0.2684      0.3395      0.5390     -0.0000     -0.0000      0.0000
        18        -0.0000     -0.0000      0.0000      0.0000     -0.0354      0.0000
        19        -0.0000      0.0000      0.0000      0.0000     -0.0000     -0.4686
        20        -0.0423     -0.3961     -0.2058     -0.0000      0.0000     -0.0000
        21         0.0000      0.0000     -0.0000     -0.2662     -0.0000     -0.0000
        22         0.0000      0.0000     -0.0000      0.0000      0.0000      0.5183
        23         0.0000      0.0000     -0.0000     -0.0000     -0.0000      0.5403
        24         0.0000     -0.0000     -0.0000      0.0000     -0.1341      0.0000
        25        -0.0000      0.0000      0.0000      0.3801      0.0000      0.0000
        26        -0.0000      0.0000      0.0000      0.0000     -0.0000     -0.5136
        27        -0.0000      0.0000      0.0000     -0.0000      0.2951      0.0000
        28        -0.2551      0.5877     -0.1640     -0.0000      0.0000      0.0000
        29        -0.2025      0.3874      0.1775     -0.0000     -0.0000      0.0000
        30         0.0244      0.4901      0.3242      0.0000      0.0000      0.0000
 <0|del|b> * <b|rxdel|0> + <0|del|b> * <b|delr+rdel|0>
 Rotatory Strengths (R) in cgs (10**-40 erg-esu-cm/Gauss)
       state          XX          YY          ZZ    R(velocity)    E-M Angle
         1         0.0000      0.0000     -0.0000      0.0000       90.00
         2         0.0000     -0.0000      0.0000     -0.0000       90.00
         3         0.0000      0.0000      0.0000      0.0000       90.00
         4        -0.0000     -0.0000     -0.0000     -0.0000       90.00
         5         0.0000     -0.0000      0.0000      0.0000       90.00
         6        -0.0000     -0.0000     -0.0000     -0.0000       90.00
         7         0.0000      0.0000     -0.0000      0.0000       90.00
         8         0.0000      0.0000     -0.0000      0.0000       90.00
         9        -0.0000      0.0000     -0.0000      0.0000       90.00
        10        -0.0000      0.0000      0.0000     -0.0000       90.00
        11        -0.0000     -0.0000     -0.0000     -0.0000       90.00
        12         0.0000     -0.0000      0.0000      0.0000       90.00
        13         0.0000     -0.0000      0.0000     -0.0000       90.00
        14         0.0000     -0.0000      0.0000      0.0000       90.00
        15         0.0000     -0.0000      0.0000     -0.0000       90.00
        16        -0.0000      0.0000      0.0000      0.0000       90.00
        17        -0.0000      0.0000      0.0000      0.0000       90.00
        18        -0.0000      0.0000     -0.0000     -0.0000       90.00
        19         0.0000      0.0000      0.0000      0.0000       90.00
        20        -0.0000      0.0000     -0.0000      0.0000       90.00
        21         0.0000     -0.0000      0.0000      0.0000       90.00
        22         0.0000     -0.0000      0.0000      0.0000       90.00
        23        -0.0000      0.0000     -0.0000      0.0000       90.00
        24        -0.0000      0.0000     -0.0000     -0.0000       90.00
        25        -0.0000      0.0000      0.0000      0.0000       90.00
        26         0.0000      0.0000      0.0000      0.0000       90.00
        27         0.0000     -0.0000      0.0000     -0.0000       90.00
        28         0.0000     -0.0000      0.0000      0.0000       90.00
        29        -0.0000      0.0000     -0.0000     -0.0000       90.00
        30        -0.0000      0.0000     -0.0000     -0.0000       90.00
 1/2[<0|r|b>*<b|rxdel|0> + (<0|rxdel|b>*<b|r|0>)*]
 Rotatory Strengths (R) in cgs (10**-40 erg-esu-cm/Gauss)
       state          XX          YY          ZZ     R(length)
         1        -0.0000      0.0000      0.0000      0.0000
         2         0.0000     -0.0000     -0.0000     -0.0000
         3         0.0000      0.0000     -0.0000      0.0000
         4        -0.0000     -0.0000      0.0000     -0.0000
         5         0.0000      0.0000     -0.0000      0.0000
         6        -0.0000     -0.0000     -0.0000     -0.0000
         7        -0.0000      0.0000      0.0000      0.0000
         8         0.0000      0.0000     -0.0000      0.0000
         9         0.0000     -0.0000      0.0000      0.0000
        10         0.0000     -0.0000     -0.0000     -0.0000
        11         0.0000      0.0000     -0.0000      0.0000
        12        -0.0000      0.0000     -0.0000     -0.0000
        13        -0.0000      0.0000     -0.0000     -0.0000
        14        -0.0000     -0.0000      0.0000     -0.0000
        15         0.0000      0.0000     -0.0000     -0.0000
        16         0.0000      0.0000     -0.0000      0.0000
        17         0.0000      0.0000      0.0000      0.0000
        18        -0.0000     -0.0000     -0.0000     -0.0000
        19        -0.0000      0.0000     -0.0000      0.0000
        20         0.0000      0.0000      0.0000      0.0000
        21        -0.0000     -0.0000     -0.0000     -0.0000
        22        -0.0000      0.0000     -0.0000     -0.0000
        23         0.0000      0.0000     -0.0000      0.0000
        24        -0.0000     -0.0000      0.0000     -0.0000
        25        -0.0000     -0.0000      0.0000      0.0000
        26         0.0000      0.0000      0.0000      0.0000
        27        -0.0000     -0.0000     -0.0000     -0.0000
        28        -0.0000     -0.0000      0.0000      0.0000
        29         0.0000      0.0000     -0.0000     -0.0000
        30        -0.0000     -0.0000     -0.0000     -0.0000
  1/2[<0|del|b>*<b|r|0> + (<0|r|b>*<b|del|0>)*] (Au)
       state          X           Y           Z        Dip. S.   Osc.(frdel)
         1        -0.0000     -0.0000     -0.0000      0.0000      0.0000
         2        -0.0000     -0.0000     -0.0942      0.0942      0.0628
         3        -0.0039     -0.0000     -0.0000      0.0039      0.0026
         4        -0.0000     -0.0174      0.0000      0.0174      0.0116
         5        -0.0073     -0.0000     -0.0000      0.0073      0.0048
         6        -0.0000     -0.0020     -0.0000      0.0020      0.0014
         7        -0.0000      0.0000     -0.0000      0.0000      0.0000
         8        -0.1388     -0.0000     -0.0000      0.1388      0.0925
         9        -0.0000     -0.0000     -0.0273      0.0273      0.0182
        10        -0.0000     -0.0000     -0.0000      0.0000      0.0000
        11         0.0000     -0.0315     -0.0000      0.0315      0.0210
        12        -0.0000     -0.0000      0.0000      0.0000      0.0000
        13        -0.0000     -0.0000     -0.0160      0.0160      0.0107
        14        -0.0203      0.0000     -0.0000      0.0203      0.0135
        15         0.0000     -0.0000     -0.2425      0.2425      0.1617
        16        -0.0000     -0.0451      0.0000      0.0451      0.0301
        17        -0.0000      0.0000     -0.0582      0.0582      0.0388
        18        -0.0612     -0.0000     -0.0000      0.0612      0.0408
        19         0.0000     -0.0447     -0.0000      0.0447      0.0298
        20        -0.0000      0.0000     -0.4637      0.4637      0.3092
        21        -0.0000     -0.0000      0.0000      0.0000      0.0000
        22        -0.0000     -0.0216     -0.0000      0.0216      0.0144
        23        -0.0000      0.0000      0.0000     -0.0000     -0.0000
        24        -0.0057     -0.0000      0.0000      0.0057      0.0038
        25         0.0000     -0.0000     -0.0000      0.0000      0.0000
        26        -0.0000     -0.1914     -0.0000      0.1914      0.1276
        27        -0.0064     -0.0000     -0.0000      0.0064      0.0042
        28        -0.0000      0.0000     -0.4853      0.4853      0.3235
        29        -0.0000      0.0000     -0.0465      0.0465      0.0310
        30        -0.0000     -0.0000     -0.0768      0.0768      0.0512

 Excitation energies and oscillator strengths:
 
 Excited State   1:      Singlet-A2     1.8925 eV  655.12 nm  f=0.0000  <S**2>=0.000
       3 -> 27         0.00112
       3 -> 38         0.00081
       3 -> 46         0.00331
       4 -> 27         0.00066
       4 -> 38        -0.00012
       4 -> 46        -0.00126
       5 ->  9         0.00661
       5 -> 13         0.00098
       5 -> 18         0.00273
       5 -> 23         0.00161
       5 -> 28         0.00235
       5 -> 31        -0.00014
       5 -> 37         0.00129
       5 -> 44         0.00032
       5 -> 52         0.00032
       6 -> 27        -0.00063
       6 -> 38        -0.00075
       6 -> 46         0.00129
       7 -> 12        -0.00095
       7 -> 16         0.00483
       7 -> 19        -0.00411
       7 -> 22        -0.00084
       7 -> 25         0.00090
       7 -> 30        -0.00158
       7 -> 33         0.00035
       7 -> 49         0.00012
       7 -> 50         0.00015
       7 -> 53         0.00044
       8 ->  9         0.70874
       8 -> 13        -0.01231
       8 -> 18         0.02155
       8 -> 23        -0.00308
       8 -> 28         0.01099
       8 -> 31         0.00117
       8 -> 37         0.00062
       8 -> 48        -0.00031
       8 -> 52         0.00193
       3 <- 27         0.00050
       3 <- 38         0.00055
       3 <- 46         0.00336
       4 <- 27         0.00115
       4 <- 38         0.00023
       4 <- 46        -0.00102
       5 <-  9        -0.00018
       5 <- 13        -0.00050
       5 <- 18        -0.00064
       5 <- 23         0.00026
       5 <- 28        -0.00045
       5 <- 31         0.00033
       5 <- 37         0.00073
       5 <- 44         0.00011
       6 <- 38        -0.00061
       6 <- 46         0.00099
       7 <- 12         0.00078
       7 <- 16        -0.01015
       7 <- 19         0.00396
       7 <- 22         0.00680
       7 <- 25         0.00055
       7 <- 30         0.00532
       7 <- 33        -0.00049
       7 <- 36         0.00072
       7 <- 40        -0.00044
       7 <- 42         0.00015
       7 <- 49        -0.00041
       7 <- 53         0.00146
       8 <-  9        -0.05411
       8 <- 13         0.00036
       8 <- 18        -0.00674
       8 <- 28        -0.00243
       8 <- 31        -0.00065
       8 <- 37        -0.00042
       8 <- 52         0.00050
 This state for optimization and/or second-order correction.
 Total Energy, E(TD-HF/TD-DFT) =  -114.348962361    
 Copying the excited state density for this state as the 1-particle RhoCI density.
 
 Excited State   2:      Singlet-A1     4.8820 eV  253.96 nm  f=0.0693  <S**2>=0.000
       3 -> 10        -0.01679
       3 -> 11        -0.01222
       3 -> 14         0.01003
       3 -> 15         0.00505
       3 -> 17        -0.00348
       3 -> 20        -0.00395
       3 -> 21        -0.00092
       3 -> 24         0.00223
       3 -> 26         0.00363
       3 -> 29        -0.00123
       3 -> 32         0.00277
       3 -> 34         0.00224
       3 -> 35        -0.00111
       3 -> 39         0.00078
       3 -> 43         0.00045
       3 -> 45         0.00018
       3 -> 47         0.00227
       3 -> 51         0.00110
       3 -> 54         0.00016
       4 -> 10        -0.01030
       4 -> 11         0.01279
       4 -> 14         0.00517
       4 -> 15        -0.00976
       4 -> 17         0.00305
       4 -> 20         0.00489
       4 -> 21         0.00041
       4 -> 24        -0.00490
       4 -> 26         0.00489
       4 -> 29         0.00106
       4 -> 32        -0.00134
       4 -> 34        -0.00160
       4 -> 35         0.00042
       4 -> 41         0.00013
       4 -> 43        -0.00047
       4 -> 45        -0.00081
       4 -> 47        -0.00118
       4 -> 51        -0.00032
       4 -> 54         0.00011
       5 -> 12         0.01637
       5 -> 16         0.00994
       5 -> 19         0.00147
       5 -> 22         0.00746
       5 -> 25         0.00787
       5 -> 30        -0.00015
       5 -> 33        -0.00300
       5 -> 36         0.00276
       5 -> 40        -0.00145
       5 -> 42         0.00066
       5 -> 49         0.00043
       5 -> 50        -0.00070
       5 -> 53        -0.00013
       6 -> 10         0.15968
       6 -> 11         0.10052
       6 -> 14        -0.09285
       6 -> 15        -0.05869
       6 -> 17        -0.01974
       6 -> 20        -0.00986
       6 -> 21         0.01273
       6 -> 24        -0.01339
       6 -> 26        -0.00641
       6 -> 29        -0.00773
       6 -> 32         0.00103
       6 -> 34         0.00144
       6 -> 35        -0.00059
       6 -> 39         0.00089
       6 -> 41        -0.00038
       6 -> 43         0.00083
       6 -> 45         0.00081
       6 -> 47         0.00120
       6 -> 51         0.00081
       6 -> 54        -0.00071
       7 ->  9         0.68342
       7 -> 13        -0.00026
       7 -> 18        -0.01755
       7 -> 23        -0.00026
       7 -> 28        -0.00109
       7 -> 31        -0.00306
       7 -> 37         0.00095
       7 -> 44        -0.00105
       7 -> 48         0.00037
       7 -> 52         0.00105
       8 -> 12        -0.00753
       8 -> 16         0.06581
       8 -> 19        -0.02375
       8 -> 22        -0.02498
       8 -> 25         0.00052
       8 -> 30        -0.01164
       8 -> 33         0.00209
       8 -> 36        -0.00245
       8 -> 40         0.00119
       8 -> 42        -0.00035
       8 -> 49         0.00054
       8 -> 50         0.00022
       8 -> 53        -0.00069
       3 <- 10        -0.01147
       3 <- 11        -0.00879
       3 <- 14         0.00752
       3 <- 15         0.00332
       3 <- 17        -0.00181
       3 <- 20        -0.00291
       3 <- 21        -0.00126
       3 <- 24         0.00135
       3 <- 26         0.00213
       3 <- 29        -0.00074
       3 <- 32         0.00252
       3 <- 34         0.00142
       3 <- 35        -0.00095
       3 <- 39         0.00070
       3 <- 43         0.00055
       3 <- 45         0.00038
       3 <- 47         0.00236
       3 <- 51         0.00108
       3 <- 54         0.00027
       4 <- 10        -0.00500
       4 <- 11         0.00815
       4 <- 14         0.00270
       4 <- 15        -0.00588
       4 <- 17         0.00157
       4 <- 20         0.00424
       4 <- 21         0.00029
       4 <- 24        -0.00338
       4 <- 26         0.00390
       4 <- 29         0.00027
       4 <- 32        -0.00164
       4 <- 34        -0.00140
       4 <- 35         0.00066
       4 <- 39        -0.00012
       4 <- 43        -0.00045
       4 <- 45        -0.00090
       4 <- 47        -0.00079
       4 <- 51        -0.00017
       5 <- 12         0.00758
       5 <- 16         0.00522
       5 <- 19         0.00103
       5 <- 22         0.00469
       5 <- 25         0.00543
       5 <- 33        -0.00234
       5 <- 36         0.00226
       5 <- 40        -0.00127
       5 <- 42         0.00055
       5 <- 49         0.00039
       5 <- 50        -0.00064
       5 <- 53        -0.00012
       6 <- 10         0.04827
       6 <- 11         0.03269
       6 <- 14        -0.03699
       6 <- 15        -0.02553
       6 <- 17        -0.00979
       6 <- 20        -0.00646
       6 <- 21         0.00751
       6 <- 24        -0.00821
       6 <- 26        -0.00374
       6 <- 29        -0.00532
       6 <- 32         0.00147
       6 <- 34         0.00175
       6 <- 35        -0.00083
       6 <- 39         0.00094
       6 <- 41        -0.00027
       6 <- 43         0.00070
       6 <- 45         0.00072
       6 <- 47         0.00074
       6 <- 51         0.00064
       6 <- 54        -0.00060
       7 <-  9        -0.12538
       7 <- 13         0.00703
       7 <- 18        -0.01365
       7 <- 23         0.00322
       7 <- 28        -0.00365
       7 <- 31        -0.00143
       7 <- 37         0.00036
       7 <- 44        -0.00064
       7 <- 48        -0.00020
       7 <- 52         0.00092
       8 <- 12        -0.00187
       8 <- 16         0.02413
       8 <- 19        -0.01052
       8 <- 22        -0.01382
       8 <- 30        -0.00850
       8 <- 33         0.00157
       8 <- 36        -0.00188
       8 <- 40         0.00096
       8 <- 42        -0.00028
       8 <- 49         0.00036
       8 <- 50         0.00018
       8 <- 53        -0.00063
 
 Excited State   3:      Singlet-B1     5.2286 eV  237.13 nm  f=0.0013  <S**2>=0.000
       3 ->  9        -0.02831
       3 -> 13         0.00162
       3 -> 18        -0.00455
       3 -> 23         0.00172
       3 -> 28        -0.00090
       3 -> 31        -0.00048
       3 -> 44         0.00023
       3 -> 48         0.00098
       3 -> 52         0.00094
       4 ->  9         0.01328
       4 -> 13        -0.00265
       4 -> 18         0.00023
       4 -> 23        -0.00239
       4 -> 28         0.00025
       4 -> 31        -0.00151
       4 -> 37        -0.00040
       4 -> 44         0.00013
       4 -> 48        -0.00106
       4 -> 52        -0.00056
       5 -> 38         0.00201
       5 -> 46         0.00086
       6 ->  9         0.70463
       6 -> 13        -0.01979
       6 -> 18         0.01654
       6 -> 23        -0.01089
       6 -> 28         0.00416
       6 -> 31         0.00319
       6 -> 37        -0.00213
       6 -> 44        -0.00276
       6 -> 48         0.00408
       6 -> 52         0.00141
       7 -> 10         0.04761
       7 -> 11         0.02626
       7 -> 14        -0.01852
       7 -> 15        -0.00668
       7 -> 17        -0.00907
       7 -> 20         0.00302
       7 -> 21         0.00030
       7 -> 24        -0.00071
       7 -> 26        -0.00161
       7 -> 29        -0.00388
       7 -> 32        -0.00054
       7 -> 34         0.00081
       7 -> 35         0.00176
       7 -> 39         0.00015
       7 -> 41        -0.00051
       7 -> 43         0.00054
       7 -> 45        -0.00026
       7 -> 47         0.00418
       7 -> 51         0.00118
       7 -> 54         0.00038
       8 -> 27         0.00045
       8 -> 46         0.00523
       3 <-  9        -0.00951
       3 <- 13        -0.00067
       3 <- 18        -0.00286
       3 <- 23        -0.00057
       3 <- 28        -0.00057
       3 <- 31        -0.00068
       3 <- 44        -0.00024
       3 <- 48         0.00115
       3 <- 52         0.00076
       4 <-  9         0.00674
       4 <- 13        -0.00030
       4 <- 18         0.00189
       4 <- 23        -0.00064
       4 <- 28         0.00160
       4 <- 31        -0.00101
       4 <- 37        -0.00022
       4 <- 48        -0.00091
       4 <- 52        -0.00032
       5 <- 27        -0.00060
       5 <- 38         0.00164
       5 <- 46         0.00076
       6 <-  9        -0.02602
       6 <- 13         0.00171
       6 <- 18        -0.00334
       6 <- 23        -0.00027
       6 <- 28        -0.00342
       6 <- 31         0.00115
       6 <- 37        -0.00184
       6 <- 44        -0.00145
       6 <- 48         0.00365
       6 <- 52         0.00046
       7 <- 10        -0.01872
       7 <- 11        -0.01256
       7 <- 14         0.01505
       7 <- 15         0.01192
       7 <- 17         0.00163
       7 <- 20         0.00485
       7 <- 21        -0.00421
       7 <- 24         0.00445
       7 <- 26         0.00173
       7 <- 29         0.00119
       7 <- 34         0.00082
       7 <- 35         0.00259
       7 <- 39         0.00046
       7 <- 41        -0.00016
       7 <- 43         0.00039
       7 <- 45        -0.00040
       7 <- 47         0.00383
       7 <- 51         0.00108
       7 <- 54         0.00106
       8 <- 27         0.00092
       8 <- 38         0.00026
       8 <- 46         0.00488
 
 Excited State   4:      Singlet-B2     5.8317 eV  212.60 nm  f=0.0118  <S**2>=0.000
       3 -> 12        -0.00153
       3 -> 16         0.00200
       3 -> 19        -0.00459
       3 -> 22         0.00056
       3 -> 25         0.00049
       3 -> 30        -0.00339
       3 -> 33        -0.00022
       3 -> 36         0.00216
       3 -> 40        -0.00180
       3 -> 42         0.00026
       3 -> 49        -0.00284
       3 -> 50         0.00022
       3 -> 53         0.00030
       4 -> 12         0.00044
       4 -> 16        -0.00262
       4 -> 19         0.00020
       4 -> 22         0.00299
       4 -> 25        -0.00179
       4 -> 30         0.00146
       4 -> 33        -0.00048
       4 -> 36         0.00054
       4 -> 40         0.00050
       4 -> 49         0.00047
       4 -> 50        -0.00012
       5 -> 10         0.00799
       5 -> 11         0.00548
       5 -> 14        -0.01127
       5 -> 15         0.00388
       5 -> 17         0.00044
       5 -> 20         0.00213
       5 -> 21         0.00592
       5 -> 24         0.00187
       5 -> 26        -0.00168
       5 -> 29        -0.00200
       5 -> 32        -0.00173
       5 -> 34        -0.00116
       5 -> 35        -0.00041
       5 -> 39        -0.00103
       5 -> 41         0.00071
       5 -> 45         0.00016
       5 -> 47        -0.00082
       5 -> 51         0.00049
       5 -> 54        -0.00024
       6 -> 12         0.00317
       6 -> 16        -0.00181
       6 -> 19         0.00320
       6 -> 22        -0.00022
       6 -> 25        -0.00086
       6 -> 30        -0.00051
       6 -> 33         0.00029
       6 -> 36        -0.00209
       6 -> 40         0.00171
       6 -> 42        -0.00043
       6 -> 49         0.00164
       6 -> 53        -0.00037
       7 -> 27        -0.00068
       7 -> 38         0.00081
       7 -> 46         0.00374
       8 -> 10         0.64838
       8 -> 11         0.24712
       8 -> 14        -0.12300
       8 -> 15        -0.05755
       8 -> 17        -0.01419
       8 -> 20        -0.00085
       8 -> 21         0.00718
       8 -> 24        -0.00676
       8 -> 26        -0.00562
       8 -> 29        -0.01029
       8 -> 32        -0.00319
       8 -> 34        -0.00195
       8 -> 35        -0.00023
       8 -> 39        -0.00067
       8 -> 41         0.00020
       8 -> 43        -0.00038
       8 -> 45         0.00168
       8 -> 47        -0.00445
       8 -> 51         0.00221
       8 -> 54        -0.00175
       3 <- 12        -0.00055
       3 <- 16         0.00055
       3 <- 19        -0.00216
       3 <- 22         0.00091
       3 <- 25         0.00046
       3 <- 30        -0.00135
       3 <- 33        -0.00019
       3 <- 36         0.00165
       3 <- 40        -0.00160
       3 <- 42         0.00022
       3 <- 49        -0.00292
       3 <- 50         0.00019
       3 <- 53         0.00085
       4 <- 12        -0.00015
       4 <- 16        -0.00231
       4 <- 19        -0.00013
       4 <- 22         0.00273
       4 <- 25        -0.00111
       4 <- 30         0.00131
       4 <- 33        -0.00055
       4 <- 36         0.00075
       4 <- 40         0.00017
       4 <- 42         0.00011
       4 <- 49         0.00035
       5 <- 11        -0.00156
       5 <- 14        -0.00145
       5 <- 15         0.00383
       5 <- 17         0.00022
       5 <- 20         0.00059
       5 <- 21         0.00211
       5 <- 24         0.00249
       5 <- 26        -0.00049
       5 <- 29        -0.00049
       5 <- 34        -0.00027
       5 <- 39        -0.00036
       5 <- 41         0.00072
       5 <- 43         0.00011
       5 <- 45         0.00045
       5 <- 47        -0.00069
       5 <- 51         0.00026
       6 <- 16         0.00570
       6 <- 19        -0.00257
       6 <- 22        -0.00413
       6 <- 25        -0.00057
       6 <- 30        -0.00486
       6 <- 33         0.00058
       6 <- 36        -0.00208
       6 <- 40         0.00172
       6 <- 42        -0.00050
       6 <- 49         0.00180
       6 <- 53        -0.00109
       7 <- 27        -0.00066
       7 <- 38         0.00063
       7 <- 46         0.00310
       8 <- 10        -0.01703
       8 <- 11        -0.01194
       8 <- 14         0.01166
       8 <- 15         0.00427
       8 <- 17         0.00044
       8 <- 20        -0.00252
       8 <- 21        -0.00228
       8 <- 24         0.00141
       8 <- 26         0.00196
       8 <- 29        -0.00076
       8 <- 32         0.00252
       8 <- 34         0.00137
       8 <- 35        -0.00030
       8 <- 39         0.00150
       8 <- 41         0.00054
       8 <- 43         0.00035
       8 <- 45         0.00233
       8 <- 47        -0.00334
       8 <- 51         0.00137
       8 <- 54        -0.00044
 
 Excited State   5:      Singlet-B1     6.9724 eV  177.82 nm  f=0.0060  <S**2>=0.000
       3 ->  9        -0.01542
       3 -> 13         0.00098
       3 -> 18        -0.00310
       3 -> 23         0.00114
       3 -> 28        -0.00345
       3 -> 31        -0.00148
       3 -> 44         0.00052
       3 -> 48        -0.00197
       4 ->  9        -0.03621
       4 -> 13         0.00636
       4 -> 18         0.00162
       4 -> 23         0.00464
       4 -> 28         0.00218
       4 -> 31        -0.00038
       4 -> 37         0.00039
       4 -> 44        -0.00042
       4 -> 48         0.00045
       5 -> 27        -0.00743
       5 -> 38        -0.00299
       5 -> 46         0.00063
       6 ->  9        -0.05460
       6 -> 13        -0.00426
       6 -> 18         0.00234
       6 -> 23        -0.00155
       6 -> 28         0.00319
       6 -> 31        -0.00355
       6 -> 37         0.00173
       6 -> 44        -0.00018
       6 -> 48         0.00109
       6 -> 52        -0.00043
       7 -> 10         0.66217
       7 -> 11         0.20654
       7 -> 14        -0.10742
       7 -> 15        -0.05728
       7 -> 17        -0.00869
       7 -> 20        -0.00576
       7 -> 21         0.00288
       7 -> 24        -0.00869
       7 -> 26        -0.00787
       7 -> 29        -0.00617
       7 -> 32        -0.00106
       7 -> 34        -0.00376
       7 -> 35        -0.00221
       7 -> 39        -0.00069
       7 -> 43         0.00051
       7 -> 45         0.00065
       7 -> 47         0.00217
       7 -> 51         0.00111
       7 -> 54        -0.00115
       8 -> 27         0.00137
       8 -> 38         0.00038
       8 -> 46         0.00248
       3 <-  9        -0.00317
       3 <- 13         0.00067
       3 <- 18        -0.00126
       3 <- 23         0.00067
       3 <- 28        -0.00207
       3 <- 31        -0.00027
       3 <- 37        -0.00022
       3 <- 44         0.00023
       3 <- 48        -0.00217
       3 <- 52         0.00043
       4 <-  9        -0.00981
       4 <- 13         0.00215
       4 <- 18         0.00057
       4 <- 23         0.00206
       4 <- 28         0.00187
       4 <- 31        -0.00049
       4 <- 37         0.00046
       4 <- 44        -0.00067
       5 <- 27        -0.00474
       5 <- 38        -0.00222
       5 <- 46         0.00055
       6 <-  9        -0.02116
       6 <- 13        -0.00017
       6 <- 18        -0.00335
       6 <- 28        -0.00064
       6 <- 31        -0.00376
       6 <- 37         0.00139
       6 <- 48         0.00132
       6 <- 52        -0.00094
       7 <- 10        -0.01332
       7 <- 11        -0.00922
       7 <- 14         0.00960
       7 <- 15         0.00082
       7 <- 17         0.00097
       7 <- 20        -0.00279
       7 <- 21        -0.00241
       7 <- 24        -0.00087
       7 <- 26         0.00079
       7 <- 32         0.00184
       7 <- 34        -0.00124
       7 <- 35        -0.00190
       7 <- 39         0.00044
       7 <- 41         0.00019
       7 <- 43         0.00064
       7 <- 45         0.00067
       7 <- 47         0.00170
       7 <- 51         0.00052
       7 <- 54        -0.00044
       8 <- 27         0.00084
       8 <- 38         0.00018
       8 <- 46         0.00181
 
 Excited State   6:      Singlet-B2     7.0190 eV  176.64 nm  f=0.0016  <S**2>=0.000
       3 -> 12         0.00155
       3 -> 16         0.00131
       3 -> 19        -0.00061
       3 -> 22        -0.00034
       3 -> 25         0.00089
       3 -> 30        -0.00207
       3 -> 33         0.00014
       3 -> 36         0.00034
       3 -> 40        -0.00033
       3 -> 49        -0.00054
       4 -> 12        -0.00115
       4 -> 16         0.00081
       4 -> 19         0.00094
       4 -> 22        -0.00110
       4 -> 25         0.00085
       4 -> 30         0.00107
       4 -> 36         0.00025
       4 -> 50        -0.00010
       5 -> 10         0.00575
       5 -> 11        -0.00511
       5 -> 14         0.00380
       5 -> 15         0.00481
       5 -> 17         0.00064
       5 -> 20         0.00138
       5 -> 21        -0.00028
       5 -> 24        -0.00047
       5 -> 26        -0.00020
       5 -> 29        -0.00032
       5 -> 32        -0.00139
       5 -> 34         0.00044
       5 -> 35        -0.00029
       5 -> 39        -0.00048
       5 -> 41        -0.00021
       5 -> 43        -0.00029
       5 -> 45         0.00026
       5 -> 47        -0.00029
       5 -> 51         0.00021
       6 -> 12        -0.00216
       6 -> 16        -0.00050
       6 -> 22        -0.00079
       6 -> 25         0.00014
       6 -> 30        -0.00065
       6 -> 36         0.00012
       6 -> 40         0.00038
       6 -> 42        -0.00017
       6 -> 49         0.00106
       7 -> 27        -0.00057
       7 -> 38        -0.00030
       7 -> 46         0.00142
       8 -> 10        -0.25262
       8 -> 11         0.65952
       8 -> 14         0.00653
       8 -> 15        -0.02897
       8 -> 17        -0.00460
       8 -> 20         0.01448
       8 -> 21         0.00357
       8 -> 24        -0.00307
       8 -> 26         0.00192
       8 -> 29        -0.00228
       8 -> 32        -0.00051
       8 -> 34        -0.00067
       8 -> 35        -0.00055
       8 -> 39         0.00013
       8 -> 41        -0.00011
       8 -> 43         0.00029
       8 -> 45         0.00095
       8 -> 47        -0.00168
       8 -> 51         0.00079
       8 -> 54        -0.00028
       3 <- 16         0.00066
       3 <- 19        -0.00053
       3 <- 22        -0.00033
       3 <- 25         0.00038
       3 <- 30        -0.00109
       3 <- 36         0.00025
       3 <- 40        -0.00028
       3 <- 49        -0.00053
       3 <- 53         0.00022
       4 <- 12         0.00052
       4 <- 16         0.00067
       4 <- 19         0.00093
       4 <- 22        -0.00055
       4 <- 25         0.00064
       4 <- 30         0.00074
       4 <- 36         0.00016
       4 <- 42        -0.00013
       4 <- 50        -0.00014
       5 <- 10        -0.00170
       5 <- 11        -0.00062
       5 <- 14         0.00133
       5 <- 15         0.00019
       5 <- 20         0.00023
       5 <- 21         0.00031
       5 <- 24        -0.00075
       5 <- 26         0.00050
       5 <- 29        -0.00017
       5 <- 32        -0.00048
       5 <- 34         0.00064
       5 <- 39        -0.00020
       5 <- 43        -0.00019
       5 <- 45         0.00028
       5 <- 47        -0.00031
       5 <- 51         0.00016
       6 <- 12        -0.00036
       6 <- 16         0.00095
       6 <- 19        -0.00051
       6 <- 22        -0.00089
       6 <- 30        -0.00109
       6 <- 40         0.00041
       6 <- 42        -0.00019
       6 <- 49         0.00095
       6 <- 53        -0.00016
       7 <- 27        -0.00043
       7 <- 38        -0.00021
       7 <- 46         0.00121
       8 <- 10        -0.00378
       8 <- 11        -0.00330
       8 <- 14         0.00217
       8 <- 15         0.00161
       8 <- 17        -0.00100
       8 <- 20        -0.00235
       8 <- 24         0.00082
       8 <- 26         0.00029
       8 <- 29        -0.00072
       8 <- 32         0.00156
       8 <- 34         0.00085
       8 <- 35        -0.00098
       8 <- 39         0.00060
       8 <- 41         0.00022
       8 <- 43         0.00022
       8 <- 45         0.00084
       8 <- 47        -0.00129
       8 <- 51         0.00061
 
 Excited State   7:      Singlet-A2     7.4295 eV  166.88 nm  f=0.0000  <S**2>=0.000
       3 -> 27        -0.00128
       3 -> 38        -0.00045
       3 -> 46         0.00029
       4 -> 27        -0.00590
       4 -> 38         0.00045
       4 -> 46        -0.00034
       5 ->  9         0.70606
       5 -> 13        -0.02691
       5 -> 18         0.00567
       5 -> 23        -0.01539
       5 -> 28         0.00105
       5 -> 31        -0.00137
       5 -> 37        -0.00581
       5 -> 44        -0.00213
       5 -> 48        -0.00013
       6 -> 27        -0.00103
       6 -> 38         0.00219
       6 -> 46         0.00028
       7 -> 12         0.01441
       7 -> 16         0.01369
       7 -> 19         0.00105
       7 -> 22        -0.00491
       7 -> 25         0.00027
       7 -> 30        -0.00071
       7 -> 33        -0.00045
       7 -> 36        -0.00030
       7 -> 42        -0.00028
       7 -> 49        -0.00015
       7 -> 50        -0.00080
       8 ->  9        -0.00658
       8 -> 13         0.01324
       8 -> 18         0.00520
       8 -> 23         0.00248
       8 -> 28         0.00113
       8 -> 31         0.00095
       8 -> 37         0.00173
       8 -> 44         0.00020
       8 -> 48         0.00011
       8 -> 52         0.00032
       3 <- 27        -0.00145
       3 <- 38        -0.00057
       3 <- 46         0.00037
       4 <- 27        -0.00527
       4 <- 38         0.00010
       5 <-  9        -0.01302
       5 <- 13         0.00201
       5 <- 28         0.00194
       5 <- 31        -0.00296
       5 <- 37        -0.00344
       5 <- 44        -0.00042
       5 <- 48        -0.00023
       6 <- 27        -0.00145
       6 <- 38         0.00160
       6 <- 46         0.00015
       7 <- 12        -0.00267
       7 <- 16        -0.00078
       7 <- 19        -0.00043
       7 <- 22        -0.00363
       7 <- 25        -0.00320
       7 <- 33         0.00040
       7 <- 36        -0.00085
       7 <- 40         0.00056
       7 <- 42        -0.00066
       7 <- 49        -0.00033
       7 <- 50        -0.00090
       7 <- 53         0.00018
       8 <-  9         0.00023
       8 <- 13        -0.00045
       8 <- 18        -0.00139
       8 <- 23        -0.00021
       8 <- 28        -0.00178
       8 <- 31         0.00111
       8 <- 37         0.00085
 
 Excited State   8:      Singlet-B1     8.0298 eV  154.41 nm  f=0.0915  <S**2>=0.000
       3 ->  9        -0.00462
       3 -> 13         0.00232
       3 -> 18        -0.00115
       3 -> 28        -0.00253
       3 -> 31        -0.00111
       3 -> 44        -0.00019
       3 -> 48        -0.00042
       3 -> 52        -0.00021
       4 ->  9        -0.00792
       4 -> 13         0.00313
       4 -> 18         0.00061
       4 -> 23        -0.00058
       4 -> 28         0.00083
       4 -> 31         0.00055
       4 -> 37        -0.00035
       4 -> 44        -0.00047
       4 -> 48        -0.00015
       5 -> 27        -0.00215
       5 -> 38        -0.00028
       5 -> 46         0.00016
       6 ->  9        -0.01100
       6 -> 13        -0.00314
       6 -> 18        -0.00058
       6 -> 23        -0.00048
       6 -> 28         0.00063
       6 -> 31        -0.00129
       6 -> 37         0.00027
       6 -> 44         0.00026
       6 -> 48         0.00056
       6 -> 52        -0.00015
       7 -> 10        -0.21713
       7 -> 11         0.67068
       7 -> 14        -0.01426
       7 -> 15        -0.05085
       7 -> 17        -0.00485
       7 -> 20         0.00430
       7 -> 21         0.00425
       7 -> 24        -0.00880
       7 -> 26         0.00022
       7 -> 29        -0.00117
       7 -> 32         0.00011
       7 -> 34        -0.00098
       7 -> 35        -0.00145
       7 -> 41        -0.00025
       7 -> 43         0.00049
       7 -> 45         0.00059
       7 -> 47         0.00077
       7 -> 51         0.00034
       7 -> 54        -0.00033
       8 -> 27         0.00027
       8 -> 38        -0.00023
       8 -> 46         0.00091
       3 <-  9        -0.00030
       3 <- 13         0.00018
       3 <- 18        -0.00071
       3 <- 23        -0.00035
       3 <- 28        -0.00162
       3 <- 31        -0.00039
       3 <- 37        -0.00016
       3 <- 48        -0.00044
       4 <-  9        -0.00563
       4 <- 13         0.00122
       4 <- 18         0.00030
       4 <- 28         0.00054
       4 <- 31         0.00051
       4 <- 37        -0.00024
       4 <- 44        -0.00012
       4 <- 48        -0.00010
       5 <- 27        -0.00119
       5 <- 38        -0.00014
       5 <- 46         0.00020
       6 <-  9        -0.00636
       6 <- 13         0.00063
       6 <- 18        -0.00108
       6 <- 23         0.00101
       6 <- 28        -0.00013
       6 <- 31        -0.00119
       6 <- 37         0.00031
       6 <- 44         0.00038
       6 <- 48         0.00062
       6 <- 52        -0.00025
       7 <- 10        -0.00391
       7 <- 11        -0.00445
       7 <- 14         0.00175
       7 <- 15         0.00075
       7 <- 20        -0.00425
       7 <- 21        -0.00074
       7 <- 24        -0.00017
       7 <- 26        -0.00118
       7 <- 29         0.00014
       7 <- 32         0.00145
       7 <- 34         0.00040
       7 <- 35        -0.00126
       7 <- 39         0.00026
       7 <- 41         0.00019
       7 <- 43         0.00022
       7 <- 45         0.00039
       7 <- 47         0.00062
       7 <- 51         0.00024
       7 <- 54        -0.00012
       8 <- 27         0.00017
       8 <- 38        -0.00017
       8 <- 46         0.00064
 
 Excited State   9:      Singlet-A1     8.0448 eV  154.12 nm  f=0.0186  <S**2>=0.000
       3 -> 10        -0.00348
       3 -> 14         0.00289
       3 -> 15         0.00067
       3 -> 17        -0.00036
       3 -> 20        -0.00036
[...]
  47        4PZ        -0.00435   0.00000   0.01784   0.02592   0.01785
  48        5S         -0.00237   0.00000   0.00808   0.01184   0.00968
  49        5PX         0.00000   0.00000   0.00000   0.00000   0.00000
  50        5PY         0.00000   0.00000  -0.01002  -0.01969  -0.01989
  51        5PZ        -0.00002   0.00000   0.00180   0.00232  -0.00022
  52        6D 0        0.00026   0.00000  -0.00045  -0.00077  -0.00122
  53        6D+1        0.00000   0.00000   0.00000   0.00000   0.00000
  54        6D-1        0.00000   0.00000  -0.00106  -0.00099   0.00125
  55        6D+2        0.00002   0.00000  -0.00004  -0.00002  -0.00000
  56        6D-2        0.00000   0.00000   0.00000   0.00000   0.00000
                          26        27        28        29        30
  26        4PX         0.00027
  27        4PY         0.00000   0.00106
  28        4PZ         0.00000  -0.00047   0.00063
  29 3   H  1S          0.00000  -0.00178  -0.00287   0.07775
  30        2S          0.00000  -0.00161  -0.00454   0.11009   0.15891
  31        3S          0.00000   0.00078  -0.00243   0.03311   0.05453
  32        4PX         0.00027   0.00000   0.00000   0.00000   0.00000
  33        4PY         0.00000  -0.00058  -0.00007   0.00809   0.01079
  34        4PZ         0.00000   0.00007   0.00003   0.00443   0.00620
  35 4   O  1S          0.00000   0.00006  -0.00046   0.00132   0.00034
  36        2S          0.00000   0.00011  -0.00061   0.00212   0.00062
  37        2PX         0.00566   0.00000   0.00000   0.00000   0.00000
  38        2PY         0.00000  -0.00141   0.00090   0.01288   0.03690
  39        2PZ         0.00000  -0.00144  -0.00474   0.01573   0.02310
  40        3S          0.00000  -0.00029   0.00123  -0.00703  -0.00288
  41        3PX         0.00820   0.00000   0.00000   0.00000   0.00000
  42        3PY         0.00000  -0.00203   0.00131   0.01810   0.05229
  43        3PZ         0.00000  -0.00206  -0.00709   0.02303   0.03385
  44        4S          0.00000  -0.00051  -0.00039  -0.00191   0.00334
  45        4PX         0.00734   0.00000   0.00000   0.00000   0.00000
  46        4PY         0.00000  -0.00166   0.00097   0.01907   0.05139
  47        4PZ         0.00000  -0.00172  -0.00495   0.01784   0.02592
  48        5S          0.00000  -0.00058  -0.00289   0.00808   0.01184
  49        5PX         0.00115   0.00000   0.00000   0.00000   0.00000
  50        5PY         0.00000   0.00009  -0.00029   0.01002   0.01969
  51        5PZ         0.00000  -0.00037   0.00027   0.00180   0.00232
  52        6D 0        0.00000  -0.00003   0.00042  -0.00045  -0.00077
  53        6D+1       -0.00032   0.00000   0.00000   0.00000   0.00000
  54        6D-1        0.00000   0.00015  -0.00015   0.00106   0.00099
  55        6D+2        0.00000  -0.00000   0.00001  -0.00004  -0.00002
  56        6D-2        0.00000   0.00000   0.00000   0.00000   0.00000
                          31        32        33        34        35
  31        3S          0.03566
  32        4PX         0.00000   0.00027
  33        4PY         0.00180   0.00000   0.00106
  34        4PZ         0.00096   0.00000   0.00047   0.00063
  35 4   O  1S         -0.00004   0.00000  -0.00006  -0.00046   0.64150
  36        2S         -0.00014   0.00000  -0.00011  -0.00061   0.57201
  37        2PX         0.00000   0.00566   0.00000   0.00000   0.00000
  38        2PY         0.06124   0.00000  -0.00141  -0.00090   0.00000
  39        2PZ         0.01680   0.00000   0.00144  -0.00474  -0.01004
  40        3S          0.00094   0.00000   0.00029   0.00123  -0.14678
  41        3PX         0.00000   0.00820   0.00000   0.00000   0.00000
  42        3PY         0.08739   0.00000  -0.00203  -0.00131   0.00000
  43        3PZ         0.02499   0.00000   0.00206  -0.00709  -0.01147
  44        4S          0.00548   0.00000   0.00051  -0.00039  -0.13995
  45        4PX         0.00000   0.00734   0.00000   0.00000   0.00000
  46        4PY         0.08066   0.00000  -0.00166  -0.00097   0.00000
  47        4PZ         0.01785   0.00000   0.00172  -0.00495  -0.00848
  48        5S          0.00968   0.00000   0.00058  -0.00289   0.00785
  49        5PX         0.00000   0.00115   0.00000   0.00000   0.00000
  50        5PY         0.01989   0.00000   0.00009   0.00029   0.00000
  51        5PZ        -0.00022   0.00000   0.00037   0.00027  -0.00498
  52        6D 0       -0.00122   0.00000   0.00003   0.00042  -0.00082
  53        6D+1        0.00000  -0.00032   0.00000   0.00000   0.00000
  54        6D-1       -0.00125   0.00000   0.00015   0.00015   0.00000
  55        6D+2       -0.00000   0.00000   0.00000   0.00001  -0.00083
  56        6D-2        0.00000  -0.00000   0.00000   0.00000   0.00000
                          36        37        38        39        40
  36        2S          0.52811
  37        2PX         0.00000   0.11776
  38        2PY         0.00000   0.00000   0.19174
  39        2PZ        -0.01562   0.00000  -0.00000   0.10082
  40        3S         -0.24628   0.00000   0.00000   0.04656   0.77053
  41        3PX         0.00000   0.17070   0.00000   0.00000   0.00000
  42        3PY         0.00000   0.00000   0.27415   0.00000   0.00000
  43        3PZ        -0.01901   0.00000  -0.00000   0.14968   0.06128
  44        4S         -0.21849   0.00000   0.00000   0.06602   0.63087
  45        4PX         0.00000   0.15293   0.00000   0.00000   0.00000
  46        4PY         0.00000   0.00000   0.24858   0.00000   0.00000
  47        4PZ        -0.01457   0.00000  -0.00000   0.10662   0.04849
  48        5S          0.00752   0.00000   0.00000   0.05678  -0.00409
  49        5PX         0.00000   0.02399   0.00000   0.00000   0.00000
  50        5PY         0.00000   0.00000   0.05128   0.00000   0.00000
  51        5PZ        -0.00711   0.00000  -0.00000  -0.00106   0.01807
  52        6D 0       -0.00121  -0.00000   0.00000  -0.00728   0.00308
  53        6D+1        0.00000  -0.00661   0.00000   0.00000  -0.00000
  54        6D-1       -0.00000   0.00000  -0.00640  -0.00000   0.00000
  55        6D+2       -0.00132   0.00000   0.00000   0.00020   0.00393
  56        6D-2        0.00000   0.00000   0.00000   0.00000   0.00000
                          41        42        43        44        45
  41        3PX         0.24744
  42        3PY         0.00000   0.39198
  43        3PZ         0.00000  -0.00000   0.22232
  44        4S          0.00000   0.00000   0.09169   0.52511
  45        4PX         0.22169   0.00000   0.00000   0.00000   0.19861
  46        4PY         0.00000   0.35540   0.00000   0.00000   0.00000
  47        4PZ         0.00000  -0.00000   0.15829   0.06913   0.00000
  48        5S          0.00000   0.00000   0.08466   0.01267   0.00000
  49        5PX         0.03477   0.00000   0.00000   0.00000   0.03115
  50        5PY         0.00000   0.07328   0.00000   0.00000   0.00000
  51        5PZ         0.00000  -0.00000  -0.00181   0.01417   0.00000
  52        6D 0       -0.00000   0.00000  -0.01089   0.00038  -0.00000
  53        6D+1       -0.00959   0.00000   0.00000  -0.00000  -0.00859
  54        6D-1        0.00000  -0.00917  -0.00000   0.00000   0.00000
  55        6D+2        0.00000   0.00000   0.00026   0.00321   0.00000
  56        6D-2        0.00000   0.00000   0.00000   0.00000   0.00000
                          46        47        48        49        50
  46        4PY         0.32239
  47        4PZ        -0.00000   0.11281
  48        5S          0.00000   0.06004   0.03338
  49        5PX         0.00000   0.00000   0.00000   0.00489
  50        5PY         0.06682   0.00000   0.00000   0.00000   0.01466
  51        5PZ        -0.00000  -0.00105  -0.00149   0.00000  -0.00000
  52        6D 0        0.00000  -0.00767  -0.00440  -0.00000   0.00000
  53        6D+1        0.00000   0.00000   0.00000  -0.00135   0.00000
  54        6D-1       -0.00823  -0.00000  -0.00000   0.00000  -0.00150
  55        6D+2        0.00000   0.00021  -0.00004   0.00000   0.00000
  56        6D-2        0.00000   0.00000   0.00000   0.00000   0.00000
                          51        52        53        54        55
  51        5PZ         0.00067
  52        6D 0        0.00030   0.00060
  53        6D+1       -0.00000   0.00000   0.00037
  54        6D-1        0.00000  -0.00000   0.00000   0.00026
  55        6D+2        0.00009   0.00002   0.00000   0.00000   0.00002
  56        6D-2        0.00000   0.00000   0.00000   0.00000   0.00000
                          56
  56        6D-2        0.00000
          Condensed to atoms (all electrons):
               1          2          3          4
     1  C    5.052754   0.358187   0.358187   0.296183
     2  H    0.358187   0.540580  -0.055720  -0.024140
     3  H    0.358187  -0.055720   0.540580  -0.024140
     4  O    0.296183  -0.024140  -0.024140   8.048971
 Mulliken charges:
               1
     1  C   -0.065311
     2  H    0.181093
     3  H    0.181093
     4  O   -0.296874
 Sum of Mulliken charges =   0.00000
 Mulliken charges with hydrogens summed into heavy atoms:
               1
     1  C    0.296874
     4  O   -0.296874
 Electronic spatial extent (au):  <R**2>=             79.7460
 Charge=              0.0000 electrons
 Dipole moment (field-independent basis, Debye):
    X=             -0.0000    Y=             -0.0000    Z=             -3.8063  Tot=              3.8063
 Quadrupole moment (field-independent basis, Debye-Ang):
   XX=            -12.7739   YY=            -11.9043   ZZ=            -11.2396
   XY=              0.0000   XZ=              0.0000   YZ=              0.0000
 Traceless Quadrupole moment (field-independent basis, Debye-Ang):
   XX=             -0.8013   YY=              0.0683   ZZ=              0.7330
   XY=              0.0000   XZ=              0.0000   YZ=              0.0000
 Octapole moment (field-independent basis, Debye-Ang**2):
  XXX=              0.0000  YYY=              0.0000  ZZZ=             -2.3302  XYY=             -0.0000
  XXY=              0.0000  XXZ=              0.5196  XZZ=             -0.0000  YZZ=             -0.0000
  YYZ=             -2.2760  XYZ=             -0.0000
 Hexadecapole moment (field-independent basis, Debye-Ang**3):
 XXXX=            -13.3753 YYYY=            -18.3846 ZZZZ=            -66.1038 XXXY=             -0.0000
 XXXZ=             -0.0000 YYYX=             -0.0000 YYYZ=              0.0000 ZZZX=             -0.0000
 ZZZY=             -0.0000 XXYY=             -5.7297 XXZZ=            -13.9780 YYZZ=            -12.7358
 XXYZ=              0.0000 YYXZ=              0.0000 ZZXY=              0.0000
 N-N= 2.516190029505D+01 E-N=-3.188246415883D+02  KE= 1.133755594967D+02
 Symmetry A1   KE= 1.028931022353D+02
 Symmetry A2   KE= 1.814982944719D-35
 Symmetry B1   KE= 3.635007807466D+00
 Symmetry B2   KE= 6.847449453955D+00
 Leave Link  601 at Fri Sep 17 10:53:02 2021, MaxMem=   268435456 cpu:               0.0 elap:               0.0
 (Enter /software/gaussian/g16-a03/l9999.exe)
 Electronic transition elements 
                 1             2             3             4             5 
      1  -0.114349D+03 -0.114239D+03 -0.114226D+03 -0.114204D+03 -0.114162D+03
      2   0.000000D+00  0.000000D+00  0.102618D+00  0.000000D+00 -0.186903D+00
      3   0.000000D+00  0.000000D+00  0.000000D+00 -0.287017D+00  0.000000D+00
      4   0.000000D+00  0.760988D+00  0.000000D+00  0.000000D+00  0.000000D+00
      5   0.000000D+00  0.000000D+00 -0.381769D-01  0.000000D+00  0.387929D-01
      6   0.000000D+00  0.000000D+00  0.000000D+00  0.604739D-01  0.000000D+00
      7   0.000000D+00 -0.123765D+00  0.000000D+00  0.000000D+00  0.000000D+00
      8   0.000000D+00  0.000000D+00  0.000000D+00  0.229513D+00  0.000000D+00
      9   0.000000D+00  0.000000D+00 -0.174021D+01  0.000000D+00 -0.541083D+00
     10   0.102678D+01  0.000000D+00  0.000000D+00  0.000000D+00  0.000000D+00
     11   0.000000D+00  0.818010D-01  0.000000D+00  0.000000D+00  0.000000D+00
     12   0.000000D+00 -0.523961D-02  0.000000D+00  0.000000D+00  0.000000D+00
     13   0.000000D+00 -0.449663D-01  0.000000D+00  0.000000D+00  0.000000D+00
     14  -0.360163D-01  0.000000D+00  0.000000D+00  0.000000D+00  0.000000D+00
     15   0.000000D+00  0.000000D+00 -0.141436D+00  0.000000D+00  0.223020D+00
     16   0.000000D+00  0.000000D+00  0.000000D+00 -0.287789D-01  0.000000D+00
                 6             7             8             9            10 
      1  -0.114161D+03 -0.114145D+03 -0.114123D+03 -0.114123D+03 -0.114102D+03
      2   0.000000D+00  0.000000D+00 -0.681961D+00  0.000000D+00  0.000000D+00
      3  -0.964212D-01  0.000000D+00  0.000000D+00  0.000000D+00  0.000000D+00
      4   0.000000D+00  0.000000D+00  0.000000D+00 -0.307527D+00  0.000000D+00
      5   0.000000D+00  0.000000D+00  0.203519D+00  0.000000D+00  0.000000D+00
      6   0.211230D-01  0.000000D+00  0.000000D+00  0.000000D+00  0.000000D+00
      7   0.000000D+00  0.000000D+00  0.000000D+00  0.887435D-01  0.000000D+00
      8  -0.397452D+00  0.000000D+00  0.000000D+00  0.000000D+00  0.000000D+00
      9   0.000000D+00  0.000000D+00 -0.225327D+00  0.000000D+00  0.000000D+00
     10   0.000000D+00 -0.989729D+00  0.000000D+00  0.000000D+00  0.615276D-02
     11   0.000000D+00  0.000000D+00  0.000000D+00  0.327031D-01  0.000000D+00
     12   0.000000D+00  0.000000D+00  0.000000D+00  0.211442D-01  0.000000D+00
     13   0.000000D+00  0.000000D+00  0.000000D+00 -0.224558D+00  0.000000D+00
     14   0.000000D+00  0.179008D+00  0.000000D+00  0.000000D+00  0.544009D-01
     15   0.000000D+00  0.000000D+00 -0.803356D-01  0.000000D+00  0.000000D+00
     16   0.315460D+00  0.000000D+00  0.000000D+00  0.000000D+00  0.000000D+00
                11            12            13            14            15 
      1  -0.114090D+03 -0.114087D+03 -0.114065D+03 -0.114052D+03 -0.114049D+03
      2   0.000000D+00  0.000000D+00  0.000000D+00 -0.212623D+00  0.000000D+00
      3  -0.302379D+00  0.000000D+00  0.000000D+00  0.000000D+00  0.000000D+00
      4   0.000000D+00  0.000000D+00  0.216934D+00  0.000000D+00 -0.803733D+00
      5   0.000000D+00  0.000000D+00  0.000000D+00  0.955018D-01  0.000000D+00
      6   0.104290D+00  0.000000D+00  0.000000D+00  0.000000D+00  0.000000D+00
      7   0.000000D+00  0.000000D+00 -0.739523D-01  0.000000D+00  0.301708D+00
      8  -0.571045D+00  0.000000D+00  0.000000D+00  0.000000D+00  0.000000D+00
      9   0.000000D+00  0.000000D+00  0.000000D+00  0.381042D+00  0.000000D+00
     10   0.000000D+00  0.267446D-01  0.000000D+00  0.000000D+00  0.000000D+00
     11   0.000000D+00  0.000000D+00  0.807711D+00  0.000000D+00  0.937060D-01
     12   0.000000D+00  0.000000D+00  0.443326D-01  0.000000D+00  0.526864D-01
     13   0.000000D+00  0.000000D+00 -0.652396D-01  0.000000D+00 -0.328693D+00
     14   0.000000D+00  0.284341D+00  0.000000D+00  0.000000D+00  0.000000D+00
     15   0.000000D+00  0.000000D+00  0.000000D+00  0.303435D+00  0.000000D+00
     16   0.189343D+00  0.000000D+00  0.000000D+00  0.000000D+00  0.000000D+00
                16            17            18            19            20 
      1  -0.114043D+03 -0.114030D+03 -0.114010D+03 -0.114002D+03 -0.114001D+03
      2   0.000000D+00  0.000000D+00 -0.405816D+00  0.000000D+00  0.000000D+00
      3  -0.342476D+00  0.000000D+00  0.000000D+00 -0.326928D+00  0.000000D+00
      4   0.000000D+00 -0.372759D+00  0.000000D+00  0.000000D+00 -0.105110D+01
      5   0.000000D+00  0.000000D+00  0.150886D+00  0.000000D+00  0.000000D+00
      6   0.131636D+00  0.000000D+00  0.000000D+00  0.136683D+00  0.000000D+00
      7   0.000000D+00  0.156185D+00  0.000000D+00  0.000000D+00  0.441202D+00
      8   0.416580D+00  0.000000D+00  0.000000D+00 -0.223332D+00  0.000000D+00
      9   0.000000D+00  0.000000D+00  0.253581D+00  0.000000D+00  0.000000D+00
     10   0.000000D+00  0.000000D+00  0.000000D+00  0.000000D+00  0.000000D+00
     11   0.000000D+00  0.268371D+00  0.000000D+00  0.000000D+00 -0.422600D-01
     12   0.000000D+00  0.339484D+00  0.000000D+00  0.000000D+00 -0.396080D+00
     13   0.000000D+00  0.538957D+00  0.000000D+00  0.000000D+00 -0.205844D+00
     14   0.000000D+00  0.000000D+00  0.000000D+00  0.000000D+00  0.000000D+00
     15   0.000000D+00  0.000000D+00 -0.353909D-01  0.000000D+00  0.000000D+00
     16  -0.104362D+00  0.000000D+00  0.000000D+00 -0.468607D+00  0.000000D+00
                21            22            23            24            25 
      1  -0.113996D+03 -0.113992D+03 -0.113992D+03 -0.113981D+03 -0.113970D+03
      2   0.000000D+00  0.000000D+00  0.000000D+00 -0.119703D+00  0.000000D+00
      3   0.000000D+00  0.222554D+00 -0.434182D-02  0.000000D+00  0.000000D+00
      4   0.000000D+00  0.000000D+00  0.000000D+00  0.000000D+00  0.000000D+00
      5   0.000000D+00  0.000000D+00  0.000000D+00  0.475642D-01  0.000000D+00
      6   0.000000D+00 -0.971496D-01 -0.821251D-02  0.000000D+00  0.000000D+00
      7   0.000000D+00  0.000000D+00  0.000000D+00  0.000000D+00  0.000000D+00
      8   0.000000D+00  0.430622D+00  0.236695D+00  0.000000D+00  0.000000D+00
      9   0.000000D+00  0.000000D+00  0.000000D+00  0.119931D+00  0.000000D+00
     10  -0.569844D-01  0.000000D+00  0.000000D+00  0.000000D+00 -0.338911D-01
     11   0.000000D+00  0.000000D+00  0.000000D+00  0.000000D+00  0.000000D+00
     12   0.000000D+00  0.000000D+00  0.000000D+00  0.000000D+00  0.000000D+00
     13   0.000000D+00  0.000000D+00  0.000000D+00  0.000000D+00  0.000000D+00
     14  -0.266177D+00  0.000000D+00  0.000000D+00  0.000000D+00  0.380114D+00
     15   0.000000D+00  0.000000D+00  0.000000D+00 -0.134055D+00  0.000000D+00
     16   0.000000D+00  0.518302D+00  0.540306D+00  0.000000D+00  0.000000D+00
                26            27            28            29            30 
      1  -0.113965D+03 -0.113949D+03 -0.113941D+03 -0.113935D+03 -0.113926D+03
      2   0.000000D+00  0.126009D+00  0.000000D+00  0.000000D+00  0.000000D+00
      3  -0.655643D+00  0.000000D+00  0.000000D+00  0.000000D+00  0.000000D+00
      4   0.000000D+00  0.000000D+00  0.102235D+01 -0.321702D+00  0.402718D+00
      5   0.000000D+00 -0.504823D-01  0.000000D+00  0.000000D+00  0.000000D+00
      6   0.291893D+00  0.000000D+00  0.000000D+00  0.000000D+00  0.000000D+00
      7   0.000000D+00  0.000000D+00 -0.474660D+00  0.144511D+00 -0.190611D+00
      8   0.951464D+00  0.000000D+00  0.000000D+00  0.000000D+00  0.000000D+00
      9   0.000000D+00  0.524220D-03  0.000000D+00  0.000000D+00  0.000000D+00
     10   0.000000D+00  0.000000D+00  0.000000D+00  0.000000D+00  0.000000D+00
     11   0.000000D+00  0.000000D+00 -0.255093D+00 -0.202520D+00  0.244191D-01
     12   0.000000D+00  0.000000D+00  0.587664D+00  0.387354D+00  0.490121D+00
     13   0.000000D+00  0.000000D+00 -0.164004D+00  0.177471D+00  0.324171D+00
     14   0.000000D+00  0.000000D+00  0.000000D+00  0.000000D+00  0.000000D+00
     15   0.000000D+00  0.295140D+00  0.000000D+00  0.000000D+00  0.000000D+00
     16  -0.513626D+00  0.000000D+00  0.000000D+00  0.000000D+00  0.000000D+00

 Test job not archived.
 1\1\GINC-BHD0003\SP\RB3LYP TD-FC\6-311+G(d,p)\C1H2O1\BWEIGHT\17-Sep-20
 21\0\\#p B3LYP/6-311+G** #p TD=(singlets,nstates=30)IOp(6/8=3) IOp(9/4
 0=4)\\Scan Step 225, Bond Length 1.625\\0,1\C,0,0.,0.,-0.52736\H,0,0.,
 0.93726,-1.11871\H,0,0.,-0.93726,-1.11871\O,0,0.,0.,1.09764\\Version=E
 S64L-G16RevA.03\State=1-A1\HF=-114.418512\RMSD=9.287e-09\PG=C02V [C2(C
 1O1),SGV(H2)]\\@


 TRUTH, IN SCIENCE, CAN BE DEFINED AS THE WORKING HYPOTHESIS 
 BEST FITTED TO OPEN THE WAY TO THE NEXT BETTER ONE.

                              -- KONRAD LORENZ
 Job cpu time:       0 days  0 hours  0 minutes 28.4 seconds.
 Elapsed time:       0 days  0 hours  0 minutes 28.8 seconds.
 File lengths (MBytes):  RWF=     79 Int=      0 D2E=      0 Chk=     32 Scr=      1
 Normal termination of Gaussian 16 at Fri Sep 17 10:53:02 2021.
