 Entering Gaussian System, Link 0=g16
 Initial command:
 /software/gaussian/g16-c01/sse4/g16/l1.exe "/local_scratch/24657556/Gau-22042.inp" -scrdir="/local_scratch/24657556/"
 Entering Link 1 = /software/gaussian/g16-c01/sse4/g16/l1.exe PID=     22043.
  
 Copyright (c) 1988-2019, Gaussian, Inc.  All Rights Reserved.
  
 This is part of the Gaussian(R) 16 program.  It is based on
 the Gaussian(R) 09 system (copyright 2009, Gaussian, Inc.),
 the Gaussian(R) 03 system (copyright 2003, Gaussian, Inc.),
 the Gaussian(R) 98 system (copyright 1998, Gaussian, Inc.),
 the Gaussian(R) 94 system (copyright 1995, Gaussian, Inc.),
 the Gaussian 92(TM) system (copyright 1992, Gaussian, Inc.),
 the Gaussian 90(TM) system (copyright 1990, Gaussian, Inc.),
 the Gaussian 88(TM) system (copyright 1988, Gaussian, Inc.),
 the Gaussian 86(TM) system (copyright 1986, Carnegie Mellon
 University), and the Gaussian 82(TM) system (copyright 1983,
 Carnegie Mellon University). Gaussian is a federally registered
 trademark of Gaussian, Inc.
  
 This software contains proprietary and confidential information,
 including trade secrets, belonging to Gaussian, Inc.
  
 This software is provided under written license and may be
 used, copied, transmitted, or stored only in accord with that
 written license.
  
 The following legend is applicable only to US Government
 contracts under FAR:
  
                    RESTRICTED RIGHTS LEGEND
  
 Use, reproduction and disclosure by the US Government is
 subject to restrictions as set forth in subparagraphs (a)
 and (c) of the Commercial Computer Software - Restricted
 Rights clause in FAR 52.227-19.
  
 Gaussian, Inc.
 340 Quinnipiac St., Bldg. 40, Wallingford CT 06492
  
  
 ---------------------------------------------------------------
 Warning -- This program may not be used in any manner that
 competes with the business of Gaussian, Inc. or will provide
 assistance to any competitor of Gaussian, Inc.  The licensee
 of this program is prohibited from giving any competitor of
 Gaussian, Inc. access to this program.  By using this program,
 the user acknowledges that Gaussian, Inc. is engaged in the
 business of creating and licensing software in the field of
 computational chemistry and represents and warrants to the
 licensee that it is not a competitor of Gaussian, Inc. and that
 it will not use this program in any manner prohibited above.
 ---------------------------------------------------------------
  

 Cite this work as:
 Gaussian 16, Revision C.01,
 M. J. Frisch, G. W. Trucks, H. B. Schlegel, G. E. Scuseria, 
 M. A. Robb, J. R. Cheeseman, G. Scalmani, V. Barone, 
 G. A. Petersson, H. Nakatsuji, X. Li, M. Caricato, A. V. Marenich, 
 J. Bloino, B. G. Janesko, R. Gomperts, B. Mennucci, H. P. Hratchian, 
 J. V. Ortiz, A. F. Izmaylov, J. L. Sonnenberg, D. Williams-Young, 
 F. Ding, F. Lipparini, F. Egidi, J. Goings, B. Peng, A. Petrone, 
 T. Henderson, D. Ranasinghe, V. G. Zakrzewski, J. Gao, N. Rega, 
 G. Zheng, W. Liang, M. Hada, M. Ehara, K. Toyota, R. Fukuda, 
 J. Hasegawa, M. Ishida, T. Nakajima, Y. Honda, O. Kitao, H. Nakai, 
 T. Vreven, K. Throssell, J. A. Montgomery, Jr., J. E. Peralta, 
 F. Ogliaro, M. J. Bearpark, J. J. Heyd, E. N. Brothers, K. N. Kudin, 
 V. N. Staroverov, T. A. Keith, R. Kobayashi, J. Normand, 
 K. Raghavachari, A. P. Rendell, J. C. Burant, S. S. Iyengar, 
 J. Tomasi, M. Cossi, J. M. Millam, M. Klene, C. Adamo, R. Cammi, 
 J. W. Ochterski, R. L. Martin, K. Morokuma, O. Farkas, 
 J. B. Foresman, and D. J. Fox, Gaussian, Inc., Wallingford CT, 2019.
 
 ******************************************
 Gaussian 16:  ES64L-G16RevC.01  3-Jul-2019
                 1-May-2024 
 ******************************************
 %chk=geometry.chk
 %mem=9GB
 %nprocshared=12
 Will use up to   12 processors via shared memory.
 ---------------------------------------
 #P wB97XD/6-311+G* NoSymm #P Field=Z-48
 ---------------------------------------
 1/38=1,172=1/1;
 2/12=2,15=1,17=6,18=5,40=1/2;
 3/5=4,6=6,7=11,11=2,14=3,15=-48,25=1,30=1,74=-58/1,2,3;
 4//1;
 5/5=2,38=5/2;
 6/7=2,8=2,9=2,10=2,28=1/1;
 99/5=1,9=1/99;
 Leave Link    1 at Wed May  1 15:05:01 2024, MaxMem=  1207959552 cpu:               1.1 elap:               1.1
 (Enter /software/gaussian/g16-c01/sse4/g16/l101.exe)
 -------
 TitleMe
 -------
 Symbolic Z-matrix:
 Charge =  1 Multiplicity = 1
 C                     0.0295    1.3397    0.0682 
 C                     1.4348    1.2867    0.0064 
 C                     2.1118    0.0511   -0.0054 
 C                     1.4451   -1.1372    0.0312 
 C                    -0.6879    0.1682    0.11 
 H                    -0.4713    2.2984    0.0781 
 H                     2.0273    2.1965   -0.0322 
 H                     1.9897   -2.0764    0.0232 
 H                    -1.7716    0.1804    0.1582 
 N                     3.5864    0.051    -0.0675 
 O                     4.1471   -1.0597   -0.0881 
 O                     4.145     1.1639   -0.0901 
 C                    -0.0236   -1.1458    0.0835 
 H                    -0.4367   -1.8725    0.7889 
 Br                   -0.5359   -1.8697   -1.7408 
 
 ITRead=  0  0  0  0  0  0  0  0  0  0  0  0  0  0  0
 MicOpt= -1 -1 -1 -1 -1 -1 -1 -1 -1 -1 -1 -1 -1 -1 -1
 NAtoms=     15 NQM=       15 NQMF=       0 NMMI=      0 NMMIF=      0
                NMic=       0 NMicF=      0.
                    Isotopes and Nuclear Properties:
 (Nuclear quadrupole moments (NQMom) in fm**2, nuclear magnetic moments (NMagM)
  in nuclear magnetons)

  Atom         1           2           3           4           5           6           7           8           9          10
 IAtWgt=          12          12          12          12          12           1           1           1           1          14
 AtmWgt=  12.0000000  12.0000000  12.0000000  12.0000000  12.0000000   1.0078250   1.0078250   1.0078250   1.0078250  14.0030740
 NucSpn=           0           0           0           0           0           1           1           1           1           2
 AtZEff=  -0.0000000  -0.0000000  -0.0000000  -0.0000000  -0.0000000  -0.0000000  -0.0000000  -0.0000000  -0.0000000  -0.0000000
 NQMom=    0.0000000   0.0000000   0.0000000   0.0000000   0.0000000   0.0000000   0.0000000   0.0000000   0.0000000   2.0440000
 NMagM=    0.0000000   0.0000000   0.0000000   0.0000000   0.0000000   2.7928460   2.7928460   2.7928460   2.7928460   0.4037610
 AtZNuc=   6.0000000   6.0000000   6.0000000   6.0000000   6.0000000   1.0000000   1.0000000   1.0000000   1.0000000   7.0000000

  Atom        11          12          13          14          15
 IAtWgt=          16          16          12           1          79
 AtmWgt=  15.9949146  15.9949146  12.0000000   1.0078250  78.9183361
 NucSpn=           0           0           0           1           3
 AtZEff=  -0.0000000  -0.0000000  -0.0000000  -0.0000000  -0.0000000
 NQMom=    0.0000000   0.0000000   0.0000000   0.0000000  31.3000000
 NMagM=    0.0000000   0.0000000   0.0000000   2.7928460   2.1063990
 AtZNuc=   8.0000000   8.0000000   6.0000000   1.0000000  35.0000000
 Leave Link  101 at Wed May  1 15:05:02 2024, MaxMem=  1207959552 cpu:               1.5 elap:               1.5
 (Enter /software/gaussian/g16-c01/sse4/g16/l202.exe)
                          Input orientation:                          
 ---------------------------------------------------------------------
 Center     Atomic      Atomic             Coordinates (Angstroms)
 Number     Number       Type             X           Y           Z
 ---------------------------------------------------------------------
      1          6           0        0.029500    1.339700    0.068200
      2          6           0        1.434800    1.286700    0.006400
      3          6           0        2.111800    0.051100   -0.005400
      4          6           0        1.445100   -1.137200    0.031200
      5          6           0       -0.687900    0.168200    0.110000
      6          1           0       -0.471300    2.298400    0.078100
      7          1           0        2.027300    2.196500   -0.032200
      8          1           0        1.989700   -2.076400    0.023200
      9          1           0       -1.771600    0.180400    0.158200
     10          7           0        3.586400    0.051000   -0.067500
     11          8           0        4.147100   -1.059700   -0.088100
     12          8           0        4.145000    1.163900   -0.090100
     13          6           0       -0.023600   -1.145800    0.083500
     14          1           0       -0.436700   -1.872500    0.788900
     15         35           0       -0.535900   -1.869700   -1.740800
 ---------------------------------------------------------------------
                    Distance matrix (angstroms):
                    1          2          3          4          5
     1  C    0.000000
     2  C    1.407656   0.000000
     3  C    2.449874   1.408963   0.000000
     4  C    2.853126   2.424049   1.363043   0.000000
     5  C    1.374344   2.401589   2.804523   2.501993   0.000000
     6  H    1.081667   2.159142   3.424870   3.934226   2.141421
     7  H    2.176095   1.086408   2.147231   3.384750   3.392128
     8  H    3.938800   3.408612   2.131193   1.085702   3.495040
     9  H    2.143837   3.395283   3.888995   3.478413   1.084840
    10  N    3.785591   2.482297   1.475907   2.450862   4.279589
    11  O    4.768247   3.587631   2.320164   2.705743   4.992415
    12  O    4.122294   2.714696   2.319353   3.549540   4.938459
    13  C    2.486114   2.837240   2.449573   1.469656   1.472614
    14  H    3.324903   3.754379   3.290289   2.157764   2.165286
    15  Br   3.727252   4.110867   3.702891   2.756973   2.757100
                    6          7          8          9         10
     6  H    0.000000
     7  H    2.503108   0.000000
     8  H    5.019802   4.273425   0.000000
     9  H    2.486588   4.304945   4.388479   0.000000
    10  N    4.640790   2.652397   2.661486   5.364313   0.000000
    11  O    5.712624   3.885809   2.387560   6.052233   1.244373
    12  O    4.756638   2.356750   3.893289   6.002923   1.245428
    13  C    3.473180   3.923079   2.218790   2.195425   3.806210
    14  H    4.231175   4.827242   2.552506   2.528663   4.540772
    15  Br   4.548146   5.101303   3.087568   3.055498   4.845862
                   11         12         13         14         15
    11  O    0.000000
    12  O    2.223602   0.000000
    13  C    4.175117   4.768865   0.000000
    14  H    4.737193   5.566358   1.093770   0.000000
    15  Br   5.031700   5.817075   2.028436   2.531646   0.000000
 Symmetry turned off by external request.
 Stoichiometry    C6H5BrNO2(1+)
 Framework group  C1[X(C6H5BrNO2)]
 Deg. of freedom    39
 Full point group                 C1      NOp   1
 Rotational constants (GHZ):           1.8252210           0.5518633           0.4576002
 Leave Link  202 at Wed May  1 15:05:03 2024, MaxMem=  1207959552 cpu:               1.1 elap:               1.1
 (Enter /software/gaussian/g16-c01/sse4/g16/l301.exe)
 Standard basis: 6-311+G(d) (5D, 7F)
 Ernie: Thresh=  0.10000D-02 Tol=  0.10000D-05 Strict=F.
 The following finite field(s) will be applied:
 An electric field of              0.0000  0.0000 -0.0048
   261 basis functions,   443 primitive gaussians,   273 cartesian basis functions
    49 alpha electrons       49 beta electrons
       nuclear repulsion energy       739.2122215416 Hartrees.
 IExCor= 4639 DFT=T Ex+Corr=wB97XD ExCW=0 ScaHFX=  1.000000
 ScaDFX=  1.000000  1.000000  1.000000  1.000000 ScalE2=  1.000000  1.000000
 IRadAn=      5 IRanWt=     -1 IRanGd=            0 ICorTp=0 IEmpDi=121
 HFx  wShort=  0.000000 wLong=  0.200000 cFull=  0.222036 cShort=  0.000000 cLong=  0.777964
 DFx  wShort=  0.000000 wLong=  0.200000 cFull=  0.000000 cShort=  0.000000 cLong=  1.000000
 NAtoms=   15 NActive=   15 NUniq=   15 SFac= 1.00D+00 NAtFMM=   60 NAOKFM=F Big=F
 Integral buffers will be    131072 words long.
 Raffenetti 2 integral format.
 Two-electron integral symmetry is turned off.
 R6Disp:  Grimme-D2 Dispersion energy=       -0.0077368520 Hartrees.
 Nuclear repulsion after empirical dispersion term =      739.2044846896 Hartrees.
 Leave Link  301 at Wed May  1 15:05:04 2024, MaxMem=  1207959552 cpu:               1.0 elap:               1.0
 (Enter /software/gaussian/g16-c01/sse4/g16/l302.exe)
 NPDir=0 NMtPBC=     1 NCelOv=     1 NCel=       1 NClECP=     1 NCelD=      1
         NCelK=      1 NCelE2=     1 NClLst=     1 CellRange=     0.0.
 One-electron integrals computed using PRISM.
 NBasis=   261 RedAO= T EigKep=  2.35D-06  NBF=   261
 NBsUse=   261 1.00D-06 EigRej= -1.00D+00 NBFU=   261
 Precomputing XC quadrature grid using
 IXCGrd= 4 IRadAn=           5 IRanWt=          -1 IRanGd=           0 AccXCQ= 0.00D+00.
 Generated NRdTot=       0 NPtTot=           0 NUsed=           0 NTot=          32
 NSgBfM=   273   273   273   273   273 MxSgAt=    15 MxSgA2=    15.
 Leave Link  302 at Wed May  1 15:05:25 2024, MaxMem=  1207959552 cpu:              21.0 elap:              21.0
 (Enter /software/gaussian/g16-c01/sse4/g16/l303.exe)
 DipDrv:  MaxL=1.
 The nuclear repulsion energy is now       739.7491476003 hartrees.
 Leave Link  303 at Wed May  1 15:05:29 2024, MaxMem=  1207959552 cpu:               3.2 elap:               3.2
 (Enter /software/gaussian/g16-c01/sse4/g16/l401.exe)
 ExpMin= 3.50D-02 ExpMax= 4.40D+05 ExpMxC= 1.51D+04 IAcc=3 IRadAn=         5 AccDes= 0.00D+00
 Harris functional with IExCor= 4639 and IRadAn=       5 diagonalized for initial guess.
 HarFok:  IExCor= 4639 AccDes= 0.00D+00 IRadAn=         5 IDoV= 1 UseB2=F ITyADJ=14
 ICtDFT=  3500011 ScaDFX=  1.000000  1.000000  1.000000  1.000000
 FoFCou: FMM=F IPFlag=           0 FMFlag=      100000 FMFlg1=           0
         NFxFlg=           0 DoJE=T BraDBF=F KetDBF=T FulRan=T
         wScrn=  0.000000 ICntrl=       500 IOpCl=  0 I1Cent=   200000004 NGrid=           0
         NMat0=    1 NMatS0=      1 NMatT0=    0 NMatD0=    1 NMtDS0=    0 NMtDT0=    0
 Symmetry not used in FoFCou.
 Harris En= -2970.59984910920    
 JPrj=0 DoOrth=F DoCkMO=F.
 Leave Link  401 at Wed May  1 15:05:59 2024, MaxMem=  1207959552 cpu:              30.1 elap:              30.1
 (Enter /software/gaussian/g16-c01/sse4/g16/l502.exe)
 Two-electron integral symmetry not used.
 Closed shell SCF:
 Using DIIS extrapolation, IDIIS=  1040.
 NGot=  1207959552 LenX=  1207804877 LenY=  1207729907
 Requested convergence on RMS density matrix=1.00D-08 within 128 cycles.
 Requested convergence on MAX density matrix=1.00D-06.
 Requested convergence on             energy=1.00D-06.
 No special actions if energy rises.
 Fock matrices will be formed incrementally for  20 cycles.

 Cycle   1  Pass 1  IDiag  1:
 FoFJK:  IHMeth= 1 ICntrl=       0 DoSepK=T KAlg= 0 I1Cent=           0 FoldK=F
 IRaf=         1 NMat=       1 IRICut=       1 DoRegI=T DoRafI=F ISym2E= 0 IDoP0=0 IntGTp=1.
 FoFCou: FMM=F IPFlag=           0 FMFlag=      100000 FMFlg1=           0
         NFxFlg=           0 DoJE=T BraDBF=F KetDBF=F FulRan=T
         wScrn=  0.000000 ICntrl=       500 IOpCl=  0 I1Cent=           0 NGrid=           0
         NMat0=    1 NMatS0=      1 NMatT0=    0 NMatD0=    1 NMtDS0=    0 NMtDT0=    0
 Symmetry not used in FoFCou.
 E= -3009.72606833531    
 DIIS: error= 3.20D-01 at cycle   1 NSaved=   1.
 NSaved= 1 IEnMin= 1 EnMin= -3009.72606833531     IErMin= 1 ErrMin= 3.20D-01
 ErrMax= 3.20D-01  0.00D+00 EMaxC= 1.00D-01 BMatC= 1.19D+01 BMatP= 1.19D+01
 IDIUse=3 WtCom= 0.00D+00 WtEn= 1.00D+00
 Coeff-Com:  0.100D+01
 Coeff-En:   0.100D+01
 Coeff:      0.100D+01
 Gap=     0.323 Goal=   None    Shift=    0.000
 GapD=    0.323 DampG=1.000 DampE=0.250 DampFc=0.2500 IDamp=-1.
 Damping current iteration by 2.50D-01
 RMSDP=3.84D-02 MaxDP=3.56D+00              OVMax= 2.56D-01

 Cycle   2  Pass 1  IDiag  1:
 RMSU=  3.98D-03    CP:  9.01D-01
 E= -3010.00803190179     Delta-E=       -0.281963566483 Rises=F Damp=T
 DIIS: error= 2.25D-01 at cycle   2 NSaved=   2.
 NSaved= 2 IEnMin= 2 EnMin= -3010.00803190179     IErMin= 2 ErrMin= 2.25D-01
 ErrMax= 2.25D-01  0.00D+00 EMaxC= 1.00D-01 BMatC= 5.45D+00 BMatP= 1.19D+01
 IDIUse=3 WtCom= 0.00D+00 WtEn= 1.00D+00
 Coeff-Com: -0.185D+01 0.285D+01
 Coeff-En:   0.000D+00 0.100D+01
 Coeff:      0.000D+00 0.100D+01
 Gap=     0.294 Goal=   None    Shift=    0.000
 RMSDP=3.01D-02 MaxDP=2.79D+00 DE=-2.82D-01 OVMax= 7.59D-02

 Cycle   3  Pass 1  IDiag  1:
 RMSU=  4.18D-03    CP:  5.79D-01  3.00D+00
 E= -3010.38893515404     Delta-E=       -0.380903252248 Rises=F Damp=F
 DIIS: error= 6.53D-02 at cycle   3 NSaved=   3.
 NSaved= 3 IEnMin= 3 EnMin= -3010.38893515404     IErMin= 3 ErrMin= 6.53D-02
 ErrMax= 6.53D-02  0.00D+00 EMaxC= 1.00D-01 BMatC= 7.24D-01 BMatP= 5.45D+00
 IDIUse=3 WtCom= 3.47D-01 WtEn= 6.53D-01
 Coeff-Com:  0.278D+01-0.366D+01 0.188D+01
 Coeff-En:   0.184D-01 0.000D+00 0.982D+00
 Coeff:      0.976D+00-0.127D+01 0.129D+01
 Gap=     0.261 Goal=   None    Shift=    0.000
 RMSDP=8.20D-03 MaxDP=4.35D-01 DE=-3.81D-01 OVMax= 6.52D-02

 Cycle   4  Pass 1  IDiag  1:
 RMSU=  4.60D-03    CP:  5.96D-01  2.15D+00  2.09D+00
 E= -3010.48977649327     Delta-E=       -0.100841339234 Rises=F Damp=F
 DIIS: error= 3.86D-02 at cycle   4 NSaved=   4.
 NSaved= 4 IEnMin= 4 EnMin= -3010.48977649327     IErMin= 4 ErrMin= 3.86D-02
 ErrMax= 3.86D-02  0.00D+00 EMaxC= 1.00D-01 BMatC= 2.33D-01 BMatP= 7.24D-01
 IDIUse=3 WtCom= 6.14D-01 WtEn= 3.86D-01
 Coeff-Com: -0.171D+00 0.241D+00 0.281D+00 0.649D+00
 Coeff-En:   0.000D+00 0.000D+00 0.198D+00 0.802D+00
 Coeff:     -0.105D+00 0.148D+00 0.249D+00 0.708D+00
 Gap=     0.262 Goal=   None    Shift=    0.000
 RMSDP=3.30D-03 MaxDP=2.30D-01 DE=-1.01D-01 OVMax= 2.63D-02

 Cycle   5  Pass 1  IDiag  1:
 RMSU=  1.22D-03    CP:  5.68D-01  2.55D+00  1.94D+00  8.92D-01
 E= -3010.53443108812     Delta-E=       -0.044654594844 Rises=F Damp=F
 DIIS: error= 6.85D-03 at cycle   5 NSaved=   5.
 NSaved= 5 IEnMin= 5 EnMin= -3010.53443108812     IErMin= 5 ErrMin= 6.85D-03
 ErrMax= 6.85D-03  0.00D+00 EMaxC= 1.00D-01 BMatC= 7.39D-03 BMatP= 2.33D-01
 IDIUse=3 WtCom= 9.31D-01 WtEn= 6.85D-02
 Coeff-Com: -0.134D+00 0.182D+00 0.476D-01 0.322D+00 0.583D+00
 Coeff-En:   0.000D+00 0.000D+00 0.000D+00 0.000D+00 0.100D+01
 Coeff:     -0.125D+00 0.169D+00 0.443D-01 0.300D+00 0.611D+00
 Gap=     0.260 Goal=   None    Shift=    0.000
 RMSDP=5.67D-04 MaxDP=3.56D-02 DE=-4.47D-02 OVMax= 1.09D-02

 Cycle   6  Pass 1  IDiag  1:
 RMSU=  4.32D-04    CP:  5.67D-01  2.53D+00  1.94D+00  8.84D-01  7.10D-01
 E= -3010.53590725240     Delta-E=       -0.001476164287 Rises=F Damp=F
 DIIS: error= 1.50D-03 at cycle   6 NSaved=   6.
 NSaved= 6 IEnMin= 6 EnMin= -3010.53590725240     IErMin= 6 ErrMin= 1.50D-03
 ErrMax= 1.50D-03  0.00D+00 EMaxC= 1.00D-01 BMatC= 2.17D-04 BMatP= 7.39D-03
 IDIUse=3 WtCom= 9.85D-01 WtEn= 1.50D-02
 Coeff-Com: -0.895D-01 0.120D+00-0.224D-02 0.153D+00 0.374D+00 0.445D+00
 Coeff-En:   0.000D+00 0.000D+00 0.000D+00 0.000D+00 0.000D+00 0.100D+01
 Coeff:     -0.882D-01 0.119D+00-0.221D-02 0.150D+00 0.368D+00 0.453D+00
 Gap=     0.258 Goal=   None    Shift=    0.000
 RMSDP=1.90D-04 MaxDP=1.23D-02 DE=-1.48D-03 OVMax= 6.38D-03

 Cycle   7  Pass 1  IDiag  1:
 RMSU=  1.21D-04    CP:  5.67D-01  2.52D+00  1.95D+00  8.91D-01  8.01D-01
                    CP:  8.52D-01
 E= -3010.53606030011     Delta-E=       -0.000153047706 Rises=F Damp=F
 DIIS: error= 4.96D-04 at cycle   7 NSaved=   7.
 NSaved= 7 IEnMin= 7 EnMin= -3010.53606030011     IErMin= 7 ErrMin= 4.96D-04
 ErrMax= 4.96D-04  0.00D+00 EMaxC= 1.00D-01 BMatC= 2.27D-05 BMatP= 2.17D-04
 IDIUse=3 WtCom= 9.95D-01 WtEn= 4.96D-03
 Coeff-Com: -0.353D-01 0.470D-01-0.133D-01 0.335D-01 0.103D+00 0.257D+00
 Coeff-Com:  0.608D+00
 Coeff-En:   0.000D+00 0.000D+00 0.000D+00 0.000D+00 0.000D+00 0.000D+00
 Coeff-En:   0.100D+01
 Coeff:     -0.351D-01 0.468D-01-0.133D-01 0.333D-01 0.103D+00 0.256D+00
 Coeff:      0.610D+00
 Gap=     0.258 Goal=   None    Shift=    0.000
 RMSDP=9.88D-05 MaxDP=7.71D-03 DE=-1.53D-04 OVMax= 2.62D-03

 Cycle   8  Pass 1  IDiag  1:
 RMSU=  5.25D-05    CP:  5.67D-01  2.51D+00  1.96D+00  8.98D-01  8.37D-01
                    CP:  8.94D-01  9.09D-01
 E= -3010.53608303466     Delta-E=       -0.000022734554 Rises=F Damp=F
 DIIS: error= 1.10D-04 at cycle   8 NSaved=   8.
 NSaved= 8 IEnMin= 8 EnMin= -3010.53608303466     IErMin= 8 ErrMin= 1.10D-04
 ErrMax= 1.10D-04  0.00D+00 EMaxC= 1.00D-01 BMatC= 2.23D-06 BMatP= 2.27D-05
 IDIUse=3 WtCom= 9.99D-01 WtEn= 1.10D-03
 Coeff-Com:  0.668D-02-0.914D-02-0.290D-02-0.165D-01-0.413D-01-0.310D-01
 Coeff-Com:  0.156D+00 0.939D+00
 Coeff-En:   0.000D+00 0.000D+00 0.000D+00 0.000D+00 0.000D+00 0.000D+00
 Coeff-En:   0.000D+00 0.100D+01
 Coeff:      0.668D-02-0.913D-02-0.290D-02-0.164D-01-0.413D-01-0.310D-01
 Coeff:      0.155D+00 0.939D+00
 Gap=     0.258 Goal=   None    Shift=    0.000
 RMSDP=5.63D-05 MaxDP=4.32D-03 DE=-2.27D-05 OVMax= 2.14D-03

 Cycle   9  Pass 1  IDiag  1:
 RMSU=  2.23D-05    CP:  5.67D-01  2.50D+00  1.96D+00  8.99D-01  8.42D-01
                    CP:  9.68D-01  1.10D+00  1.24D+00
 E= -3010.53608842264     Delta-E=       -0.000005387976 Rises=F Damp=F
 DIIS: error= 4.65D-05 at cycle   9 NSaved=   9.
 NSaved= 9 IEnMin= 9 EnMin= -3010.53608842264     IErMin= 9 ErrMin= 4.65D-05
 ErrMax= 4.65D-05  0.00D+00 EMaxC= 1.00D-01 BMatC= 2.53D-07 BMatP= 2.23D-06
 IDIUse=1 WtCom= 1.00D+00 WtEn= 0.00D+00
 Coeff-Com:  0.671D-02-0.900D-02 0.822D-03-0.959D-02-0.245D-01-0.456D-01
 Coeff-Com: -0.429D-01 0.285D+00 0.839D+00
 Coeff:      0.671D-02-0.900D-02 0.822D-03-0.959D-02-0.245D-01-0.456D-01
 Coeff:     -0.429D-01 0.285D+00 0.839D+00
 Gap=     0.258 Goal=   None    Shift=    0.000
 RMSDP=1.64D-05 MaxDP=9.29D-04 DE=-5.39D-06 OVMax= 9.87D-04

 Cycle  10  Pass 1  IDiag  1:
 RMSU=  7.42D-06    CP:  5.67D-01  2.50D+00  1.96D+00  8.99D-01  8.46D-01
                    CP:  9.81D-01  1.15D+00  1.35D+00  1.11D+00
 E= -3010.53608929588     Delta-E=       -0.000000873242 Rises=F Damp=F
 DIIS: error= 1.63D-05 at cycle  10 NSaved=  10.
 NSaved=10 IEnMin=10 EnMin= -3010.53608929588     IErMin=10 ErrMin= 1.63D-05
 ErrMax= 1.63D-05  0.00D+00 EMaxC= 1.00D-01 BMatC= 5.68D-08 BMatP= 2.53D-07
 IDIUse=1 WtCom= 1.00D+00 WtEn= 0.00D+00
 Coeff-Com:  0.381D-03-0.486D-03 0.371D-03-0.118D-03 0.150D-02-0.512D-02
 Coeff-Com: -0.342D-01-0.615D-01 0.239D+00 0.860D+00
 Coeff:      0.381D-03-0.486D-03 0.371D-03-0.118D-03 0.150D-02-0.512D-02
 Coeff:     -0.342D-01-0.615D-01 0.239D+00 0.860D+00
 Gap=     0.258 Goal=   None    Shift=    0.000
 RMSDP=8.73D-06 MaxDP=5.53D-04 DE=-8.73D-07 OVMax= 3.86D-04

 Cycle  11  Pass 1  IDiag  1:
 RMSU=  4.40D-06    CP:  5.67D-01  2.50D+00  1.96D+00  8.98D-01  8.46D-01
                    CP:  9.89D-01  1.15D+00  1.37D+00  1.29D+00  1.14D+00
 E= -3010.53608943318     Delta-E=       -0.000000137301 Rises=F Damp=F
 DIIS: error= 6.79D-06 at cycle  11 NSaved=  11.
 NSaved=11 IEnMin=11 EnMin= -3010.53608943318     IErMin=11 ErrMin= 6.79D-06
 ErrMax= 6.79D-06  0.00D+00 EMaxC= 1.00D-01 BMatC= 3.80D-09 BMatP= 5.68D-08
 IDIUse=1 WtCom= 1.00D+00 WtEn= 0.00D+00
 Coeff-Com: -0.306D-03 0.413D-03 0.529D-04 0.805D-03 0.266D-02 0.451D-02
 Coeff-Com:  0.354D-02-0.333D-01-0.915D-01 0.424D-01 0.107D+01
 Coeff:     -0.306D-03 0.413D-03 0.529D-04 0.805D-03 0.266D-02 0.451D-02
 Coeff:      0.354D-02-0.333D-01-0.915D-01 0.424D-01 0.107D+01
 Gap=     0.258 Goal=   None    Shift=    0.000
 RMSDP=3.12D-06 MaxDP=1.43D-04 DE=-1.37D-07 OVMax= 1.83D-04

 Cycle  12  Pass 1  IDiag  1:
 RMSU=  1.08D-06    CP:  5.67D-01  2.50D+00  1.96D+00  8.98D-01  8.45D-01
                    CP:  9.90D-01  1.15D+00  1.36D+00  1.35D+00  1.33D+00
                    CP:  1.28D+00
 E= -3010.53608945407     Delta-E=       -0.000000020887 Rises=F Damp=F
 DIIS: error= 2.31D-06 at cycle  12 NSaved=  12.
 NSaved=12 IEnMin=12 EnMin= -3010.53608945407     IErMin=12 ErrMin= 2.31D-06
 ErrMax= 2.31D-06  0.00D+00 EMaxC= 1.00D-01 BMatC= 1.31D-09 BMatP= 3.80D-09
 IDIUse=1 WtCom= 1.00D+00 WtEn= 0.00D+00
 Coeff-Com: -0.182D-03 0.242D-03-0.142D-04 0.388D-03 0.837D-03 0.253D-02
 Coeff-Com:  0.678D-02-0.570D-02-0.791D-01-0.117D+00 0.508D+00 0.683D+00
 Coeff:     -0.182D-03 0.242D-03-0.142D-04 0.388D-03 0.837D-03 0.253D-02
 Coeff:      0.678D-02-0.570D-02-0.791D-01-0.117D+00 0.508D+00 0.683D+00
 Gap=     0.258 Goal=   None    Shift=    0.000
 RMSDP=1.37D-06 MaxDP=1.26D-04 DE=-2.09D-08 OVMax= 5.14D-05

 Cycle  13  Pass 1  IDiag  1:
 RMSU=  3.87D-07    CP:  5.67D-01  2.50D+00  1.96D+00  8.98D-01  8.45D-01
                    CP:  9.91D-01  1.15D+00  1.36D+00  1.36D+00  1.36D+00
                    CP:  1.45D+00  8.87D-01
 E= -3010.53608945692     Delta-E=       -0.000000002853 Rises=F Damp=F
 DIIS: error= 7.22D-07 at cycle  13 NSaved=  13.
 NSaved=13 IEnMin=13 EnMin= -3010.53608945692     IErMin=13 ErrMin= 7.22D-07
 ErrMax= 7.22D-07  0.00D+00 EMaxC= 1.00D-01 BMatC= 1.17D-10 BMatP= 1.31D-09
 IDIUse=1 WtCom= 1.00D+00 WtEn= 0.00D+00
 Coeff-Com: -0.321D-04 0.428D-04-0.886D-05-0.335D-05-0.275D-03-0.431D-03
 Coeff-Com:  0.219D-03 0.266D-02-0.126D-03-0.204D-01-0.373D-01 0.156D+00
 Coeff-Com:  0.900D+00
 Coeff:     -0.321D-04 0.428D-04-0.886D-05-0.335D-05-0.275D-03-0.431D-03
 Coeff:      0.219D-03 0.266D-02-0.126D-03-0.204D-01-0.373D-01 0.156D+00
 Coeff:      0.900D+00
 Gap=     0.258 Goal=   None    Shift=    0.000
 RMSDP=3.87D-07 MaxDP=2.61D-05 DE=-2.85D-09 OVMax= 1.05D-05

 Cycle  14  Pass 1  IDiag  1:
 RMSU=  2.04D-07    CP:  5.67D-01  2.50D+00  1.96D+00  8.98D-01  8.45D-01
                    CP:  9.91D-01  1.15D+00  1.36D+00  1.37D+00  1.36D+00
                    CP:  1.49D+00  1.03D+00  1.13D+00
 E= -3010.53608945713     Delta-E=       -0.000000000213 Rises=F Damp=F
 DIIS: error= 2.43D-07 at cycle  14 NSaved=  14.
 NSaved=14 IEnMin=14 EnMin= -3010.53608945713     IErMin=14 ErrMin= 2.43D-07
 ErrMax= 2.43D-07  0.00D+00 EMaxC= 1.00D-01 BMatC= 1.63D-11 BMatP= 1.17D-10
 IDIUse=1 WtCom= 1.00D+00 WtEn= 0.00D+00
 Coeff-Com: -0.714D-06 0.120D-05-0.431D-05-0.418D-04-0.208D-03-0.506D-03
 Coeff-Com: -0.763D-03 0.201D-02 0.103D-01 0.631D-02-0.888D-01-0.166D-01
 Coeff-Com:  0.343D+00 0.746D+00
 Coeff:     -0.714D-06 0.120D-05-0.431D-05-0.418D-04-0.208D-03-0.506D-03
 Coeff:     -0.763D-03 0.201D-02 0.103D-01 0.631D-02-0.888D-01-0.166D-01
 Coeff:      0.343D+00 0.746D+00
 Gap=     0.258 Goal=   None    Shift=    0.000
 RMSDP=1.27D-07 MaxDP=8.00D-06 DE=-2.13D-10 OVMax= 3.16D-06

 Cycle  15  Pass 1  IDiag  1:
 RMSU=  4.84D-08    CP:  5.67D-01  2.50D+00  1.96D+00  8.98D-01  8.45D-01
                    CP:  9.91D-01  1.15D+00  1.36D+00  1.37D+00  1.36D+00
                    CP:  1.49D+00  1.09D+00  1.22D+00  1.13D+00
 E= -3010.53608945715     Delta-E=       -0.000000000019 Rises=F Damp=F
 DIIS: error= 9.88D-08 at cycle  15 NSaved=  15.
 NSaved=15 IEnMin=15 EnMin= -3010.53608945715     IErMin=15 ErrMin= 9.88D-08
 ErrMax= 9.88D-08  0.00D+00 EMaxC= 1.00D-01 BMatC= 1.96D-12 BMatP= 1.63D-11
 IDIUse=1 WtCom= 1.00D+00 WtEn= 0.00D+00
 Coeff-Com:  0.443D-05-0.590D-05 0.139D-06-0.613D-05 0.123D-04-0.305D-04
 Coeff-Com: -0.176D-03 0.591D-05 0.188D-02 0.475D-02-0.141D-01-0.194D-01
 Coeff-Com: -0.812D-01 0.148D+00 0.960D+00
 Coeff:      0.443D-05-0.590D-05 0.139D-06-0.613D-05 0.123D-04-0.305D-04
 Coeff:     -0.176D-03 0.591D-05 0.188D-02 0.475D-02-0.141D-01-0.194D-01
 Coeff:     -0.812D-01 0.148D+00 0.960D+00
 Gap=     0.258 Goal=   None    Shift=    0.000
 RMSDP=5.36D-08 MaxDP=2.80D-06 DE=-1.91D-11 OVMax= 2.21D-06

 Cycle  16  Pass 1  IDiag  1:
 RMSU=  2.33D-08    CP:  5.67D-01  2.50D+00  1.96D+00  8.98D-01  8.45D-01
                    CP:  9.91D-01  1.15D+00  1.37D+00  1.37D+00  1.36D+00
                    CP:  1.50D+00  1.10D+00  1.25D+00  1.27D+00  1.19D+00
 E= -3010.53608945721     Delta-E=       -0.000000000052 Rises=F Damp=F
 DIIS: error= 2.65D-08 at cycle  16 NSaved=  16.
 NSaved=16 IEnMin=16 EnMin= -3010.53608945721     IErMin=16 ErrMin= 2.65D-08
 ErrMax= 2.65D-08  0.00D+00 EMaxC= 1.00D-01 BMatC= 4.99D-13 BMatP= 1.96D-12
 IDIUse=1 WtCom= 1.00D+00 WtEn= 0.00D+00
 Coeff-Com:  0.125D-05-0.169D-05 0.765D-06 0.475D-05 0.349D-04 0.636D-04
 Coeff-Com:  0.447D-04-0.320D-03-0.989D-03 0.908D-03 0.785D-02 0.399D-03
 Coeff-Com: -0.739D-01-0.836D-01 0.289D+00 0.861D+00
 Coeff:      0.125D-05-0.169D-05 0.765D-06 0.475D-05 0.349D-04 0.636D-04
 Coeff:      0.447D-04-0.320D-03-0.989D-03 0.908D-03 0.785D-02 0.399D-03
 Coeff:     -0.739D-01-0.836D-01 0.289D+00 0.861D+00
 Gap=     0.258 Goal=   None    Shift=    0.000
 RMSDP=2.69D-08 MaxDP=1.12D-06 DE=-5.18D-11 OVMax= 1.07D-06

 Cycle  17  Pass 1  IDiag  1:
 RMSU=  7.86D-09    CP:  5.67D-01  2.50D+00  1.96D+00  8.98D-01  8.45D-01
                    CP:  9.91D-01  1.15D+00  1.37D+00  1.37D+00  1.36D+00
                    CP:  1.50D+00  1.11D+00  1.25D+00  1.32D+00  1.48D+00
                    CP:  1.22D+00
 E= -3010.53608945718     Delta-E=        0.000000000022 Rises=F Damp=F
 DIIS: error= 1.81D-08 at cycle  17 NSaved=  17.
 NSaved=17 IEnMin=16 EnMin= -3010.53608945721     IErMin=17 ErrMin= 1.81D-08
 ErrMax= 1.81D-08  0.00D+00 EMaxC= 1.00D-01 BMatC= 8.53D-14 BMatP= 4.99D-13
 IDIUse=1 WtCom= 1.00D+00 WtEn= 0.00D+00
 Coeff-Com: -0.189D-06 0.249D-06 0.206D-06 0.137D-05 0.263D-05 0.128D-04
 Coeff-Com:  0.310D-04-0.301D-04-0.474D-03-0.446D-03 0.304D-02 0.465D-02
 Coeff-Com:  0.893D-03-0.548D-01-0.133D+00 0.158D+00 0.102D+01
 Coeff:     -0.189D-06 0.249D-06 0.206D-06 0.137D-05 0.263D-05 0.128D-04
 Coeff:      0.310D-04-0.301D-04-0.474D-03-0.446D-03 0.304D-02 0.465D-02
 Coeff:      0.893D-03-0.548D-01-0.133D+00 0.158D+00 0.102D+01
 Gap=     0.258 Goal=   None    Shift=    0.000
 RMSDP=1.38D-08 MaxDP=5.86D-07 DE= 2.18D-11 OVMax= 6.65D-07

 Cycle  18  Pass 1  IDiag  1:
 RMSU=  4.17D-09    CP:  5.67D-01  2.50D+00  1.96D+00  8.98D-01  8.45D-01
                    CP:  9.91D-01  1.15D+00  1.37D+00  1.37D+00  1.36D+00
                    CP:  1.50D+00  1.11D+00  1.25D+00  1.35D+00  1.57D+00
                    CP:  1.50D+00  1.38D+00
 E= -3010.53608945719     Delta-E=       -0.000000000011 Rises=F Damp=F
 DIIS: error= 5.66D-09 at cycle  18 NSaved=  18.
 NSaved=18 IEnMin=16 EnMin= -3010.53608945721     IErMin=18 ErrMin= 5.66D-09
 ErrMax= 5.66D-09  0.00D+00 EMaxC= 1.00D-01 BMatC= 2.23D-14 BMatP= 8.53D-14
 IDIUse=1 WtCom= 1.00D+00 WtEn= 0.00D+00
 Coeff-Com: -0.504D-07 0.693D-07-0.102D-06-0.125D-05-0.876D-05-0.137D-04
 Coeff-Com: -0.519D-05 0.911D-04 0.118D-03-0.359D-03-0.158D-02 0.160D-02
 Coeff-Com:  0.207D-01 0.750D-02-0.100D+00-0.201D+00 0.278D+00 0.995D+00
 Coeff:     -0.504D-07 0.693D-07-0.102D-06-0.125D-05-0.876D-05-0.137D-04
 Coeff:     -0.519D-05 0.911D-04 0.118D-03-0.359D-03-0.158D-02 0.160D-02
 Coeff:      0.207D-01 0.750D-02-0.100D+00-0.201D+00 0.278D+00 0.995D+00
 Gap=     0.258 Goal=   None    Shift=    0.000
 RMSDP=6.70D-09 MaxDP=2.89D-07 DE=-1.09D-11 OVMax= 2.75D-07

 SCF Done:  E(RwB97XD) =  -3010.53608946     A.U. after   18 cycles
            NFock= 18  Conv=0.67D-08     -V/T= 2.0016
 KE= 3.005857820859D+03 PE=-8.632814496873D+03 EE= 1.876671438957D+03
 Leave Link  502 at Wed May  1 15:22:52 2024, MaxMem=  1207959552 cpu:            1013.5 elap:            1013.7
 (Enter /software/gaussian/g16-c01/sse4/g16/l601.exe)
 Copying SCF densities to generalized density rwf, IOpCl= 0 IROHF=0.

 **********************************************************************

            Population analysis using the SCF Density.

 **********************************************************************

 Alpha  occ. eigenvalues -- -483.31833 -62.86871 -56.66546 -56.65998 -56.65995
 Alpha  occ. eigenvalues --  -19.45862 -19.45785 -14.85364 -10.58481 -10.57570
 Alpha  occ. eigenvalues --  -10.57203 -10.57015 -10.56746 -10.52933  -9.02686
 Alpha  occ. eigenvalues --   -6.85317  -6.83517  -6.83503  -2.95233  -2.94754
 Alpha  occ. eigenvalues --   -2.94741  -2.93300  -2.93300  -1.49623  -1.32597
 Alpha  occ. eigenvalues --   -1.22691  -1.14213  -1.11785  -1.04820  -1.01032
 Alpha  occ. eigenvalues --   -0.95509  -0.90955  -0.85253  -0.80739  -0.80638
 Alpha  occ. eigenvalues --   -0.79973  -0.78272  -0.76081  -0.75911  -0.72466
 Alpha  occ. eigenvalues --   -0.69357  -0.67556  -0.63856  -0.60383  -0.57356
 Alpha  occ. eigenvalues --   -0.56898  -0.56155  -0.55708  -0.55555
 Alpha virt. eigenvalues --   -0.29747  -0.21289  -0.15937  -0.13460  -0.08938
 Alpha virt. eigenvalues --   -0.06229  -0.06118  -0.05415  -0.04197  -0.03353
 Alpha virt. eigenvalues --   -0.02960  -0.02570  -0.01843  -0.01526  -0.00945
 Alpha virt. eigenvalues --    0.00737   0.01249   0.01648   0.02608   0.02661
 Alpha virt. eigenvalues --    0.04463   0.05075   0.05329   0.05917   0.06896
 Alpha virt. eigenvalues --    0.07107   0.07435   0.07858   0.08652   0.09324
 Alpha virt. eigenvalues --    0.10606   0.11076   0.11399   0.11864   0.12473
 Alpha virt. eigenvalues --    0.12727   0.13163   0.13740   0.15137   0.16196
 Alpha virt. eigenvalues --    0.16523   0.17308   0.17873   0.18630   0.19187
 Alpha virt. eigenvalues --    0.19324   0.20848   0.21522   0.21646   0.24439
 Alpha virt. eigenvalues --    0.25344   0.27729   0.27923   0.28805   0.30176
 Alpha virt. eigenvalues --    0.32299   0.33431   0.33809   0.34728   0.36115
 Alpha virt. eigenvalues --    0.37159   0.37931   0.38891   0.40565   0.41346
 Alpha virt. eigenvalues --    0.42529   0.43708   0.44333   0.46468   0.47323
 Alpha virt. eigenvalues --    0.47806   0.49841   0.50573   0.52048   0.53537
 Alpha virt. eigenvalues --    0.54089   0.55045   0.56557   0.56938   0.59412
 Alpha virt. eigenvalues --    0.61121   0.62184   0.63910   0.66544   0.68521
 Alpha virt. eigenvalues --    0.70184   0.71911   0.72629   0.73161   0.74193
 Alpha virt. eigenvalues --    0.74364   0.79315   0.79831   0.82622   0.84988
 Alpha virt. eigenvalues --    0.86166   0.87907   0.91788   0.92902   0.98464
 Alpha virt. eigenvalues --    0.99564   1.00979   1.04542   1.05318   1.06473
 Alpha virt. eigenvalues --    1.08957   1.10985   1.11948   1.12413   1.14208
 Alpha virt. eigenvalues --    1.22019   1.24481   1.26706   1.32890   1.36430
 Alpha virt. eigenvalues --    1.36813   1.37899   1.44983   1.54308   1.57048
 Alpha virt. eigenvalues --    1.58425   1.58693   1.60554   1.62319   1.66206
 Alpha virt. eigenvalues --    1.69077   1.69588   1.73470   1.75253   1.78961
 Alpha virt. eigenvalues --    1.81046   1.85408   1.87260   1.92725   1.94863
 Alpha virt. eigenvalues --    1.97600   2.02850   2.03696   2.06492   2.07875
 Alpha virt. eigenvalues --    2.09440   2.14630   2.20337   2.22622   2.29331
 Alpha virt. eigenvalues --    2.37574   2.41108   2.42552   2.43454   2.52409
 Alpha virt. eigenvalues --    2.56638   2.62978   2.66016   2.68139   2.71691
 Alpha virt. eigenvalues --    2.73348   2.76468   2.77304   2.80981   2.81648
 Alpha virt. eigenvalues --    2.93363   2.96225   3.00636   3.05465   3.08839
 Alpha virt. eigenvalues --    3.12941   3.14864   3.19008   3.23640   3.24244
 Alpha virt. eigenvalues --    3.27340   3.39080   3.47576   3.51173   3.54422
 Alpha virt. eigenvalues --    3.56798   3.69914   3.74096   3.82079   3.87061
 Alpha virt. eigenvalues --    4.08185   4.08423   4.15996   4.21198   4.42044
 Alpha virt. eigenvalues --    4.44340   4.57325   4.59853   4.93188   4.95856
 Alpha virt. eigenvalues --    5.04503   5.08670   5.62815   6.15758   6.63938
 Alpha virt. eigenvalues --    7.46850   7.48432   7.58260  23.21192  23.61201
 Alpha virt. eigenvalues --   23.69361  23.79350  23.95960  24.01310  35.32593
 Alpha virt. eigenvalues --   47.90554  49.85564  49.94375 289.79895 289.81563
 Alpha virt. eigenvalues --  289.940161020.90993
          Condensed to atoms (all electrons):
               1          2          3          4          5          6
     1  C    8.863001  -2.431255   0.336226  -1.658002  -0.643696   0.312427
     2  C   -2.431255  12.985994  -1.966610  -2.404284   0.836703  -0.015518
     3  C    0.336226  -1.966610  13.051978  -3.047528  -1.355657   0.023065
     4  C   -1.658002  -2.404284  -3.047528  14.472938   1.330960   0.012099
     5  C   -0.643696   0.836703  -1.355657   1.330960   7.403471   0.012893
     6  H    0.312427  -0.015518   0.023065   0.012099   0.012893   0.334301
     7  H    0.068024   0.229839   0.078479  -0.032211  -0.019148  -0.001800
     8  H    0.003779  -0.011033   0.072677   0.250211  -0.018544   0.000000
     9  H    0.029700  -0.013107   0.004470  -0.007091   0.311860  -0.002277
    10  N   -0.152939   0.347430  -0.939169   0.347768   0.024623  -0.000620
    11  O    0.012715  -0.062648  -0.256513  -0.017071  -0.054642  -0.000026
    12  O    0.328079  -0.035575  -0.273568  -0.098066  -0.043325   0.000010
    13  C    1.478247  -1.979165   0.941165  -3.438015  -1.839439  -0.009664
    14  H   -0.008449  -0.001762   0.003564  -0.072580  -0.026544  -0.000047
    15  Br   0.048851  -0.012085   0.049047   0.067421   0.061328  -0.000459
               7          8          9         10         11         12
     1  C    0.068024   0.003779   0.029700  -0.152939   0.012715   0.328079
     2  C    0.229839  -0.011033  -0.013107   0.347430  -0.062648  -0.035575
     3  C    0.078479   0.072677   0.004470  -0.939169  -0.256513  -0.273568
     4  C   -0.032211   0.250211  -0.007091   0.347768  -0.017071  -0.098066
     5  C   -0.019148  -0.018544   0.311860   0.024623  -0.054642  -0.043325
     6  H   -0.001800   0.000000  -0.002277  -0.000620  -0.000026   0.000010
     7  H    0.301040  -0.000007   0.000009  -0.026071  -0.001493   0.022460
     8  H   -0.000007   0.292484   0.000087  -0.023947   0.022324  -0.000813
     9  H    0.000009   0.000087   0.322832   0.000347   0.000010   0.000006
    10  N   -0.026071  -0.023947   0.000347   7.364174   0.181912   0.151898
    11  O   -0.001493   0.022324   0.000010   0.181912   7.842041   0.001012
    12  O    0.022460  -0.000813   0.000006   0.151898   0.001012   7.875115
    13  C    0.014286   0.039715   0.005468  -0.173420   0.301599   0.042912
    14  H   -0.000013  -0.003412  -0.004827   0.000134  -0.000317  -0.000089
    15  Br  -0.000138   0.001317  -0.000238   0.004370  -0.000253   0.001983
              13         14         15
     1  C    1.478247  -0.008449   0.048851
     2  C   -1.979165  -0.001762  -0.012085
     3  C    0.941165   0.003564   0.049047
     4  C   -3.438015  -0.072580   0.067421
     5  C   -1.839439  -0.026544   0.061328
     6  H   -0.009664  -0.000047  -0.000459
     7  H    0.014286  -0.000013  -0.000138
     8  H    0.039715  -0.003412   0.001317
     9  H    0.005468  -0.004827  -0.000238
    10  N   -0.173420   0.000134   0.004370
    11  O    0.301599  -0.000317  -0.000253
    12  O    0.042912  -0.000089   0.001983
    13  C   10.736756   0.410792  -0.059437
    14  H    0.410792   0.319265  -0.036366
    15  Br  -0.059437  -0.036366  34.743953
 Mulliken charges:
               1
     1  C   -0.586708
     2  C    0.533076
     3  C   -0.721627
     4  C    0.293451
     5  C    0.019159
     6  H    0.335614
     7  H    0.366744
     8  H    0.375160
     9  H    0.352752
    10  N   -0.106490
    11  O    0.031349
    12  O    0.027963
    13  C   -0.471800
    14  H    0.420653
    15  Br   0.130705
 Sum of Mulliken charges =   1.00000
 Mulliken charges with hydrogens summed into heavy atoms:
               1
     1  C   -0.251094
     2  C    0.899820
     3  C   -0.721627
     4  C    0.668610
     5  C    0.371911
    10  N   -0.106490
    11  O    0.031349
    12  O    0.027963
    13  C   -0.051147
    15  Br   0.130705
 Electronic spatial extent (au):  <R**2>=           2799.1200
 Charge=              1.0000 electrons
 Dipole moment (field-independent basis, Debye):
    X=             -0.7121    Y=             -0.4067    Z=              0.8102  Tot=              1.1528
 Quadrupole moment (field-independent basis, Debye-Ang):
   XX=            -71.0868   YY=            -52.2393   ZZ=            -63.5327
   XY=              1.1686   XZ=              1.4932   YZ=              0.9524
 Traceless Quadrupole moment (field-independent basis, Debye-Ang):
   XX=             -8.8005   YY=             10.0469   ZZ=             -1.2464
   XY=              1.1686   XZ=              1.4932   YZ=              0.9524
 Octapole moment (field-independent basis, Debye-Ang**2):
  XXX=           -298.6013  YYY=             88.8667  ZZZ=             81.1361  XYY=            -75.6532
  XXY=             30.2662  XXZ=             35.0084  XZZ=            -77.6150  YZZ=             18.1036
  YYZ=             27.8837  XYZ=             -2.9036
 Hexadecapole moment (field-independent basis, Debye-Ang**3):
 XXXX=          -2276.1415 YYYY=           -679.2103 ZZZZ=           -355.9687 XXXY=            -68.9047
 XXXZ=            -13.9230 YYYX=            -60.4521 YYYZ=           -159.5818 ZZZX=            -18.7765
 ZZZY=           -140.8525 XXYY=           -456.1155 XXZZ=           -371.4542 YYZZ=           -167.3204
 XXYZ=            -55.1952 YYXZ=             -2.0934 ZZXY=             -9.5914
 N-N= 7.397491476003D+02 E-N=-8.632814498468D+03  KE= 3.005857820859D+03
 No NMR shielding tensors so no spin-rotation constants.
 Leave Link  601 at Wed May  1 15:23:00 2024, MaxMem=  1207959552 cpu:               7.6 elap:               7.6
 (Enter /software/gaussian/g16-c01/sse4/g16/l9999.exe)
 Unable to Open any file for archive entry.
 1\1\GINC-BHX0022\SP\RwB97XD\6-311+G(d)\C6H5Br1N1O2(1+)\BWEIGHT\01-May-
 2024\0\\#P wB97XD/6-311+G* NoSymm #P Field=Z-48\\TitleMe\\1,1\C,0,0.02
 95,1.3397,0.0682\C,0,1.4348,1.2867,0.0064\C,0,2.1118,0.0511,-0.0054\C,
 0,1.4451,-1.1372,0.0312\C,0,-0.6879,0.1682,0.11\H,0,-0.4713,2.2984,0.0
 781\H,0,2.0273,2.1965,-0.0322\H,0,1.9897,-2.0764,0.0232\H,0,-1.7716,0.
 1804,0.1582\N,0,3.5864,0.051,-0.0675\O,0,4.1471,-1.0597,-0.0881\O,0,4.
 145,1.1639,-0.0901\C,0,-0.0236,-1.1458,0.0835\H,0,-0.4367,-1.8725,0.78
 89\Br,0,-0.5359,-1.8697,-1.7408\\Version=ES64L-G16RevC.01\HF=-3010.536
 0895\RMSD=6.705e-09\Dipole=-2.186694,0.988071,1.4649447\Quadrupole=-6.
 5429565,7.4696583,-0.9267018,0.8688013,1.1101405,0.7080783\PG=C01 [X(C
 6H5Br1N1O2)]\\@
 The archive entry for this job was punched.


 IN SO FAR AS QUANTUM MECHANICS IS CORRECT, CHEMICAL 
 QUESTIONS ARE PROBLEMS IN APPLIED MATHEMATICS.

                    -- EYRING, WALTER, & KIMBALL, 1944
 Job cpu time:       0 days  0 hours 18 minutes  1.0 seconds.
 Elapsed time:       0 days  0 hours 18 minutes  1.1 seconds.
 File lengths (MBytes):  RWF=     40 Int=      0 D2E=      0 Chk=     32 Scr=      1
 Normal termination of Gaussian 16 at Wed May  1 15:23:01 2024.
