 Entering Gaussian System, Link 0=g16
 Initial command:
 /software/gaussian/g16-c01/sse4/g16/l1.exe "/local_scratch/24665315/Gau-8688.inp" -scrdir="/local_scratch/24665315/"
 Entering Link 1 = /software/gaussian/g16-c01/sse4/g16/l1.exe PID=      8692.
  
 Copyright (c) 1988-2019, Gaussian, Inc.  All Rights Reserved.
  
 This is part of the Gaussian(R) 16 program.  It is based on
 the Gaussian(R) 09 system (copyright 2009, Gaussian, Inc.),
 the Gaussian(R) 03 system (copyright 2003, Gaussian, Inc.),
 the Gaussian(R) 98 system (copyright 1998, Gaussian, Inc.),
 the Gaussian(R) 94 system (copyright 1995, Gaussian, Inc.),
 the Gaussian 92(TM) system (copyright 1992, Gaussian, Inc.),
 the Gaussian 90(TM) system (copyright 1990, Gaussian, Inc.),
 the Gaussian 88(TM) system (copyright 1988, Gaussian, Inc.),
 the Gaussian 86(TM) system (copyright 1986, Carnegie Mellon
 University), and the Gaussian 82(TM) system (copyright 1983,
 Carnegie Mellon University). Gaussian is a federally registered
 trademark of Gaussian, Inc.
  
 This software contains proprietary and confidential information,
 including trade secrets, belonging to Gaussian, Inc.
  
 This software is provided under written license and may be
 used, copied, transmitted, or stored only in accord with that
 written license.
  
 The following legend is applicable only to US Government
 contracts under FAR:
  
                    RESTRICTED RIGHTS LEGEND
  
 Use, reproduction and disclosure by the US Government is
 subject to restrictions as set forth in subparagraphs (a)
 and (c) of the Commercial Computer Software - Restricted
 Rights clause in FAR 52.227-19.
  
 Gaussian, Inc.
 340 Quinnipiac St., Bldg. 40, Wallingford CT 06492
  
  
 ---------------------------------------------------------------
 Warning -- This program may not be used in any manner that
 competes with the business of Gaussian, Inc. or will provide
 assistance to any competitor of Gaussian, Inc.  The licensee
 of this program is prohibited from giving any competitor of
 Gaussian, Inc. access to this program.  By using this program,
 the user acknowledges that Gaussian, Inc. is engaged in the
 business of creating and licensing software in the field of
 computational chemistry and represents and warrants to the
 licensee that it is not a competitor of Gaussian, Inc. and that
 it will not use this program in any manner prohibited above.
 ---------------------------------------------------------------
  

 Cite this work as:
 Gaussian 16, Revision C.01,
 M. J. Frisch, G. W. Trucks, H. B. Schlegel, G. E. Scuseria, 
 M. A. Robb, J. R. Cheeseman, G. Scalmani, V. Barone, 
 G. A. Petersson, H. Nakatsuji, X. Li, M. Caricato, A. V. Marenich, 
 J. Bloino, B. G. Janesko, R. Gomperts, B. Mennucci, H. P. Hratchian, 
 J. V. Ortiz, A. F. Izmaylov, J. L. Sonnenberg, D. Williams-Young, 
 F. Ding, F. Lipparini, F. Egidi, J. Goings, B. Peng, A. Petrone, 
 T. Henderson, D. Ranasinghe, V. G. Zakrzewski, J. Gao, N. Rega, 
 G. Zheng, W. Liang, M. Hada, M. Ehara, K. Toyota, R. Fukuda, 
 J. Hasegawa, M. Ishida, T. Nakajima, Y. Honda, O. Kitao, H. Nakai, 
 T. Vreven, K. Throssell, J. A. Montgomery, Jr., J. E. Peralta, 
 F. Ogliaro, M. J. Bearpark, J. J. Heyd, E. N. Brothers, K. N. Kudin, 
 V. N. Staroverov, T. A. Keith, R. Kobayashi, J. Normand, 
 K. Raghavachari, A. P. Rendell, J. C. Burant, S. S. Iyengar, 
 J. Tomasi, M. Cossi, J. M. Millam, M. Klene, C. Adamo, R. Cammi, 
 J. W. Ochterski, R. L. Martin, K. Morokuma, O. Farkas, 
 J. B. Foresman, and D. J. Fox, Gaussian, Inc., Wallingford CT, 2019.
 
 ******************************************
 Gaussian 16:  ES64L-G16RevC.01  3-Jul-2019
                 2-May-2024 
 ******************************************
 %chk=geometry.chk
 %mem=1GB
 %nprocshared=12
 Will use up to   12 processors via shared memory.
 ---------------------------------------
 #P wB97XD/6-311+G* NoSymm #P Field=Y-77
 ---------------------------------------
 1/38=1,172=1/1;
 2/12=2,15=1,17=6,18=5,40=1/2;
 3/5=4,6=6,7=11,11=2,14=2,15=-77,25=1,30=1,74=-58/1,2,3;
 4//1;
 5/5=2,38=5/2;
 6/7=2,8=2,9=2,10=2,28=1/1;
 99/5=1,9=1/99;
 Leave Link    1 at Thu May  2 13:57:39 2024, MaxMem=   134217728 cpu:               1.5 elap:               1.5
 (Enter /software/gaussian/g16-c01/sse4/g16/l101.exe)
 -------
 TitleMe
 -------
 Symbolic Z-matrix:
 Charge =  1 Multiplicity = 1
 C                     0.5193    1.233    -0.0319 
 C                     1.9445    1.2692   -0.0367 
 C                     2.6204    0.0928   -0.025 
 C                    -0.196     0.0301    0.001 
 H                    -0.0207    2.1742   -0.0434 
 H                     2.4828    2.2089   -0.0361 
 H                    -1.2777    0.0399    0.0117 
 N                     4.0921    0.0959    0.0366 
 O                     4.6393   -1.0217    0.1446 
 O                     4.6649    1.1984   -0.0233 
 C                     0.4943   -1.1671    0.021 
 H                    -0.0325   -2.1149    0.0545 
 C                     1.9629   -1.2165   -0.0211 
 H                     2.4436   -1.9631    0.6151 
 Br                    2.173    -1.9491   -1.9062 
 
 ITRead=  0  0  0  0  0  0  0  0  0  0  0  0  0  0  0
 MicOpt= -1 -1 -1 -1 -1 -1 -1 -1 -1 -1 -1 -1 -1 -1 -1
 NAtoms=     15 NQM=       15 NQMF=       0 NMMI=      0 NMMIF=      0
                NMic=       0 NMicF=      0.
                    Isotopes and Nuclear Properties:
 (Nuclear quadrupole moments (NQMom) in fm**2, nuclear magnetic moments (NMagM)
  in nuclear magnetons)

  Atom         1           2           3           4           5           6           7           8           9          10
 IAtWgt=          12          12          12          12           1           1           1          14          16          16
 AtmWgt=  12.0000000  12.0000000  12.0000000  12.0000000   1.0078250   1.0078250   1.0078250  14.0030740  15.9949146  15.9949146
 NucSpn=           0           0           0           0           1           1           1           2           0           0
 AtZEff=  -0.0000000  -0.0000000  -0.0000000  -0.0000000  -0.0000000  -0.0000000  -0.0000000  -0.0000000  -0.0000000  -0.0000000
 NQMom=    0.0000000   0.0000000   0.0000000   0.0000000   0.0000000   0.0000000   0.0000000   2.0440000   0.0000000   0.0000000
 NMagM=    0.0000000   0.0000000   0.0000000   0.0000000   2.7928460   2.7928460   2.7928460   0.4037610   0.0000000   0.0000000
 AtZNuc=   6.0000000   6.0000000   6.0000000   6.0000000   1.0000000   1.0000000   1.0000000   7.0000000   8.0000000   8.0000000

  Atom        11          12          13          14          15
 IAtWgt=          12           1          12           1          79
 AtmWgt=  12.0000000   1.0078250  12.0000000   1.0078250  78.9183361
 NucSpn=           0           1           0           1           3
 AtZEff=  -0.0000000  -0.0000000  -0.0000000  -0.0000000  -0.0000000
 NQMom=    0.0000000   0.0000000   0.0000000   0.0000000  31.3000000
 NMagM=    0.0000000   2.7928460   0.0000000   2.7928460   2.1063990
 AtZNuc=   6.0000000   1.0000000   6.0000000   1.0000000  35.0000000
 Leave Link  101 at Thu May  2 13:57:41 2024, MaxMem=   134217728 cpu:               1.6 elap:               1.6
 (Enter /software/gaussian/g16-c01/sse4/g16/l202.exe)
                          Input orientation:                          
 ---------------------------------------------------------------------
 Center     Atomic      Atomic             Coordinates (Angstroms)
 Number     Number       Type             X           Y           Z
 ---------------------------------------------------------------------
      1          6           0        0.519300    1.233000   -0.031900
      2          6           0        1.944500    1.269200   -0.036700
      3          6           0        2.620400    0.092800   -0.025000
      4          6           0       -0.196000    0.030100    0.001000
      5          1           0       -0.020700    2.174200   -0.043400
      6          1           0        2.482800    2.208900   -0.036100
      7          1           0       -1.277700    0.039900    0.011700
      8          7           0        4.092100    0.095900    0.036600
      9          8           0        4.639300   -1.021700    0.144600
     10          8           0        4.664900    1.198400   -0.023300
     11          6           0        0.494300   -1.167100    0.021000
     12          1           0       -0.032500   -2.114900    0.054500
     13          6           0        1.962900   -1.216500   -0.021100
     14          1           0        2.443600   -1.963100    0.615100
     15         35           0        2.173000   -1.949100   -1.906200
 ---------------------------------------------------------------------
                    Distance matrix (angstroms):
                    1          2          3          4          5
     1  C    0.000000
     2  C    1.425668   0.000000
     3  C    2.390549   1.356796   0.000000
     4  C    1.399895   2.473566   2.817218   0.000000
     5  H    1.085168   2.163581   3.362733   2.151712   0.000000
     6  H    2.192654   1.082960   2.120598   3.453189   2.503751
     7  H    2.157452   3.449071   3.898632   1.081797   2.477564
     8  N    3.750012   2.448304   1.472992   4.288753   4.608780
     9  O    4.699917   3.541615   2.312322   4.950458   5.653735
    10  O    4.145753   2.721354   2.324292   4.999386   4.786171
    11  C    2.400813   2.835836   2.471794   1.382101   3.381369
    12  H    3.394169   3.920329   3.452266   2.151887   4.290233
    13  C    2.843264   2.485817   1.465124   2.493060   3.928360
    14  H    3.786370   3.334922   2.160489   3.364142   4.860416
    15  Br   4.046416   3.728900   2.812194   3.628609   5.028314
                    6          7          8          9         10
     6  H    0.000000
     7  H    4.341452   0.000000
     8  N    2.657047   5.370150   0.000000
     9  O    3.888434   6.012948   1.249048   0.000000
    10  O    2.404752   6.054572   1.243863   2.226587   0.000000
    11  C    3.918516   2.144043   3.813080   4.149391   4.794941
    12  H    5.003018   2.489080   4.679774   4.798846   5.748876
    13  C    3.464662   3.475788   2.501842   2.688591   3.623886
    14  H    4.222698   4.268978   2.700314   2.434893   3.916224
    15  Br   4.569706   4.420610   3.411663   3.338935   4.434144
                   11         12         13         14         15
    11  C    0.000000
    12  H    1.084880   0.000000
    13  C    1.470034   2.189625   0.000000
    14  H    2.187771   2.543302   1.092353   0.000000
    15  Br   2.672762   2.955683   2.033334   2.535818   0.000000
 Symmetry turned off by external request.
 Stoichiometry    C6H5BrNO2(1+)
 Framework group  C1[X(C6H5BrNO2)]
 Deg. of freedom    39
 Full point group                 C1      NOp   1
 Rotational constants (GHZ):           1.1632986           0.9594224           0.5957624
 Leave Link  202 at Thu May  2 13:57:42 2024, MaxMem=   134217728 cpu:               1.2 elap:               1.2
 (Enter /software/gaussian/g16-c01/sse4/g16/l301.exe)
 Standard basis: 6-311+G(d) (5D, 7F)
 Ernie: Thresh=  0.10000D-02 Tol=  0.10000D-05 Strict=F.
 The following finite field(s) will be applied:
 An electric field of              0.0000 -0.0077  0.0000
   261 basis functions,   443 primitive gaussians,   273 cartesian basis functions
    49 alpha electrons       49 beta electrons
       nuclear repulsion energy       772.8945969580 Hartrees.
 IExCor= 4639 DFT=T Ex+Corr=wB97XD ExCW=0 ScaHFX=  1.000000
 ScaDFX=  1.000000  1.000000  1.000000  1.000000 ScalE2=  1.000000  1.000000
 IRadAn=      5 IRanWt=     -1 IRanGd=            0 ICorTp=0 IEmpDi=121
 HFx  wShort=  0.000000 wLong=  0.200000 cFull=  0.222036 cShort=  0.000000 cLong=  0.777964
 DFx  wShort=  0.000000 wLong=  0.200000 cFull=  0.000000 cShort=  0.000000 cLong=  1.000000
 NAtoms=   15 NActive=   15 NUniq=   15 SFac= 1.00D+00 NAtFMM=   60 NAOKFM=F Big=F
 Integral buffers will be    131072 words long.
 Raffenetti 2 integral format.
 Two-electron integral symmetry is turned off.
 R6Disp:  Grimme-D2 Dispersion energy=       -0.0080346408 Hartrees.
 Nuclear repulsion after empirical dispersion term =      772.8865623173 Hartrees.
 Leave Link  301 at Thu May  2 13:57:44 2024, MaxMem=   134217728 cpu:               1.2 elap:               1.1
 (Enter /software/gaussian/g16-c01/sse4/g16/l302.exe)
 NPDir=0 NMtPBC=     1 NCelOv=     1 NCel=       1 NClECP=     1 NCelD=      1
         NCelK=      1 NCelE2=     1 NClLst=     1 CellRange=     0.0.
 One-electron integrals computed using PRISM.
 NBasis=   261 RedAO= T EigKep=  2.52D-06  NBF=   261
 NBsUse=   261 1.00D-06 EigRej= -1.00D+00 NBFU=   261
 Precomputing XC quadrature grid using
 IXCGrd= 4 IRadAn=           5 IRanWt=          -1 IRanGd=           0 AccXCQ= 0.00D+00.
 Generated NRdTot=       0 NPtTot=           0 NUsed=           0 NTot=          32
 NSgBfM=   273   273   273   273   273 MxSgAt=    15 MxSgA2=    15.
 Leave Link  302 at Thu May  2 13:58:05 2024, MaxMem=   134217728 cpu:              21.6 elap:              21.6
 (Enter /software/gaussian/g16-c01/sse4/g16/l303.exe)
 DipDrv:  MaxL=1.
 The nuclear repulsion energy is now       773.8227608341 hartrees.
 Leave Link  303 at Thu May  2 13:58:09 2024, MaxMem=   134217728 cpu:               3.3 elap:               3.3
 (Enter /software/gaussian/g16-c01/sse4/g16/l401.exe)
 ExpMin= 3.50D-02 ExpMax= 4.40D+05 ExpMxC= 1.51D+04 IAcc=3 IRadAn=         5 AccDes= 0.00D+00
 Harris functional with IExCor= 4639 and IRadAn=       5 diagonalized for initial guess.
 HarFok:  IExCor= 4639 AccDes= 0.00D+00 IRadAn=         5 IDoV= 1 UseB2=F ITyADJ=14
 ICtDFT=  3500011 ScaDFX=  1.000000  1.000000  1.000000  1.000000
 FoFCou: FMM=F IPFlag=           0 FMFlag=      100000 FMFlg1=           0
         NFxFlg=           0 DoJE=T BraDBF=F KetDBF=T FulRan=T
         wScrn=  0.000000 ICntrl=       500 IOpCl=  0 I1Cent=   200000004 NGrid=           0
         NMat0=    1 NMatS0=      1 NMatT0=    0 NMatD0=    1 NMtDS0=    0 NMtDT0=    0
 Symmetry not used in FoFCou.
 Harris En= -2970.60617109863    
 JPrj=0 DoOrth=F DoCkMO=F.
 Leave Link  401 at Thu May  2 13:58:41 2024, MaxMem=   134217728 cpu:              31.5 elap:              31.5
 (Enter /software/gaussian/g16-c01/sse4/g16/l502.exe)
 Two-electron integral symmetry not used.
 Closed shell SCF:
 Using DIIS extrapolation, IDIIS=  1040.
 NGot=   134217728 LenX=   134063053 LenY=   133988083
 Requested convergence on RMS density matrix=1.00D-08 within 128 cycles.
 Requested convergence on MAX density matrix=1.00D-06.
 Requested convergence on             energy=1.00D-06.
 No special actions if energy rises.
 Fock matrices will be formed incrementally for  20 cycles.

 Cycle   1  Pass 1  IDiag  1:
 FoFJK:  IHMeth= 1 ICntrl=       0 DoSepK=T KAlg= 0 I1Cent=           0 FoldK=F
 IRaf=         1 NMat=       1 IRICut=       1 DoRegI=T DoRafI=F ISym2E= 0 IDoP0=0 IntGTp=1.
 FoFCou: FMM=F IPFlag=           0 FMFlag=      100000 FMFlg1=           0
         NFxFlg=           0 DoJE=T BraDBF=F KetDBF=F FulRan=T
         wScrn=  0.000000 ICntrl=       500 IOpCl=  0 I1Cent=           0 NGrid=           0
         NMat0=    1 NMatS0=      1 NMatT0=    0 NMatD0=    1 NMtDS0=    0 NMtDT0=    0
 Symmetry not used in FoFCou.
 E= -3009.69478774054    
 DIIS: error= 2.90D-01 at cycle   1 NSaved=   1.
 NSaved= 1 IEnMin= 1 EnMin= -3009.69478774054     IErMin= 1 ErrMin= 2.90D-01
 ErrMax= 2.90D-01  0.00D+00 EMaxC= 1.00D-01 BMatC= 1.19D+01 BMatP= 1.19D+01
 IDIUse=3 WtCom= 0.00D+00 WtEn= 1.00D+00
 Coeff-Com:  0.100D+01
 Coeff-En:   0.100D+01
 Coeff:      0.100D+01
 Gap=     0.355 Goal=   None    Shift=    0.000
 GapD=    0.355 DampG=1.000 DampE=0.250 DampFc=0.2500 IDamp=-1.
 Damping current iteration by 2.50D-01
 RMSDP=5.90D-02 MaxDP=7.07D+00              OVMax= 2.54D-01

 Cycle   2  Pass 1  IDiag  1:
 RMSU=  5.83D-03    CP:  8.93D-01
 E= -3009.98595376910     Delta-E=       -0.291166028557 Rises=F Damp=T
 DIIS: error= 2.19D-01 at cycle   2 NSaved=   2.
 NSaved= 2 IEnMin= 2 EnMin= -3009.98595376910     IErMin= 2 ErrMin= 2.19D-01
 ErrMax= 2.19D-01  0.00D+00 EMaxC= 1.00D-01 BMatC= 5.46D+00 BMatP= 1.19D+01
 IDIUse=3 WtCom= 0.00D+00 WtEn= 1.00D+00
 Coeff-Com: -0.183D+01 0.283D+01
 Coeff-En:   0.000D+00 0.100D+01
 Coeff:      0.000D+00 0.100D+01
 Gap=     0.262 Goal=   None    Shift=    0.000
 RMSDP=4.29D-02 MaxDP=5.25D+00 DE=-2.91D-01 OVMax= 7.51D-02

 Cycle   3  Pass 1  IDiag  1:
 RMSU=  5.61D-03    CP:  5.68D-01  3.00D+00
 E= -3010.37999889110     Delta-E=       -0.394045122001 Rises=F Damp=F
 DIIS: error= 6.56D-02 at cycle   3 NSaved=   3.
 NSaved= 3 IEnMin= 3 EnMin= -3010.37999889110     IErMin= 3 ErrMin= 6.56D-02
 ErrMax= 6.56D-02  0.00D+00 EMaxC= 1.00D-01 BMatC= 7.26D-01 BMatP= 5.46D+00
 IDIUse=3 WtCom= 3.44D-01 WtEn= 6.56D-01
 Coeff-Com:  0.245D+01-0.320D+01 0.175D+01
 Coeff-En:   0.235D-01 0.000D+00 0.976D+00
 Coeff:      0.858D+00-0.110D+01 0.124D+01
 Gap=     0.265 Goal=   None    Shift=    0.000
 RMSDP=1.20D-02 MaxDP=7.04D-01 DE=-3.94D-01 OVMax= 7.44D-02

 Cycle   4  Pass 1  IDiag  1:
 RMSU=  5.19D-03    CP:  6.03D-01  1.68D+00  2.07D+00
 E= -3010.47748131068     Delta-E=       -0.097482419579 Rises=F Damp=F
 DIIS: error= 3.92D-02 at cycle   4 NSaved=   4.
 NSaved= 4 IEnMin= 4 EnMin= -3010.47748131068     IErMin= 4 ErrMin= 3.92D-02
 ErrMax= 3.92D-02  0.00D+00 EMaxC= 1.00D-01 BMatC= 2.48D-01 BMatP= 7.26D-01
 IDIUse=3 WtCom= 6.08D-01 WtEn= 3.92D-01
 Coeff-Com:  0.325D+00-0.417D+00 0.546D+00 0.546D+00
 Coeff-En:   0.000D+00 0.000D+00 0.229D+00 0.771D+00
 Coeff:      0.197D+00-0.253D+00 0.422D+00 0.634D+00
 Gap=     0.273 Goal=   None    Shift=    0.000
 RMSDP=3.94D-03 MaxDP=2.21D-01 DE=-9.75D-02 OVMax= 6.39D-02

 Cycle   5  Pass 1  IDiag  1:
 RMSU=  1.92D-03    CP:  5.91D-01  1.93D+00  2.03D+00  4.63D-01
 E= -3010.52271351491     Delta-E=       -0.045232204232 Rises=F Damp=F
 DIIS: error= 1.39D-02 at cycle   5 NSaved=   5.
 NSaved= 5 IEnMin= 5 EnMin= -3010.52271351491     IErMin= 5 ErrMin= 1.39D-02
 ErrMax= 1.39D-02  0.00D+00 EMaxC= 1.00D-01 BMatC= 1.68D-02 BMatP= 2.48D-01
 IDIUse=3 WtCom= 8.61D-01 WtEn= 1.39D-01
 Coeff-Com: -0.234D-01 0.378D-01 0.190D+00 0.397D+00 0.399D+00
 Coeff-En:   0.000D+00 0.000D+00 0.000D+00 0.645D-01 0.936D+00
 Coeff:     -0.202D-01 0.325D-01 0.163D+00 0.351D+00 0.474D+00
 Gap=     0.263 Goal=   None    Shift=    0.000
 RMSDP=3.67D-03 MaxDP=4.95D-01 DE=-4.52D-02 OVMax= 4.08D-02

 Cycle   6  Pass 1  IDiag  1:
 RMSU=  8.73D-04    CP:  5.68D-01  1.98D+00  2.00D+00  7.49D-01  3.16D-01
 E= -3010.53133439163     Delta-E=       -0.008620876722 Rises=F Damp=F
 DIIS: error= 4.36D-03 at cycle   6 NSaved=   6.
 NSaved= 6 IEnMin= 6 EnMin= -3010.53133439163     IErMin= 6 ErrMin= 4.36D-03
 ErrMax= 4.36D-03  0.00D+00 EMaxC= 1.00D-01 BMatC= 1.71D-03 BMatP= 1.68D-02
 IDIUse=3 WtCom= 9.56D-01 WtEn= 4.36D-02
 Coeff-Com: -0.695D-01 0.937D-01 0.810D-02 0.129D+00 0.315D+00 0.524D+00
 Coeff-En:   0.000D+00 0.000D+00 0.000D+00 0.000D+00 0.120D+00 0.880D+00
 Coeff:     -0.664D-01 0.896D-01 0.775D-02 0.123D+00 0.306D+00 0.539D+00
 Gap=     0.246 Goal=   None    Shift=    0.000
 RMSDP=9.08D-04 MaxDP=1.23D-01 DE=-8.62D-03 OVMax= 1.02D-02

 Cycle   7  Pass 1  IDiag  1:
 RMSU=  2.17D-04    CP:  5.74D-01  1.97D+00  2.03D+00  7.02D-01  5.22D-01
                    CP:  6.88D-01
 E= -3010.53254285892     Delta-E=       -0.001208467285 Rises=F Damp=F
 DIIS: error= 3.57D-04 at cycle   7 NSaved=   7.
 NSaved= 7 IEnMin= 7 EnMin= -3010.53254285892     IErMin= 7 ErrMin= 3.57D-04
 ErrMax= 3.57D-04  0.00D+00 EMaxC= 1.00D-01 BMatC= 1.97D-05 BMatP= 1.71D-03
 IDIUse=3 WtCom= 9.96D-01 WtEn= 3.57D-03
 Coeff-Com: -0.273D-01 0.363D-01-0.117D-01 0.205D-01 0.776D-01 0.192D+00
 Coeff-Com:  0.712D+00
 Coeff-En:   0.000D+00 0.000D+00 0.000D+00 0.000D+00 0.000D+00 0.000D+00
 Coeff-En:   0.100D+01
 Coeff:     -0.272D-01 0.362D-01-0.117D-01 0.204D-01 0.773D-01 0.192D+00
 Coeff:      0.713D+00
 Gap=     0.247 Goal=   None    Shift=    0.000
 RMSDP=3.30D-04 MaxDP=4.36D-02 DE=-1.21D-03 OVMax= 2.70D-03

 Cycle   8  Pass 1  IDiag  1:
 RMSU=  9.10D-05    CP:  5.71D-01  1.96D+00  2.03D+00  7.18D-01  5.24D-01
                    CP:  8.16D-01  9.29D-01
 E= -3010.53257202123     Delta-E=       -0.000029162313 Rises=F Damp=F
 DIIS: error= 9.30D-05 at cycle   8 NSaved=   8.
 NSaved= 8 IEnMin= 8 EnMin= -3010.53257202123     IErMin= 8 ErrMin= 9.30D-05
 ErrMax= 9.30D-05  0.00D+00 EMaxC= 1.00D-01 BMatC= 2.62D-06 BMatP= 1.97D-05
 IDIUse=1 WtCom= 1.00D+00 WtEn= 0.00D+00
 Coeff-Com:  0.616D-02-0.845D-02-0.362D-02-0.151D-01-0.333D-01-0.499D-01
 Coeff-Com:  0.154D+00 0.950D+00
 Coeff:      0.616D-02-0.845D-02-0.362D-02-0.151D-01-0.333D-01-0.499D-01
 Coeff:      0.154D+00 0.950D+00
 Gap=     0.247 Goal=   None    Shift=    0.000
 RMSDP=7.88D-05 MaxDP=3.89D-03 DE=-2.92D-05 OVMax= 2.39D-03

 Cycle   9  Pass 1  IDiag  1:
 RMSU=  3.23D-05    CP:  5.71D-01  1.96D+00  2.03D+00  7.25D-01  5.30D-01
                    CP:  8.33D-01  1.09D+00  1.33D+00
 E= -3010.53258075360     Delta-E=       -0.000008732374 Rises=F Damp=F
 DIIS: error= 4.83D-05 at cycle   9 NSaved=   9.
 NSaved= 9 IEnMin= 9 EnMin= -3010.53258075360     IErMin= 9 ErrMin= 4.83D-05
 ErrMax= 4.83D-05  0.00D+00 EMaxC= 1.00D-01 BMatC= 4.75D-07 BMatP= 2.62D-06
 IDIUse=1 WtCom= 1.00D+00 WtEn= 0.00D+00
 Coeff-Com:  0.724D-02-0.972D-02 0.103D-02-0.837D-02-0.189D-01-0.386D-01
 Coeff-Com: -0.682D-01 0.239D+00 0.896D+00
 Coeff:      0.724D-02-0.972D-02 0.103D-02-0.837D-02-0.189D-01-0.386D-01
 Coeff:     -0.682D-01 0.239D+00 0.896D+00
 Gap=     0.247 Goal=   None    Shift=    0.000
 RMSDP=7.25D-05 MaxDP=9.13D-03 DE=-8.73D-06 OVMax= 1.33D-03

 Cycle  10  Pass 1  IDiag  1:
 RMSU=  1.35D-05    CP:  5.71D-01  1.96D+00  2.03D+00  7.26D-01  5.27D-01
                    CP:  8.49D-01  1.12D+00  1.63D+00  1.11D+00
 E= -3010.53258286026     Delta-E=       -0.000002106660 Rises=F Damp=F
 DIIS: error= 2.41D-05 at cycle  10 NSaved=  10.
 NSaved=10 IEnMin=10 EnMin= -3010.53258286026     IErMin=10 ErrMin= 2.41D-05
 ErrMax= 2.41D-05  0.00D+00 EMaxC= 1.00D-01 BMatC= 1.42D-07 BMatP= 4.75D-07
 IDIUse=1 WtCom= 1.00D+00 WtEn= 0.00D+00
 Coeff-Com:  0.237D-03-0.283D-03 0.717D-03 0.106D-02 0.676D-02 0.117D-01
 Coeff-Com: -0.433D-01-0.202D+00 0.179D+00 0.105D+01
 Coeff:      0.237D-03-0.283D-03 0.717D-03 0.106D-02 0.676D-02 0.117D-01
 Coeff:     -0.433D-01-0.202D+00 0.179D+00 0.105D+01
 Gap=     0.247 Goal=   None    Shift=    0.000
 RMSDP=2.55D-05 MaxDP=2.24D-03 DE=-2.11D-06 OVMax= 8.31D-04

 Cycle  11  Pass 1  IDiag  1:
 RMSU=  1.38D-05    CP:  5.71D-01  1.96D+00  2.03D+00  7.24D-01  5.27D-01
                    CP:  8.51D-01  1.12D+00  1.80D+00  1.36D+00  1.24D+00
 E= -3010.53258346687     Delta-E=       -0.000000606608 Rises=F Damp=F
 DIIS: error= 9.72D-06 at cycle  11 NSaved=  11.
 NSaved=11 IEnMin=11 EnMin= -3010.53258346687     IErMin=11 ErrMin= 9.72D-06
 ErrMax= 9.72D-06  0.00D+00 EMaxC= 1.00D-01 BMatC= 1.52D-08 BMatP= 1.42D-07
 IDIUse=1 WtCom= 1.00D+00 WtEn= 0.00D+00
 Coeff-Com: -0.382D-03 0.520D-03 0.166D-03 0.982D-03 0.312D-02 0.672D-02
 Coeff-Com:  0.306D-02-0.605D-01-0.783D-01 0.139D+00 0.986D+00
 Coeff:     -0.382D-03 0.520D-03 0.166D-03 0.982D-03 0.312D-02 0.672D-02
 Coeff:      0.306D-02-0.605D-01-0.783D-01 0.139D+00 0.986D+00
 Gap=     0.247 Goal=   None    Shift=    0.000
 RMSDP=1.48D-05 MaxDP=1.44D-03 DE=-6.07D-07 OVMax= 2.88D-04

 Cycle  12  Pass 1  IDiag  1:
 RMSU=  2.48D-06    CP:  5.70D-01  1.96D+00  2.03D+00  7.23D-01  5.26D-01
                    CP:  8.51D-01  1.11D+00  1.87D+00  1.38D+00  1.42D+00
                    CP:  1.44D+00
 E= -3010.53258355817     Delta-E=       -0.000000091296 Rises=F Damp=F
 DIIS: error= 7.09D-06 at cycle  12 NSaved=  12.
 NSaved=12 IEnMin=12 EnMin= -3010.53258355817     IErMin=12 ErrMin= 7.09D-06
 ErrMax= 7.09D-06  0.00D+00 EMaxC= 1.00D-01 BMatC= 6.79D-09 BMatP= 1.52D-08
 IDIUse=1 WtCom= 1.00D+00 WtEn= 0.00D+00
 Coeff-Com: -0.148D-03 0.193D-03-0.634D-04 0.166D-03-0.628D-03-0.437D-03
 Coeff-Com:  0.144D-01 0.267D-01-0.957D-01-0.256D+00 0.521D+00 0.790D+00
 Coeff:     -0.148D-03 0.193D-03-0.634D-04 0.166D-03-0.628D-03-0.437D-03
 Coeff:      0.144D-01 0.267D-01-0.957D-01-0.256D+00 0.521D+00 0.790D+00
 Gap=     0.247 Goal=   None    Shift=    0.000
 RMSDP=6.40D-06 MaxDP=5.93D-04 DE=-9.13D-08 OVMax= 1.73D-04

 Cycle  13  Pass 1  IDiag  1:
 RMSU=  1.26D-06    CP:  5.70D-01  1.96D+00  2.03D+00  7.23D-01  5.26D-01
                    CP:  8.51D-01  1.11D+00  1.90D+00  1.41D+00  1.49D+00
                    CP:  1.74D+00  1.25D+00
 E= -3010.53258358508     Delta-E=       -0.000000026916 Rises=F Damp=F
 DIIS: error= 2.30D-06 at cycle  13 NSaved=  13.
 NSaved=13 IEnMin=13 EnMin= -3010.53258358508     IErMin=13 ErrMin= 2.30D-06
 ErrMax= 2.30D-06  0.00D+00 EMaxC= 1.00D-01 BMatC= 5.08D-10 BMatP= 6.79D-09
 IDIUse=1 WtCom= 1.00D+00 WtEn= 0.00D+00
 Coeff-Com:  0.133D-04-0.186D-04-0.282D-04-0.102D-03-0.481D-03-0.104D-02
 Coeff-Com: -0.358D-03 0.756D-02 0.121D-01-0.234D-01-0.127D+00 0.469D-01
 Coeff-Com:  0.109D+01
 Coeff:      0.133D-04-0.186D-04-0.282D-04-0.102D-03-0.481D-03-0.104D-02
 Coeff:     -0.358D-03 0.756D-02 0.121D-01-0.234D-01-0.127D+00 0.469D-01
 Coeff:      0.109D+01
 Gap=     0.247 Goal=   None    Shift=    0.000
 RMSDP=1.52D-06 MaxDP=9.14D-05 DE=-2.69D-08 OVMax= 4.59D-05

 Cycle  14  Pass 1  IDiag  1:
 RMSU=  3.98D-07    CP:  5.70D-01  1.96D+00  2.03D+00  7.23D-01  5.25D-01
                    CP:  8.50D-01  1.11D+00  1.90D+00  1.42D+00  1.50D+00
                    CP:  1.79D+00  1.47D+00  1.57D+00
 E= -3010.53258358812     Delta-E=       -0.000000003037 Rises=F Damp=F
 DIIS: error= 9.49D-07 at cycle  14 NSaved=  14.
 NSaved=14 IEnMin=14 EnMin= -3010.53258358812     IErMin=14 ErrMin= 9.49D-07
 ErrMax= 9.49D-07  0.00D+00 EMaxC= 1.00D-01 BMatC= 1.42D-10 BMatP= 5.08D-10
 IDIUse=1 WtCom= 1.00D+00 WtEn= 0.00D+00
 Coeff-Com:  0.680D-05-0.841D-05-0.872D-05-0.593D-04-0.383D-04-0.255D-03
 Coeff-Com: -0.297D-02-0.229D-02 0.246D-01 0.413D-01-0.157D+00-0.136D+00
 Coeff-Com:  0.431D+00 0.801D+00
 Coeff:      0.680D-05-0.841D-05-0.872D-05-0.593D-04-0.383D-04-0.255D-03
 Coeff:     -0.297D-02-0.229D-02 0.246D-01 0.413D-01-0.157D+00-0.136D+00
 Coeff:      0.431D+00 0.801D+00
 Gap=     0.247 Goal=   None    Shift=    0.000
 RMSDP=6.55D-07 MaxDP=4.39D-05 DE=-3.04D-09 OVMax= 1.76D-05

 Cycle  15  Pass 1  IDiag  1:
 RMSU=  1.88D-07    CP:  5.70D-01  1.96D+00  2.03D+00  7.23D-01  5.25D-01
                    CP:  8.50D-01  1.11D+00  1.91D+00  1.41D+00  1.51D+00
                    CP:  1.81D+00  1.57D+00  1.80D+00  1.39D+00
 E= -3010.53258358865     Delta-E=       -0.000000000533 Rises=F Damp=F
 DIIS: error= 3.78D-07 at cycle  15 NSaved=  15.
 NSaved=15 IEnMin=15 EnMin= -3010.53258358865     IErMin=15 ErrMin= 3.78D-07
 ErrMax= 3.78D-07  0.00D+00 EMaxC= 1.00D-01 BMatC= 1.28D-11 BMatP= 1.42D-10
 IDIUse=1 WtCom= 1.00D+00 WtEn= 0.00D+00
 Coeff-Com:  0.133D-05-0.158D-05 0.368D-05 0.307D-05 0.366D-04 0.890D-04
 Coeff-Com: -0.383D-03-0.756D-03 0.937D-03 0.602D-02 0.162D-02-0.236D-01
 Coeff-Com: -0.120D+00 0.906D-01 0.105D+01
 Coeff:      0.133D-05-0.158D-05 0.368D-05 0.307D-05 0.366D-04 0.890D-04
 Coeff:     -0.383D-03-0.756D-03 0.937D-03 0.602D-02 0.162D-02-0.236D-01
 Coeff:     -0.120D+00 0.906D-01 0.105D+01
 Gap=     0.247 Goal=   None    Shift=    0.000
 RMSDP=4.04D-07 MaxDP=3.37D-05 DE=-5.33D-10 OVMax= 7.79D-06

 Cycle  16  Pass 1  IDiag  1:
 RMSU=  8.27D-08    CP:  5.70D-01  1.96D+00  2.03D+00  7.23D-01  5.25D-01
                    CP:  8.50D-01  1.11D+00  1.91D+00  1.41D+00  1.51D+00
                    CP:  1.82D+00  1.62D+00  1.86D+00  1.56D+00  1.62D+00
 E= -3010.53258358872     Delta-E=       -0.000000000061 Rises=F Damp=F
 DIIS: error= 9.95D-08 at cycle  16 NSaved=  16.
 NSaved=16 IEnMin=16 EnMin= -3010.53258358872     IErMin=16 ErrMin= 9.95D-08
 ErrMax= 9.95D-08  0.00D+00 EMaxC= 1.00D-01 BMatC= 1.71D-12 BMatP= 1.28D-11
 IDIUse=1 WtCom= 1.00D+00 WtEn= 0.00D+00
 Coeff-Com: -0.237D-06 0.309D-06 0.223D-05 0.756D-05 0.926D-05 0.430D-04
 Coeff-Com:  0.180D-03 0.129D-03-0.225D-02-0.251D-02 0.168D-01 0.740D-02
 Coeff-Com: -0.637D-01-0.657D-01 0.196D+00 0.913D+00
 Coeff:     -0.237D-06 0.309D-06 0.223D-05 0.756D-05 0.926D-05 0.430D-04
 Coeff:      0.180D-03 0.129D-03-0.225D-02-0.251D-02 0.168D-01 0.740D-02
 Coeff:     -0.637D-01-0.657D-01 0.196D+00 0.913D+00
 Gap=     0.247 Goal=   None    Shift=    0.000
 RMSDP=9.39D-08 MaxDP=6.36D-06 DE=-6.09D-11 OVMax= 1.65D-06

 Cycle  17  Pass 1  IDiag  1:
 RMSU=  2.24D-08    CP:  5.70D-01  1.96D+00  2.03D+00  7.23D-01  5.25D-01
                    CP:  8.50D-01  1.11D+00  1.91D+00  1.41D+00  1.51D+00
                    CP:  1.82D+00  1.63D+00  1.87D+00  1.62D+00  1.89D+00
                    CP:  1.26D+00
 E= -3010.53258358873     Delta-E=       -0.000000000016 Rises=F Damp=F
 DIIS: error= 3.67D-08 at cycle  17 NSaved=  17.
 NSaved=17 IEnMin=17 EnMin= -3010.53258358873     IErMin=17 ErrMin= 3.67D-08
 ErrMax= 3.67D-08  0.00D+00 EMaxC= 1.00D-01 BMatC= 2.72D-13 BMatP= 1.71D-12
 IDIUse=1 WtCom= 1.00D+00 WtEn= 0.00D+00
 Coeff-Com: -0.128D-05 0.169D-05 0.322D-07 0.251D-05-0.124D-05 0.201D-05
 Coeff-Com:  0.742D-04 0.139D-03-0.780D-03-0.138D-02 0.418D-02 0.360D-02
 Coeff-Com: -0.979D-03-0.293D-01-0.816D-01 0.226D+00 0.880D+00
 Coeff:     -0.128D-05 0.169D-05 0.322D-07 0.251D-05-0.124D-05 0.201D-05
 Coeff:      0.742D-04 0.139D-03-0.780D-03-0.138D-02 0.418D-02 0.360D-02
 Coeff:     -0.979D-03-0.293D-01-0.816D-01 0.226D+00 0.880D+00
 Gap=     0.247 Goal=   None    Shift=    0.000
 RMSDP=7.04D-08 MaxDP=6.89D-06 DE=-1.64D-11 OVMax= 6.65D-07

 Cycle  18  Pass 1  IDiag  1:
 RMSU=  6.45D-09    CP:  5.70D-01  1.96D+00  2.03D+00  7.23D-01  5.25D-01
                    CP:  8.50D-01  1.11D+00  1.91D+00  1.41D+00  1.51D+00
                    CP:  1.82D+00  1.63D+00  1.86D+00  1.62D+00  1.97D+00
                    CP:  1.41D+00  1.27D+00
 E= -3010.53258358869     Delta-E=        0.000000000039 Rises=F Damp=F
 DIIS: error= 1.73D-08 at cycle  18 NSaved=  18.
 NSaved=18 IEnMin=17 EnMin= -3010.53258358873     IErMin=18 ErrMin= 1.73D-08
 ErrMax= 1.73D-08  0.00D+00 EMaxC= 1.00D-01 BMatC= 6.62D-14 BMatP= 2.72D-13
 IDIUse=1 WtCom= 1.00D+00 WtEn= 0.00D+00
 Coeff-Com: -0.573D-06 0.767D-06-0.440D-06-0.497D-06-0.234D-05-0.783D-05
 Coeff-Com: -0.121D-04 0.506D-04 0.168D-03 0.372D-04-0.161D-02-0.341D-03
 Coeff-Com:  0.123D-01 0.309D-02-0.635D-01-0.115D+00 0.301D+00 0.863D+00
 Coeff:     -0.573D-06 0.767D-06-0.440D-06-0.497D-06-0.234D-05-0.783D-05
 Coeff:     -0.121D-04 0.506D-04 0.168D-03 0.372D-04-0.161D-02-0.341D-03
 Coeff:      0.123D-01 0.309D-02-0.635D-01-0.115D+00 0.301D+00 0.863D+00
 Gap=     0.247 Goal=   None    Shift=    0.000
 RMSDP=2.72D-08 MaxDP=2.54D-06 DE= 3.91D-11 OVMax= 3.22D-07

 Cycle  19  Pass 1  IDiag  1:
 RMSU=  4.52D-09    CP:  5.70D-01  1.96D+00  2.03D+00  7.23D-01  5.25D-01
                    CP:  8.50D-01  1.11D+00  1.91D+00  1.41D+00  1.51D+00
                    CP:  1.82D+00  1.63D+00  1.86D+00  1.61D+00  2.01D+00
                    CP:  1.49D+00  1.47D+00  1.29D+00
 E= -3010.53258358872     Delta-E=       -0.000000000026 Rises=F Damp=F
 DIIS: error= 9.54D-09 at cycle  19 NSaved=  19.
 NSaved=19 IEnMin=17 EnMin= -3010.53258358873     IErMin=19 ErrMin= 9.54D-09
 ErrMax= 9.54D-09  0.00D+00 EMaxC= 1.00D-01 BMatC= 6.23D-15 BMatP= 6.62D-14
 IDIUse=1 WtCom= 1.00D+00 WtEn= 0.00D+00
 Coeff-Com: -0.161D-07 0.233D-07-0.486D-07-0.201D-06-0.109D-06-0.112D-05
 Coeff-Com: -0.106D-04-0.194D-04 0.840D-04 0.156D-03-0.565D-03-0.468D-03
 Coeff-Com:  0.423D-03 0.371D-02 0.814D-02-0.360D-01-0.756D-01 0.491D-02
 Coeff-Com:  0.110D+01
 Coeff:     -0.161D-07 0.233D-07-0.486D-07-0.201D-06-0.109D-06-0.112D-05
 Coeff:     -0.106D-04-0.194D-04 0.840D-04 0.156D-03-0.565D-03-0.468D-03
 Coeff:      0.423D-03 0.371D-02 0.814D-02-0.360D-01-0.756D-01 0.491D-02
 Coeff:      0.110D+01
 Gap=     0.247 Goal=   None    Shift=    0.000
 RMSDP=7.47D-09 MaxDP=7.72D-07 DE=-2.64D-11 OVMax= 1.80D-07

 SCF Done:  E(RwB97XD) =  -3010.53258359     A.U. after   19 cycles
            NFock= 19  Conv=0.75D-08     -V/T= 2.0016
 KE= 3.005862303096D+03 PE=-8.700790930782D+03 EE= 1.910573283263D+03
 Leave Link  502 at Thu May  2 14:18:35 2024, MaxMem=   134217728 cpu:            1194.2 elap:            1194.6
 (Enter /software/gaussian/g16-c01/sse4/g16/l601.exe)
 Copying SCF densities to generalized density rwf, IOpCl= 0 IROHF=0.

 **********************************************************************

            Population analysis using the SCF Density.

 **********************************************************************

 Alpha  occ. eigenvalues -- -483.32242 -62.87278 -56.66956 -56.66406 -56.66400
 Alpha  occ. eigenvalues --  -19.46334 -19.46191 -14.85690 -10.59341 -10.59025
 Alpha  occ. eigenvalues --  -10.57796 -10.57005 -10.53185 -10.53027  -9.03093
 Alpha  occ. eigenvalues --   -6.85731  -6.83922  -6.83905  -2.95645  -2.95165
 Alpha  occ. eigenvalues --   -2.95150  -2.93703  -2.93702  -1.49949  -1.32906
 Alpha  occ. eigenvalues --   -1.22814  -1.13251  -1.12774  -1.05445  -1.00652
 Alpha  occ. eigenvalues --   -0.95675  -0.90797  -0.85157  -0.81055  -0.80435
 Alpha  occ. eigenvalues --   -0.80134  -0.78214  -0.76241  -0.75864  -0.72425
 Alpha  occ. eigenvalues --   -0.68788  -0.67669  -0.63660  -0.60463  -0.57721
 Alpha  occ. eigenvalues --   -0.57445  -0.56823  -0.55935  -0.55198
 Alpha virt. eigenvalues --   -0.30509  -0.20450  -0.16496  -0.13322  -0.10754
 Alpha virt. eigenvalues --   -0.07348  -0.06626  -0.06040  -0.04401  -0.03330
 Alpha virt. eigenvalues --   -0.03146  -0.02588  -0.02362  -0.01758  -0.01007
 Alpha virt. eigenvalues --    0.00151   0.01205   0.01806   0.02493   0.03016
 Alpha virt. eigenvalues --    0.03894   0.04832   0.05434   0.05929   0.06630
 Alpha virt. eigenvalues --    0.07195   0.07406   0.08550   0.08817   0.09624
 Alpha virt. eigenvalues --    0.10398   0.10957   0.11364   0.11590   0.12735
 Alpha virt. eigenvalues --    0.13131   0.13384   0.14145   0.14640   0.15934
 Alpha virt. eigenvalues --    0.16497   0.17763   0.18164   0.18370   0.19081
 Alpha virt. eigenvalues --    0.20372   0.21662   0.21914   0.22473   0.24160
 Alpha virt. eigenvalues --    0.24898   0.26512   0.27238   0.28829   0.30414
 Alpha virt. eigenvalues --    0.31139   0.33030   0.33433   0.34749   0.36533
 Alpha virt. eigenvalues --    0.36959   0.37431   0.39614   0.40467   0.41312
 Alpha virt. eigenvalues --    0.43245   0.44114   0.45667   0.46845   0.47465
 Alpha virt. eigenvalues --    0.48404   0.49869   0.50568   0.51669   0.53795
 Alpha virt. eigenvalues --    0.54667   0.55184   0.57575   0.58592   0.59970
 Alpha virt. eigenvalues --    0.61235   0.62018   0.63857   0.66466   0.68169
 Alpha virt. eigenvalues --    0.71528   0.71876   0.72577   0.73662   0.74540
 Alpha virt. eigenvalues --    0.75016   0.77872   0.79964   0.82395   0.85269
 Alpha virt. eigenvalues --    0.86897   0.87492   0.91513   0.94048   0.98921
 Alpha virt. eigenvalues --    1.00121   1.02346   1.03916   1.05462   1.06889
 Alpha virt. eigenvalues --    1.08231   1.12593   1.13409   1.14216   1.18119
 Alpha virt. eigenvalues --    1.20583   1.22762   1.28079   1.33104   1.36222
 Alpha virt. eigenvalues --    1.36720   1.38826   1.42755   1.54558   1.56487
 Alpha virt. eigenvalues --    1.57370   1.59789   1.61036   1.63856   1.65502
 Alpha virt. eigenvalues --    1.68049   1.71334   1.73922   1.75088   1.79336
 Alpha virt. eigenvalues --    1.83560   1.85379   1.87552   1.93806   1.95450
 Alpha virt. eigenvalues --    1.97667   2.01956   2.02902   2.07013   2.08493
 Alpha virt. eigenvalues --    2.12475   2.14484   2.22251   2.23614   2.27646
 Alpha virt. eigenvalues --    2.33564   2.39518   2.41554   2.44149   2.53189
 Alpha virt. eigenvalues --    2.57754   2.63115   2.65986   2.68732   2.71676
 Alpha virt. eigenvalues --    2.73718   2.76333   2.77357   2.80568   2.81775
 Alpha virt. eigenvalues --    2.92943   2.97909   3.01292   3.05326   3.08927
 Alpha virt. eigenvalues --    3.14869   3.16384   3.17465   3.22422   3.26622
 Alpha virt. eigenvalues --    3.28058   3.37870   3.46662   3.50101   3.54733
 Alpha virt. eigenvalues --    3.57426   3.68867   3.74204   3.83502   3.87215
 Alpha virt. eigenvalues --    4.08891   4.09733   4.18415   4.22491   4.42331
 Alpha virt. eigenvalues --    4.45116   4.54451   4.59853   4.93610   4.96314
 Alpha virt. eigenvalues --    5.05382   5.09565   5.61978   6.15145   6.66905
 Alpha virt. eigenvalues --    7.47750   7.50082   7.60221  23.22032  23.61207
 Alpha virt. eigenvalues --   23.71153  23.77952  23.95541  24.02255  35.31473
 Alpha virt. eigenvalues --   47.93062  49.85200  49.93860 289.80718 289.83059
 Alpha virt. eigenvalues --  289.956911020.94266
          Condensed to atoms (all electrons):
               1          2          3          4          5          6
     1  C    7.555510  -1.927780   0.624223  -0.011224   0.296069   0.049879
     2  C   -1.927780  16.773233  -3.476207   0.400362  -0.011338   0.211107
     3  C    0.624223  -3.476207  19.643129  -1.306578   0.022002   0.095390
     4  C   -0.011224   0.400362  -1.306578   6.361122   0.016329  -0.012457
     5  H    0.296069  -0.011338   0.022002   0.016329   0.302881  -0.001239
     6  H    0.049879   0.211107   0.095390  -0.012457  -0.001239   0.288087
     7  H    0.036455  -0.026543   0.021894   0.306037  -0.002464   0.000001
     8  N   -0.089774  -0.141432  -1.897457   0.032899  -0.000335  -0.026285
     9  O   -0.000403   0.267657  -0.012598  -0.022234  -0.000027  -0.002215
    10  O    0.249077  -0.143095  -0.256053  -0.019774  -0.000019   0.019105
    11  C    0.714017  -0.589452   2.290186  -0.257259  -0.021293   0.007196
    12  H   -0.018496   0.020080   0.010098   0.031174   0.000027  -0.000018
    13  C   -1.382251  -5.311847  -9.489419   0.817787   0.022707  -0.006963
    14  H    0.002791   0.002741   0.020759  -0.002451  -0.000030   0.000055
    15  Br   0.015961  -0.238928  -0.227610  -0.020041   0.000023  -0.000465
               7          8          9         10         11         12
     1  C    0.036455  -0.089774  -0.000403   0.249077   0.714017  -0.018496
     2  C   -0.026543  -0.141432   0.267657  -0.143095  -0.589452   0.020080
     3  C    0.021894  -1.897457  -0.012598  -0.256053   2.290186   0.010098
     4  C    0.306037   0.032899  -0.022234  -0.019774  -0.257259   0.031174
     5  H   -0.002464  -0.000335  -0.000027  -0.000019  -0.021293   0.000027
     6  H    0.000001  -0.026285  -0.002215   0.019105   0.007196  -0.000018
     7  H    0.336178  -0.000020   0.000006  -0.000000   0.021367  -0.002601
     8  N   -0.000020   7.687356   0.009727   0.223602  -0.370083   0.000183
     9  O    0.000006   0.009727   7.962425   0.008830   0.288806   0.000159
    10  O   -0.000000   0.223602   0.008830   7.737332  -0.003080  -0.000029
    11  C    0.021367  -0.370083   0.288806  -0.003080   8.175935   0.295025
    12  H   -0.002601   0.000183   0.000159  -0.000029   0.295025   0.348927
    13  C   -0.022774   1.662188  -0.500317   0.067290  -4.401471  -0.008399
    14  H   -0.000022  -0.026112   0.011697  -0.001445   0.067245  -0.005314
    15  Br  -0.000404   0.172747  -0.057633   0.003991  -0.008508   0.000924
              13         14         15
     1  C   -1.382251   0.002791   0.015961
     2  C   -5.311847   0.002741  -0.238928
     3  C   -9.489419   0.020759  -0.227610
     4  C    0.817787  -0.002451  -0.020041
     5  H    0.022707  -0.000030   0.000023
     6  H   -0.006963   0.000055  -0.000465
     7  H   -0.022774  -0.000022  -0.000404
     8  N    1.662188  -0.026112   0.172747
     9  O   -0.500317   0.011697  -0.057633
    10  O    0.067290  -0.001445   0.003991
    11  C   -4.401471   0.067245  -0.008508
    12  H   -0.008399  -0.005314   0.000924
    13  C   24.160220   0.245628   0.499742
    14  H    0.245628   0.340053  -0.047997
    15  Br   0.499742  -0.047997  34.781653
 Mulliken charges:
               1
     1  C   -0.114054
     2  C    0.191442
     3  C   -0.061759
     4  C   -0.313692
     5  H    0.376707
     6  H    0.378822
     7  H    0.332891
     8  N   -0.237202
     9  O    0.046121
    10  O    0.114269
    11  C   -0.208631
    12  H    0.328258
    13  C   -0.352120
    14  H    0.392404
    15  Br   0.126544
 Sum of Mulliken charges =   1.00000
 Mulliken charges with hydrogens summed into heavy atoms:
               1
     1  C    0.262654
     2  C    0.570264
     3  C   -0.061759
     4  C    0.019199
     8  N   -0.237202
     9  O    0.046121
    10  O    0.114269
    11  C    0.119628
    13  C    0.040284
    15  Br   0.126544
 Electronic spatial extent (au):  <R**2>=           3947.7584
 Charge=              1.0000 electrons
 Dipole moment (field-independent basis, Debye):
    X=              2.6675    Y=              1.3541    Z=             -0.4461  Tot=              3.0245
 Quadrupole moment (field-independent basis, Debye-Ang):
   XX=            -67.9674   YY=            -52.3822   ZZ=            -63.0043
   XY=              1.7392   XZ=             -1.8964   YZ=              1.2646
 Traceless Quadrupole moment (field-independent basis, Debye-Ang):
   XX=             -6.8494   YY=              8.7358   ZZ=             -1.8863
   XY=              1.7392   XZ=             -1.8964   YZ=              1.2646
 Octapole moment (field-independent basis, Debye-Ang**2):
  XXX=           -512.7796  YYY=            105.8040  ZZZ=             85.3659  XYY=           -139.3250
  XXY=             41.5474  XXZ=             26.8958  XZZ=           -134.5337  YZZ=             21.2817
  YYZ=             29.1829  XYZ=              5.3742
 Hexadecapole moment (field-independent basis, Debye-Ang**3):
 XXXX=          -3443.3347 YYYY=           -718.1480 ZZZZ=           -402.5700 XXXY=            248.1891
 XXXZ=            186.3852 YYYX=            212.0077 YYYZ=           -183.3589 ZZZX=            173.0132
 ZZZY=           -152.2695 XXYY=           -630.0443 XXZZ=           -531.4492 YYZZ=           -180.0722
 XXYZ=            -47.6112 YYXZ=             57.1641 ZZXY=             37.8660
 N-N= 7.738227608341D+02 E-N=-8.700790930439D+03  KE= 3.005862303096D+03
 No NMR shielding tensors so no spin-rotation constants.
 Leave Link  601 at Thu May  2 14:18:43 2024, MaxMem=   134217728 cpu:               7.2 elap:               7.2
 (Enter /software/gaussian/g16-c01/sse4/g16/l9999.exe)
 Unable to Open any file for archive entry.
 1\1\GINC-BHX0011\SP\RwB97XD\6-311+G(d)\C6H5Br1N1O2(1+)\BWEIGHT\02-May-
 2024\0\\#P wB97XD/6-311+G* NoSymm #P Field=Y-77\\TitleMe\\1,1\C,0,0.51
 93,1.233,-0.0319\C,0,1.9445,1.2692,-0.0367\C,0,2.6204,0.0928,-0.025\C,
 0,-0.196,0.0301,0.001\H,0,-0.0207,2.1742,-0.0434\H,0,2.4828,2.2089,-0.
 0361\H,0,-1.2777,0.0399,0.0117\N,0,4.0921,0.0959,0.0366\O,0,4.6393,-1.
 0217,0.1446\O,0,4.6649,1.1984,-0.0233\C,0,0.4943,-1.1671,0.021\H,0,-0.
 0325,-2.1149,0.0545\C,0,1.9629,-1.2165,-0.0211\H,0,2.4436,-1.9631,0.61
 51\Br,0,2.173,-1.9491,-1.9062\\Version=ES64L-G16RevC.01\HF=-3010.53258
 36\RMSD=7.466e-09\Dipole=-3.2797576,1.7608719,1.0737212\Quadrupole=-5.
 0923873,6.4948309,-1.4024436,1.293058,-1.4099187,0.9402219\PG=C01 [X(C
 6H5Br1N1O2)]\\@
 The archive entry for this job was punched.


 You don't have to suffer to be a poet.
 Adolescence is enough suffering for anyone.
                             -- John Ciardi
 Job cpu time:       0 days  0 hours 21 minutes  4.2 seconds.
 Elapsed time:       0 days  0 hours 21 minutes  4.6 seconds.
 File lengths (MBytes):  RWF=     40 Int=      0 D2E=      0 Chk=     32 Scr=      1
 Normal termination of Gaussian 16 at Thu May  2 14:18:44 2024.
