 Entering Gaussian System, Link 0=g16
 Initial command:
 /software/gaussian/g16-c01/sse4/g16/l1.exe "/local_scratch/24665372/Gau-26388.inp" -scrdir="/local_scratch/24665372/"
 Entering Link 1 = /software/gaussian/g16-c01/sse4/g16/l1.exe PID=     26389.
  
 Copyright (c) 1988-2019, Gaussian, Inc.  All Rights Reserved.
  
 This is part of the Gaussian(R) 16 program.  It is based on
 the Gaussian(R) 09 system (copyright 2009, Gaussian, Inc.),
 the Gaussian(R) 03 system (copyright 2003, Gaussian, Inc.),
 the Gaussian(R) 98 system (copyright 1998, Gaussian, Inc.),
 the Gaussian(R) 94 system (copyright 1995, Gaussian, Inc.),
 the Gaussian 92(TM) system (copyright 1992, Gaussian, Inc.),
 the Gaussian 90(TM) system (copyright 1990, Gaussian, Inc.),
 the Gaussian 88(TM) system (copyright 1988, Gaussian, Inc.),
 the Gaussian 86(TM) system (copyright 1986, Carnegie Mellon
 University), and the Gaussian 82(TM) system (copyright 1983,
 Carnegie Mellon University). Gaussian is a federally registered
 trademark of Gaussian, Inc.
  
 This software contains proprietary and confidential information,
 including trade secrets, belonging to Gaussian, Inc.
  
 This software is provided under written license and may be
 used, copied, transmitted, or stored only in accord with that
 written license.
  
 The following legend is applicable only to US Government
 contracts under FAR:
  
                    RESTRICTED RIGHTS LEGEND
  
 Use, reproduction and disclosure by the US Government is
 subject to restrictions as set forth in subparagraphs (a)
 and (c) of the Commercial Computer Software - Restricted
 Rights clause in FAR 52.227-19.
  
 Gaussian, Inc.
 340 Quinnipiac St., Bldg. 40, Wallingford CT 06492
  
  
 ---------------------------------------------------------------
 Warning -- This program may not be used in any manner that
 competes with the business of Gaussian, Inc. or will provide
 assistance to any competitor of Gaussian, Inc.  The licensee
 of this program is prohibited from giving any competitor of
 Gaussian, Inc. access to this program.  By using this program,
 the user acknowledges that Gaussian, Inc. is engaged in the
 business of creating and licensing software in the field of
 computational chemistry and represents and warrants to the
 licensee that it is not a competitor of Gaussian, Inc. and that
 it will not use this program in any manner prohibited above.
 ---------------------------------------------------------------
  

 Cite this work as:
 Gaussian 16, Revision C.01,
 M. J. Frisch, G. W. Trucks, H. B. Schlegel, G. E. Scuseria, 
 M. A. Robb, J. R. Cheeseman, G. Scalmani, V. Barone, 
 G. A. Petersson, H. Nakatsuji, X. Li, M. Caricato, A. V. Marenich, 
 J. Bloino, B. G. Janesko, R. Gomperts, B. Mennucci, H. P. Hratchian, 
 J. V. Ortiz, A. F. Izmaylov, J. L. Sonnenberg, D. Williams-Young, 
 F. Ding, F. Lipparini, F. Egidi, J. Goings, B. Peng, A. Petrone, 
 T. Henderson, D. Ranasinghe, V. G. Zakrzewski, J. Gao, N. Rega, 
 G. Zheng, W. Liang, M. Hada, M. Ehara, K. Toyota, R. Fukuda, 
 J. Hasegawa, M. Ishida, T. Nakajima, Y. Honda, O. Kitao, H. Nakai, 
 T. Vreven, K. Throssell, J. A. Montgomery, Jr., J. E. Peralta, 
 F. Ogliaro, M. J. Bearpark, J. J. Heyd, E. N. Brothers, K. N. Kudin, 
 V. N. Staroverov, T. A. Keith, R. Kobayashi, J. Normand, 
 K. Raghavachari, A. P. Rendell, J. C. Burant, S. S. Iyengar, 
 J. Tomasi, M. Cossi, J. M. Millam, M. Klene, C. Adamo, R. Cammi, 
 J. W. Ochterski, R. L. Martin, K. Morokuma, O. Farkas, 
 J. B. Foresman, and D. J. Fox, Gaussian, Inc., Wallingford CT, 2019.
 
 ******************************************
 Gaussian 16:  ES64L-G16RevC.01  3-Jul-2019
                 2-May-2024 
 ******************************************
 %chk=geometry.chk
 %mem=1GB
 %nprocshared=12
 Will use up to   12 processors via shared memory.
 ----------------------------------------
 #P wB97XD/6-311+G* NoSymm #P Field=Z-107
 ----------------------------------------
 1/38=1,172=1/1;
 2/12=2,15=1,17=6,18=5,40=1/2;
 3/5=4,6=6,7=11,11=2,14=3,15=-107,25=1,30=1,74=-58/1,2,3;
 4//1;
 5/5=2,38=5/2;
 6/7=2,8=2,9=2,10=2,28=1/1;
 99/5=1,9=1/99;
 Leave Link    1 at Thu May  2 13:58:24 2024, MaxMem=   134217728 cpu:               2.0 elap:               2.0
 (Enter /software/gaussian/g16-c01/sse4/g16/l101.exe)
 -------
 TitleMe
 -------
 Symbolic Z-matrix:
 Charge =  1 Multiplicity = 1
 C                     0.5193    1.233    -0.0319 
 C                     1.9445    1.2692   -0.0367 
 C                     2.6204    0.0928   -0.025 
 C                    -0.196     0.0301    0.001 
 H                    -0.0207    2.1742   -0.0434 
 H                     2.4828    2.2089   -0.0361 
 H                    -1.2777    0.0399    0.0117 
 N                     4.0921    0.0959    0.0366 
 O                     4.6393   -1.0217    0.1446 
 O                     4.6649    1.1984   -0.0233 
 C                     0.4943   -1.1671    0.021 
 H                    -0.0325   -2.1149    0.0545 
 C                     1.9629   -1.2165   -0.0211 
 H                     2.4436   -1.9631    0.6151 
 Br                    2.173    -1.9491   -1.9062 
 
 ITRead=  0  0  0  0  0  0  0  0  0  0  0  0  0  0  0
 MicOpt= -1 -1 -1 -1 -1 -1 -1 -1 -1 -1 -1 -1 -1 -1 -1
 NAtoms=     15 NQM=       15 NQMF=       0 NMMI=      0 NMMIF=      0
                NMic=       0 NMicF=      0.
                    Isotopes and Nuclear Properties:
 (Nuclear quadrupole moments (NQMom) in fm**2, nuclear magnetic moments (NMagM)
  in nuclear magnetons)

  Atom         1           2           3           4           5           6           7           8           9          10
 IAtWgt=          12          12          12          12           1           1           1          14          16          16
 AtmWgt=  12.0000000  12.0000000  12.0000000  12.0000000   1.0078250   1.0078250   1.0078250  14.0030740  15.9949146  15.9949146
 NucSpn=           0           0           0           0           1           1           1           2           0           0
 AtZEff=  -0.0000000  -0.0000000  -0.0000000  -0.0000000  -0.0000000  -0.0000000  -0.0000000  -0.0000000  -0.0000000  -0.0000000
 NQMom=    0.0000000   0.0000000   0.0000000   0.0000000   0.0000000   0.0000000   0.0000000   2.0440000   0.0000000   0.0000000
 NMagM=    0.0000000   0.0000000   0.0000000   0.0000000   2.7928460   2.7928460   2.7928460   0.4037610   0.0000000   0.0000000
 AtZNuc=   6.0000000   6.0000000   6.0000000   6.0000000   1.0000000   1.0000000   1.0000000   7.0000000   8.0000000   8.0000000

  Atom        11          12          13          14          15
 IAtWgt=          12           1          12           1          79
 AtmWgt=  12.0000000   1.0078250  12.0000000   1.0078250  78.9183361
 NucSpn=           0           1           0           1           3
 AtZEff=  -0.0000000  -0.0000000  -0.0000000  -0.0000000  -0.0000000
 NQMom=    0.0000000   0.0000000   0.0000000   0.0000000  31.3000000
 NMagM=    0.0000000   2.7928460   0.0000000   2.7928460   2.1063990
 AtZNuc=   6.0000000   1.0000000   6.0000000   1.0000000  35.0000000
 Leave Link  101 at Thu May  2 13:58:26 2024, MaxMem=   134217728 cpu:               1.8 elap:               1.8
 (Enter /software/gaussian/g16-c01/sse4/g16/l202.exe)
                          Input orientation:                          
 ---------------------------------------------------------------------
 Center     Atomic      Atomic             Coordinates (Angstroms)
 Number     Number       Type             X           Y           Z
 ---------------------------------------------------------------------
      1          6           0        0.519300    1.233000   -0.031900
      2          6           0        1.944500    1.269200   -0.036700
      3          6           0        2.620400    0.092800   -0.025000
      4          6           0       -0.196000    0.030100    0.001000
      5          1           0       -0.020700    2.174200   -0.043400
      6          1           0        2.482800    2.208900   -0.036100
      7          1           0       -1.277700    0.039900    0.011700
      8          7           0        4.092100    0.095900    0.036600
      9          8           0        4.639300   -1.021700    0.144600
     10          8           0        4.664900    1.198400   -0.023300
     11          6           0        0.494300   -1.167100    0.021000
     12          1           0       -0.032500   -2.114900    0.054500
     13          6           0        1.962900   -1.216500   -0.021100
     14          1           0        2.443600   -1.963100    0.615100
     15         35           0        2.173000   -1.949100   -1.906200
 ---------------------------------------------------------------------
                    Distance matrix (angstroms):
                    1          2          3          4          5
     1  C    0.000000
     2  C    1.425668   0.000000
     3  C    2.390549   1.356796   0.000000
     4  C    1.399895   2.473566   2.817218   0.000000
     5  H    1.085168   2.163581   3.362733   2.151712   0.000000
     6  H    2.192654   1.082960   2.120598   3.453189   2.503751
     7  H    2.157452   3.449071   3.898632   1.081797   2.477564
     8  N    3.750012   2.448304   1.472992   4.288753   4.608780
     9  O    4.699917   3.541615   2.312322   4.950458   5.653735
    10  O    4.145753   2.721354   2.324292   4.999386   4.786171
    11  C    2.400813   2.835836   2.471794   1.382101   3.381369
    12  H    3.394169   3.920329   3.452266   2.151887   4.290233
    13  C    2.843264   2.485817   1.465124   2.493060   3.928360
    14  H    3.786370   3.334922   2.160489   3.364142   4.860416
    15  Br   4.046416   3.728900   2.812194   3.628609   5.028314
                    6          7          8          9         10
     6  H    0.000000
     7  H    4.341452   0.000000
     8  N    2.657047   5.370150   0.000000
     9  O    3.888434   6.012948   1.249048   0.000000
    10  O    2.404752   6.054572   1.243863   2.226587   0.000000
    11  C    3.918516   2.144043   3.813080   4.149391   4.794941
    12  H    5.003018   2.489080   4.679774   4.798846   5.748876
    13  C    3.464662   3.475788   2.501842   2.688591   3.623886
    14  H    4.222698   4.268978   2.700314   2.434893   3.916224
    15  Br   4.569706   4.420610   3.411663   3.338935   4.434144
                   11         12         13         14         15
    11  C    0.000000
    12  H    1.084880   0.000000
    13  C    1.470034   2.189625   0.000000
    14  H    2.187771   2.543302   1.092353   0.000000
    15  Br   2.672762   2.955683   2.033334   2.535818   0.000000
 Symmetry turned off by external request.
 Stoichiometry    C6H5BrNO2(1+)
 Framework group  C1[X(C6H5BrNO2)]
 Deg. of freedom    39
 Full point group                 C1      NOp   1
 Rotational constants (GHZ):           1.1632986           0.9594224           0.5957624
 Leave Link  202 at Thu May  2 13:58:27 2024, MaxMem=   134217728 cpu:               1.2 elap:               1.2
 (Enter /software/gaussian/g16-c01/sse4/g16/l301.exe)
 Standard basis: 6-311+G(d) (5D, 7F)
 Ernie: Thresh=  0.10000D-02 Tol=  0.10000D-05 Strict=F.
 The following finite field(s) will be applied:
 An electric field of              0.0000  0.0000 -0.0107
   261 basis functions,   443 primitive gaussians,   273 cartesian basis functions
    49 alpha electrons       49 beta electrons
       nuclear repulsion energy       772.8945969580 Hartrees.
 IExCor= 4639 DFT=T Ex+Corr=wB97XD ExCW=0 ScaHFX=  1.000000
 ScaDFX=  1.000000  1.000000  1.000000  1.000000 ScalE2=  1.000000  1.000000
 IRadAn=      5 IRanWt=     -1 IRanGd=            0 ICorTp=0 IEmpDi=121
 HFx  wShort=  0.000000 wLong=  0.200000 cFull=  0.222036 cShort=  0.000000 cLong=  0.777964
 DFx  wShort=  0.000000 wLong=  0.200000 cFull=  0.000000 cShort=  0.000000 cLong=  1.000000
 NAtoms=   15 NActive=   15 NUniq=   15 SFac= 1.00D+00 NAtFMM=   60 NAOKFM=F Big=F
 Integral buffers will be    131072 words long.
 Raffenetti 2 integral format.
 Two-electron integral symmetry is turned off.
 R6Disp:  Grimme-D2 Dispersion energy=       -0.0080346408 Hartrees.
 Nuclear repulsion after empirical dispersion term =      772.8865623173 Hartrees.
 Leave Link  301 at Thu May  2 13:58:28 2024, MaxMem=   134217728 cpu:               0.9 elap:               0.9
 (Enter /software/gaussian/g16-c01/sse4/g16/l302.exe)
 NPDir=0 NMtPBC=     1 NCelOv=     1 NCel=       1 NClECP=     1 NCelD=      1
         NCelK=      1 NCelE2=     1 NClLst=     1 CellRange=     0.0.
 One-electron integrals computed using PRISM.
 NBasis=   261 RedAO= T EigKep=  2.52D-06  NBF=   261
 NBsUse=   261 1.00D-06 EigRej= -1.00D+00 NBFU=   261
 Precomputing XC quadrature grid using
 IXCGrd= 4 IRadAn=           5 IRanWt=          -1 IRanGd=           0 AccXCQ= 0.00D+00.
 Generated NRdTot=       0 NPtTot=           0 NUsed=           0 NTot=          32
 NSgBfM=   273   273   273   273   273 MxSgAt=    15 MxSgA2=    15.
 Leave Link  302 at Thu May  2 13:58:49 2024, MaxMem=   134217728 cpu:              21.7 elap:              21.7
 (Enter /software/gaussian/g16-c01/sse4/g16/l303.exe)
 DipDrv:  MaxL=1.
 The nuclear repulsion energy is now       774.2098607238 hartrees.
 Leave Link  303 at Thu May  2 13:58:53 2024, MaxMem=   134217728 cpu:               3.3 elap:               3.3
 (Enter /software/gaussian/g16-c01/sse4/g16/l401.exe)
 ExpMin= 3.50D-02 ExpMax= 4.40D+05 ExpMxC= 1.51D+04 IAcc=3 IRadAn=         5 AccDes= 0.00D+00
 Harris functional with IExCor= 4639 and IRadAn=       5 diagonalized for initial guess.
 HarFok:  IExCor= 4639 AccDes= 0.00D+00 IRadAn=         5 IDoV= 1 UseB2=F ITyADJ=14
 ICtDFT=  3500011 ScaDFX=  1.000000  1.000000  1.000000  1.000000
 FoFCou: FMM=F IPFlag=           0 FMFlag=      100000 FMFlg1=           0
         NFxFlg=           0 DoJE=T BraDBF=F KetDBF=T FulRan=T
         wScrn=  0.000000 ICntrl=       500 IOpCl=  0 I1Cent=   200000004 NGrid=           0
         NMat0=    1 NMatS0=      1 NMatT0=    0 NMatD0=    1 NMtDS0=    0 NMtDT0=    0
 Symmetry not used in FoFCou.
 Harris En= -2970.61119810768    
 JPrj=0 DoOrth=F DoCkMO=F.
 Leave Link  401 at Thu May  2 13:59:24 2024, MaxMem=   134217728 cpu:              31.3 elap:              31.2
 (Enter /software/gaussian/g16-c01/sse4/g16/l502.exe)
 Two-electron integral symmetry not used.
 Closed shell SCF:
 Using DIIS extrapolation, IDIIS=  1040.
 NGot=   134217728 LenX=   134063053 LenY=   133988083
 Requested convergence on RMS density matrix=1.00D-08 within 128 cycles.
 Requested convergence on MAX density matrix=1.00D-06.
 Requested convergence on             energy=1.00D-06.
 No special actions if energy rises.
 Fock matrices will be formed incrementally for  20 cycles.

 Cycle   1  Pass 1  IDiag  1:
 FoFJK:  IHMeth= 1 ICntrl=       0 DoSepK=T KAlg= 0 I1Cent=           0 FoldK=F
 IRaf=         1 NMat=       1 IRICut=       1 DoRegI=T DoRafI=F ISym2E= 0 IDoP0=0 IntGTp=1.
 FoFCou: FMM=F IPFlag=           0 FMFlag=      100000 FMFlg1=           0
         NFxFlg=           0 DoJE=T BraDBF=F KetDBF=F FulRan=T
         wScrn=  0.000000 ICntrl=       500 IOpCl=  0 I1Cent=           0 NGrid=           0
         NMat0=    1 NMatS0=      1 NMatT0=    0 NMatD0=    1 NMtDS0=    0 NMtDT0=    0
 Symmetry not used in FoFCou.
 E= -3009.68936216383    
 DIIS: error= 2.90D-01 at cycle   1 NSaved=   1.
 NSaved= 1 IEnMin= 1 EnMin= -3009.68936216383     IErMin= 1 ErrMin= 2.90D-01
 ErrMax= 2.90D-01  0.00D+00 EMaxC= 1.00D-01 BMatC= 1.19D+01 BMatP= 1.19D+01
 IDIUse=3 WtCom= 0.00D+00 WtEn= 1.00D+00
 Coeff-Com:  0.100D+01
 Coeff-En:   0.100D+01
 Coeff:      0.100D+01
 Gap=     0.324 Goal=   None    Shift=    0.000
 GapD=    0.324 DampG=1.000 DampE=0.250 DampFc=0.2500 IDamp=-1.
 Damping current iteration by 2.50D-01
 RMSDP=5.56D-02 MaxDP=5.95D+00              OVMax= 2.61D-01

 Cycle   2  Pass 1  IDiag  1:
 RMSU=  6.83D-03    CP:  8.95D-01
 E= -3009.98299621181     Delta-E=       -0.293634047977 Rises=F Damp=T
 DIIS: error= 2.18D-01 at cycle   2 NSaved=   2.
 NSaved= 2 IEnMin= 2 EnMin= -3009.98299621181     IErMin= 2 ErrMin= 2.18D-01
 ErrMax= 2.18D-01  0.00D+00 EMaxC= 1.00D-01 BMatC= 5.46D+00 BMatP= 1.19D+01
 IDIUse=3 WtCom= 0.00D+00 WtEn= 1.00D+00
 Coeff-Com: -0.184D+01 0.284D+01
 Coeff-En:   0.000D+00 0.100D+01
 Coeff:      0.000D+00 0.100D+01
 Gap=     0.266 Goal=   None    Shift=    0.000
 RMSDP=4.40D-02 MaxDP=4.87D+00 DE=-2.94D-01 OVMax= 6.71D-02

 Cycle   3  Pass 1  IDiag  1:
 RMSU=  4.99D-03    CP:  5.37D-01  3.00D+00
 E= -3010.37880669811     Delta-E=       -0.395810486308 Rises=F Damp=F
 DIIS: error= 6.55D-02 at cycle   3 NSaved=   3.
 NSaved= 3 IEnMin= 3 EnMin= -3010.37880669811     IErMin= 3 ErrMin= 6.55D-02
 ErrMax= 6.55D-02  0.00D+00 EMaxC= 1.00D-01 BMatC= 7.25D-01 BMatP= 5.46D+00
 IDIUse=3 WtCom= 3.45D-01 WtEn= 6.55D-01
 Coeff-Com:  0.258D+01-0.338D+01 0.180D+01
 Coeff-En:   0.247D-01 0.000D+00 0.975D+00
 Coeff:      0.908D+00-0.117D+01 0.126D+01
 Gap=     0.264 Goal=   None    Shift=    0.000
 RMSDP=1.09D-02 MaxDP=6.76D-01 DE=-3.96D-01 OVMax= 7.29D-02

 Cycle   4  Pass 1  IDiag  1:
 RMSU=  7.52D-03    CP:  5.71D-01  2.30D+00  1.81D+00
 E= -3010.48411964969     Delta-E=       -0.105312951574 Rises=F Damp=F
 DIIS: error= 3.84D-02 at cycle   4 NSaved=   4.
 NSaved= 4 IEnMin= 4 EnMin= -3010.48411964969     IErMin= 4 ErrMin= 3.84D-02
 ErrMax= 3.84D-02  0.00D+00 EMaxC= 1.00D-01 BMatC= 2.32D-01 BMatP= 7.25D-01
 IDIUse=3 WtCom= 6.16D-01 WtEn= 3.84D-01
 Coeff-Com:  0.762D-01-0.873D-01 0.409D+00 0.602D+00
 Coeff-En:   0.000D+00 0.000D+00 0.201D+00 0.799D+00
 Coeff:      0.469D-01-0.538D-01 0.329D+00 0.678D+00
 Gap=     0.266 Goal=   None    Shift=    0.000
 RMSDP=4.88D-03 MaxDP=4.85D-01 DE=-1.05D-01 OVMax= 4.65D-02

 Cycle   5  Pass 1  IDiag  1:
 RMSU=  1.95D-03    CP:  5.38D-01  2.43D+00  1.71D+00  7.12D-01
 E= -3010.52794678289     Delta-E=       -0.043827133205 Rises=F Damp=F
 DIIS: error= 8.99D-03 at cycle   5 NSaved=   5.
 NSaved= 5 IEnMin= 5 EnMin= -3010.52794678289     IErMin= 5 ErrMin= 8.99D-03
 ErrMax= 8.99D-03  0.00D+00 EMaxC= 1.00D-01 BMatC= 1.12D-02 BMatP= 2.32D-01
 IDIUse=3 WtCom= 9.10D-01 WtEn= 8.99D-02
 Coeff-Com: -0.783D-01 0.110D+00 0.148D+00 0.404D+00 0.415D+00
 Coeff-En:   0.000D+00 0.000D+00 0.000D+00 0.000D+00 0.100D+01
 Coeff:     -0.713D-01 0.100D+00 0.135D+00 0.368D+00 0.468D+00
 Gap=     0.256 Goal=   None    Shift=    0.000
 RMSDP=1.38D-03 MaxDP=1.29D-01 DE=-4.38D-02 OVMax= 2.54D-02

 Cycle   6  Pass 1  IDiag  1:
 RMSU=  6.49D-04    CP:  5.39D-01  2.47D+00  1.76D+00  8.38D-01  6.55D-01
 E= -3010.53206757596     Delta-E=       -0.004120793063 Rises=F Damp=F
 DIIS: error= 3.33D-03 at cycle   6 NSaved=   6.
 NSaved= 6 IEnMin= 6 EnMin= -3010.53206757596     IErMin= 6 ErrMin= 3.33D-03
 ErrMax= 3.33D-03  0.00D+00 EMaxC= 1.00D-01 BMatC= 9.58D-04 BMatP= 1.12D-02
 IDIUse=3 WtCom= 9.67D-01 WtEn= 3.33D-02
 Coeff-Com: -0.899D-01 0.121D+00 0.515D-02 0.154D+00 0.320D+00 0.489D+00
 Coeff-En:   0.000D+00 0.000D+00 0.000D+00 0.000D+00 0.117D+00 0.883D+00
 Coeff:     -0.869D-01 0.117D+00 0.498D-02 0.149D+00 0.313D+00 0.502D+00
 Gap=     0.247 Goal=   None    Shift=    0.000
 RMSDP=3.97D-04 MaxDP=2.64D-02 DE=-4.12D-03 OVMax= 7.55D-03

 Cycle   7  Pass 1  IDiag  1:
 RMSU=  2.40D-04    CP:  5.38D-01  2.47D+00  1.75D+00  8.22D-01  7.53D-01
                    CP:  6.74D-01
 E= -3010.53274954822     Delta-E=       -0.000681972264 Rises=F Damp=F
 DIIS: error= 2.87D-04 at cycle   7 NSaved=   7.
 NSaved= 7 IEnMin= 7 EnMin= -3010.53274954822     IErMin= 7 ErrMin= 2.87D-04
 ErrMax= 2.87D-04  0.00D+00 EMaxC= 1.00D-01 BMatC= 1.54D-05 BMatP= 9.58D-04
 IDIUse=3 WtCom= 9.97D-01 WtEn= 2.87D-03
 Coeff-Com: -0.315D-01 0.420D-01-0.123D-01 0.255D-01 0.720D-01 0.173D+00
 Coeff-Com:  0.731D+00
 Coeff-En:   0.000D+00 0.000D+00 0.000D+00 0.000D+00 0.000D+00 0.000D+00
 Coeff-En:   0.100D+01
 Coeff:     -0.314D-01 0.419D-01-0.122D-01 0.255D-01 0.718D-01 0.173D+00
 Coeff:      0.732D+00
 Gap=     0.248 Goal=   None    Shift=    0.000
 RMSDP=1.98D-04 MaxDP=1.45D-02 DE=-6.82D-04 OVMax= 2.24D-03

 Cycle   8  Pass 1  IDiag  1:
 RMSU=  7.68D-05    CP:  5.38D-01  2.47D+00  1.75D+00  8.41D-01  7.99D-01
                    CP:  7.47D-01  1.03D+00
 E= -3010.53277195330     Delta-E=       -0.000022405075 Rises=F Damp=F
 DIIS: error= 9.30D-05 at cycle   8 NSaved=   8.
 NSaved= 8 IEnMin= 8 EnMin= -3010.53277195330     IErMin= 8 ErrMin= 9.30D-05
 ErrMax= 9.30D-05  0.00D+00 EMaxC= 1.00D-01 BMatC= 2.25D-06 BMatP= 1.54D-05
 IDIUse=1 WtCom= 1.00D+00 WtEn= 0.00D+00
 Coeff-Com:  0.657D-02-0.901D-02-0.336D-02-0.156D-01-0.326D-01-0.459D-01
 Coeff-Com:  0.155D+00 0.945D+00
 Coeff:      0.657D-02-0.901D-02-0.336D-02-0.156D-01-0.326D-01-0.459D-01
 Coeff:      0.155D+00 0.945D+00
 Gap=     0.247 Goal=   None    Shift=    0.000
 RMSDP=8.27D-05 MaxDP=7.17D-03 DE=-2.24D-05 OVMax= 2.18D-03

 Cycle   9  Pass 1  IDiag  1:
 RMSU=  2.72D-05    CP:  5.39D-01  2.47D+00  1.75D+00  8.48D-01  8.11D-01
                    CP:  7.54D-01  1.21D+00  1.27D+00
 E= -3010.53277877902     Delta-E=       -0.000006825722 Rises=F Damp=F
 DIIS: error= 2.99D-05 at cycle   9 NSaved=   9.
 NSaved= 9 IEnMin= 9 EnMin= -3010.53277877902     IErMin= 9 ErrMin= 2.99D-05
 ErrMax= 2.99D-05  0.00D+00 EMaxC= 1.00D-01 BMatC= 3.54D-07 BMatP= 2.25D-06
 IDIUse=1 WtCom= 1.00D+00 WtEn= 0.00D+00
 Coeff-Com:  0.696D-02-0.934D-02 0.902D-03-0.874D-02-0.184D-01-0.350D-01
 Coeff-Com: -0.762D-01 0.268D+00 0.872D+00
 Coeff:      0.696D-02-0.934D-02 0.902D-03-0.874D-02-0.184D-01-0.350D-01
 Coeff:     -0.762D-01 0.268D+00 0.872D+00
 Gap=     0.248 Goal=   None    Shift=    0.000
 RMSDP=3.30D-05 MaxDP=2.17D-03 DE=-6.83D-06 OVMax= 1.23D-03

 Cycle  10  Pass 1  IDiag  1:
 RMSU=  1.43D-05    CP:  5.39D-01  2.47D+00  1.75D+00  8.47D-01  8.17D-01
                    CP:  7.49D-01  1.27D+00  1.46D+00  1.22D+00
 E= -3010.53278041847     Delta-E=       -0.000001639455 Rises=F Damp=F
 DIIS: error= 1.95D-05 at cycle  10 NSaved=  10.
 NSaved=10 IEnMin=10 EnMin= -3010.53278041847     IErMin=10 ErrMin= 1.95D-05
 ErrMax= 1.95D-05  0.00D+00 EMaxC= 1.00D-01 BMatC= 9.49D-08 BMatP= 3.54D-07
 IDIUse=1 WtCom= 1.00D+00 WtEn= 0.00D+00
 Coeff-Com:  0.176D-03-0.200D-03 0.622D-03 0.666D-03 0.376D-02 0.664D-02
 Coeff-Com: -0.482D-01-0.127D+00 0.187D+00 0.977D+00
 Coeff:      0.176D-03-0.200D-03 0.622D-03 0.666D-03 0.376D-02 0.664D-02
 Coeff:     -0.482D-01-0.127D+00 0.187D+00 0.977D+00
 Gap=     0.248 Goal=   None    Shift=    0.000
 RMSDP=1.92D-05 MaxDP=1.54D-03 DE=-1.64D-06 OVMax= 7.32D-04

 Cycle  11  Pass 1  IDiag  1:
 RMSU=  7.83D-06    CP:  5.39D-01  2.47D+00  1.75D+00  8.47D-01  8.20D-01
                    CP:  7.42D-01  1.28D+00  1.58D+00  1.41D+00  1.57D+00
 E= -3010.53278089438     Delta-E=       -0.000000475912 Rises=F Damp=F
 DIIS: error= 1.01D-05 at cycle  11 NSaved=  11.
 NSaved=11 IEnMin=11 EnMin= -3010.53278089438     IErMin=11 ErrMin= 1.01D-05
 ErrMax= 1.01D-05  0.00D+00 EMaxC= 1.00D-01 BMatC= 1.30D-08 BMatP= 9.49D-08
 IDIUse=1 WtCom= 1.00D+00 WtEn= 0.00D+00
 Coeff-Com: -0.632D-03 0.847D-03 0.268D-04 0.119D-02 0.246D-02 0.552D-02
 Coeff-Com:  0.181D-01-0.381D-01-0.196D+00-0.106D+00 0.131D+01
 Coeff:     -0.632D-03 0.847D-03 0.268D-04 0.119D-02 0.246D-02 0.552D-02
 Coeff:      0.181D-01-0.381D-01-0.196D+00-0.106D+00 0.131D+01
 Gap=     0.247 Goal=   None    Shift=    0.000
 RMSDP=1.42D-05 MaxDP=1.45D-03 DE=-4.76D-07 OVMax= 4.91D-04

 Cycle  12  Pass 1  IDiag  1:
 RMSU=  2.13D-06    CP:  5.39D-01  2.47D+00  1.75D+00  8.46D-01  8.22D-01
                    CP:  7.35D-01  1.29D+00  1.64D+00  1.51D+00  2.00D+00
                    CP:  1.68D+00
 E= -3010.53278102023     Delta-E=       -0.000000125841 Rises=F Damp=F
 DIIS: error= 4.46D-06 at cycle  12 NSaved=  12.
 NSaved=12 IEnMin=12 EnMin= -3010.53278102023     IErMin=12 ErrMin= 4.46D-06
 ErrMax= 4.46D-06  0.00D+00 EMaxC= 1.00D-01 BMatC= 5.03D-09 BMatP= 1.30D-08
 IDIUse=1 WtCom= 1.00D+00 WtEn= 0.00D+00
 Coeff-Com: -0.240D-03 0.316D-03-0.541D-04 0.406D-03 0.251D-03 0.930D-03
 Coeff-Com:  0.170D-01 0.546D-02-0.119D+00-0.224D+00 0.670D+00 0.649D+00
 Coeff:     -0.240D-03 0.316D-03-0.541D-04 0.406D-03 0.251D-03 0.930D-03
 Coeff:      0.170D-01 0.546D-02-0.119D+00-0.224D+00 0.670D+00 0.649D+00
 Gap=     0.247 Goal=   None    Shift=    0.000
 RMSDP=4.12D-06 MaxDP=5.25D-04 DE=-1.26D-07 OVMax= 1.12D-04

 Cycle  13  Pass 1  IDiag  1:
 RMSU=  1.03D-06    CP:  5.39D-01  2.47D+00  1.75D+00  8.46D-01  8.22D-01
                    CP:  7.34D-01  1.29D+00  1.65D+00  1.51D+00  2.11D+00
                    CP:  1.78D+00  1.09D+00
 E= -3010.53278103377     Delta-E=       -0.000000013543 Rises=F Damp=F
 DIIS: error= 2.40D-06 at cycle  13 NSaved=  13.
 NSaved=13 IEnMin=13 EnMin= -3010.53278103377     IErMin=13 ErrMin= 2.40D-06
 ErrMax= 2.40D-06  0.00D+00 EMaxC= 1.00D-01 BMatC= 5.18D-10 BMatP= 5.03D-09
 IDIUse=1 WtCom= 1.00D+00 WtEn= 0.00D+00
 Coeff-Com: -0.841D-05 0.109D-04-0.361D-04-0.110D-03-0.437D-03-0.104D-02
 Coeff-Com: -0.166D-02 0.525D-02 0.293D-01-0.770D-02-0.182D+00 0.388D-01
 Coeff-Com:  0.112D+01
 Coeff:     -0.841D-05 0.109D-04-0.361D-04-0.110D-03-0.437D-03-0.104D-02
 Coeff:     -0.166D-02 0.525D-02 0.293D-01-0.770D-02-0.182D+00 0.388D-01
 Coeff:      0.112D+01
 Gap=     0.247 Goal=   None    Shift=    0.000
 RMSDP=1.33D-06 MaxDP=8.63D-05 DE=-1.35D-08 OVMax= 5.98D-05

 Cycle  14  Pass 1  IDiag  1:
 RMSU=  7.39D-07    CP:  5.39D-01  2.47D+00  1.75D+00  8.46D-01  8.22D-01
                    CP:  7.34D-01  1.29D+00  1.64D+00  1.53D+00  2.11D+00
                    CP:  1.80D+00  1.41D+00  1.52D+00
 E= -3010.53278103676     Delta-E=       -0.000000002991 Rises=F Damp=F
 DIIS: error= 9.21D-07 at cycle  14 NSaved=  14.
 NSaved=14 IEnMin=14 EnMin= -3010.53278103676     IErMin=14 ErrMin= 9.21D-07
 ErrMax= 9.21D-07  0.00D+00 EMaxC= 1.00D-01 BMatC= 1.23D-10 BMatP= 5.18D-10
 IDIUse=1 WtCom= 1.00D+00 WtEn= 0.00D+00
 Coeff-Com:  0.115D-04-0.146D-04-0.116D-04-0.888D-04-0.157D-03-0.449D-03
 Coeff-Com: -0.331D-02 0.707D-03 0.312D-01 0.347D-01-0.179D+00-0.108D+00
 Coeff-Com:  0.425D+00 0.800D+00
 Coeff:      0.115D-04-0.146D-04-0.116D-04-0.888D-04-0.157D-03-0.449D-03
 Coeff:     -0.331D-02 0.707D-03 0.312D-01 0.347D-01-0.179D+00-0.108D+00
 Coeff:      0.425D+00 0.800D+00
 Gap=     0.247 Goal=   None    Shift=    0.000
 RMSDP=4.04D-07 MaxDP=3.37D-05 DE=-2.99D-09 OVMax= 1.79D-05

 Cycle  15  Pass 1  IDiag  1:
 RMSU=  1.75D-07    CP:  5.39D-01  2.47D+00  1.75D+00  8.46D-01  8.22D-01
                    CP:  7.34D-01  1.29D+00  1.64D+00  1.53D+00  2.11D+00
                    CP:  1.79D+00  1.46D+00  1.73D+00  1.08D+00
 E= -3010.53278103715     Delta-E=       -0.000000000387 Rises=F Damp=F
 DIIS: error= 3.81D-07 at cycle  15 NSaved=  15.
 NSaved=15 IEnMin=15 EnMin= -3010.53278103715     IErMin=15 ErrMin= 3.81D-07
 ErrMax= 3.81D-07  0.00D+00 EMaxC= 1.00D-01 BMatC= 1.46D-11 BMatP= 1.23D-10
 IDIUse=1 WtCom= 1.00D+00 WtEn= 0.00D+00
 Coeff-Com:  0.272D-05-0.353D-05 0.388D-05 0.740D-05 0.684D-04 0.142D-03
 Coeff-Com: -0.122D-03-0.746D-03-0.106D-02 0.669D-02 0.589D-02-0.310D-01
 Coeff-Com: -0.134D+00 0.177D+00 0.977D+00
 Coeff:      0.272D-05-0.353D-05 0.388D-05 0.740D-05 0.684D-04 0.142D-03
 Coeff:     -0.122D-03-0.746D-03-0.106D-02 0.669D-02 0.589D-02-0.310D-01
 Coeff:     -0.134D+00 0.177D+00 0.977D+00
 Gap=     0.247 Goal=   None    Shift=    0.000
 RMSDP=2.25D-07 MaxDP=1.54D-05 DE=-3.87D-10 OVMax= 7.52D-06

 Cycle  16  Pass 1  IDiag  1:
 RMSU=  7.84D-08    CP:  5.39D-01  2.47D+00  1.75D+00  8.46D-01  8.21D-01
                    CP:  7.34D-01  1.29D+00  1.64D+00  1.53D+00  2.12D+00
                    CP:  1.77D+00  1.47D+00  1.79D+00  1.13D+00  1.52D+00
 E= -3010.53278103721     Delta-E=       -0.000000000060 Rises=F Damp=F
 DIIS: error= 1.01D-07 at cycle  16 NSaved=  16.
 NSaved=16 IEnMin=16 EnMin= -3010.53278103721     IErMin=16 ErrMin= 1.01D-07
 ErrMax= 1.01D-07  0.00D+00 EMaxC= 1.00D-01 BMatC= 1.49D-12 BMatP= 1.46D-11
 IDIUse=1 WtCom= 1.00D+00 WtEn= 0.00D+00
 Coeff-Com:  0.116D-06-0.191D-06 0.231D-05 0.104D-04 0.291D-04 0.653D-04
 Coeff-Com:  0.274D-03-0.258D-03-0.345D-02-0.134D-02 0.186D-01 0.417D-02
 Coeff-Com: -0.683D-01-0.481D-01 0.141D+00 0.957D+00
 Coeff:      0.116D-06-0.191D-06 0.231D-05 0.104D-04 0.291D-04 0.653D-04
 Coeff:      0.274D-03-0.258D-03-0.345D-02-0.134D-02 0.186D-01 0.417D-02
 Coeff:     -0.683D-01-0.481D-01 0.141D+00 0.957D+00
 Gap=     0.247 Goal=   None    Shift=    0.000
 RMSDP=6.59D-08 MaxDP=2.60D-06 DE=-6.05D-11 OVMax= 1.97D-06

 Cycle  17  Pass 1  IDiag  1:
 RMSU=  2.69D-08    CP:  5.39D-01  2.47D+00  1.75D+00  8.46D-01  8.21D-01
                    CP:  7.34D-01  1.29D+00  1.64D+00  1.53D+00  2.12D+00
                    CP:  1.77D+00  1.47D+00  1.79D+00  1.15D+00  1.71D+00
                    CP:  1.26D+00
 E= -3010.53278103723     Delta-E=       -0.000000000026 Rises=F Damp=F
 DIIS: error= 4.26D-08 at cycle  17 NSaved=  17.
 NSaved=17 IEnMin=17 EnMin= -3010.53278103723     IErMin=17 ErrMin= 4.26D-08
 ErrMax= 4.26D-08  0.00D+00 EMaxC= 1.00D-01 BMatC= 3.63D-13 BMatP= 1.49D-12
 IDIUse=1 WtCom= 1.00D+00 WtEn= 0.00D+00
 Coeff-Com: -0.181D-05 0.240D-05-0.286D-06 0.282D-05 0.569D-06-0.192D-05
 Coeff-Com:  0.825D-04 0.898D-04-0.749D-03-0.100D-02 0.370D-02 0.503D-02
 Coeff-Com:  0.169D-02-0.337D-01-0.116D+00 0.224D+00 0.916D+00
 Coeff:     -0.181D-05 0.240D-05-0.286D-06 0.282D-05 0.569D-06-0.192D-05
 Coeff:      0.825D-04 0.898D-04-0.749D-03-0.100D-02 0.370D-02 0.503D-02
 Coeff:      0.169D-02-0.337D-01-0.116D+00 0.224D+00 0.916D+00
 Gap=     0.247 Goal=   None    Shift=    0.000
 RMSDP=4.17D-08 MaxDP=4.52D-06 DE=-2.59D-11 OVMax= 8.15D-07

 Cycle  18  Pass 1  IDiag  1:
 RMSU=  1.14D-08    CP:  5.39D-01  2.47D+00  1.75D+00  8.46D-01  8.21D-01
                    CP:  7.34D-01  1.29D+00  1.64D+00  1.53D+00  2.12D+00
                    CP:  1.77D+00  1.47D+00  1.79D+00  1.14D+00  1.78D+00
                    CP:  1.48D+00  1.19D+00
 E= -3010.53278103725     Delta-E=       -0.000000000018 Rises=F Damp=F
 DIIS: error= 1.86D-08 at cycle  18 NSaved=  18.
 NSaved=18 IEnMin=18 EnMin= -3010.53278103725     IErMin=18 ErrMin= 1.86D-08
 ErrMax= 1.86D-08  0.00D+00 EMaxC= 1.00D-01 BMatC= 6.50D-14 BMatP= 3.63D-13
 IDIUse=1 WtCom= 1.00D+00 WtEn= 0.00D+00
 Coeff-Com: -0.487D-06 0.653D-06-0.509D-06-0.127D-05-0.658D-05-0.167D-04
 Coeff-Com: -0.254D-04 0.101D-03 0.317D-03-0.199D-03-0.225D-02 0.962D-03
 Coeff-Com:  0.140D-01-0.470D-03-0.680D-01-0.956D-01 0.296D+00 0.855D+00
 Coeff:     -0.487D-06 0.653D-06-0.509D-06-0.127D-05-0.658D-05-0.167D-04
 Coeff:     -0.254D-04 0.101D-03 0.317D-03-0.199D-03-0.225D-02 0.962D-03
 Coeff:      0.140D-01-0.470D-03-0.680D-01-0.956D-01 0.296D+00 0.855D+00
 Gap=     0.247 Goal=   None    Shift=    0.000
 RMSDP=2.54D-08 MaxDP=2.72D-06 DE=-1.77D-11 OVMax= 5.77D-07

 Cycle  19  Pass 1  IDiag  1:
 RMSU=  4.03D-09    CP:  5.39D-01  2.47D+00  1.75D+00  8.46D-01  8.21D-01
                    CP:  7.34D-01  1.29D+00  1.64D+00  1.53D+00  2.12D+00
                    CP:  1.77D+00  1.47D+00  1.78D+00  1.13D+00  1.80D+00
                    CP:  1.54D+00  1.38D+00  1.27D+00
 E= -3010.53278103720     Delta-E=        0.000000000051 Rises=F Damp=F
 DIIS: error= 6.07D-09 at cycle  19 NSaved=  19.
 NSaved=19 IEnMin=18 EnMin= -3010.53278103725     IErMin=19 ErrMin= 6.07D-09
 ErrMax= 6.07D-09  0.00D+00 EMaxC= 1.00D-01 BMatC= 1.42D-14 BMatP= 6.50D-14
 IDIUse=1 WtCom= 1.00D+00 WtEn= 0.00D+00
 Large coefficients: NSaved= 19 BigCof=    0.00 CofMax=   10.00 Det=-1.55D-14
 Inversion failed.  Reducing to 18 matrices.
 Large coefficients: NSaved= 18 BigCof=    0.00 CofMax=   10.00 Det=-1.56D-14
 Inversion failed.  Reducing to 17 matrices.
 Coeff-Com: -0.459D-07-0.196D-06 0.612D-07-0.147D-06-0.829D-05-0.108D-04
 Coeff-Com:  0.103D-03 0.152D-03-0.451D-03-0.791D-03-0.520D-04 0.508D-02
 Coeff-Com:  0.137D-01-0.422D-01-0.166D+00 0.978D-01 0.109D+01
 Coeff:     -0.459D-07-0.196D-06 0.612D-07-0.147D-06-0.829D-05-0.108D-04
 Coeff:      0.103D-03 0.152D-03-0.451D-03-0.791D-03-0.520D-04 0.508D-02
 Coeff:      0.137D-01-0.422D-01-0.166D+00 0.978D-01 0.109D+01
 Gap=     0.247 Goal=   None    Shift=    0.000
 RMSDP=8.34D-09 MaxDP=5.62D-07 DE= 5.09D-11 OVMax= 3.25D-07

 SCF Done:  E(RwB97XD) =  -3010.53278104     A.U. after   19 cycles
            NFock= 19  Conv=0.83D-08     -V/T= 2.0016
 KE= 3.005860092017D+03 PE=-8.701155598835D+03 EE= 1.910552865057D+03
 Leave Link  502 at Thu May  2 14:18:53 2024, MaxMem=   134217728 cpu:            1168.4 elap:            1168.6
 (Enter /software/gaussian/g16-c01/sse4/g16/l601.exe)
 Copying SCF densities to generalized density rwf, IOpCl= 0 IROHF=0.

 **********************************************************************

            Population analysis using the SCF Density.

 **********************************************************************

 Alpha  occ. eigenvalues -- -483.32875 -62.87921 -56.67584 -56.67056 -56.67049
 Alpha  occ. eigenvalues --  -19.46480 -19.46443 -14.85917 -10.59774 -10.58979
 Alpha  occ. eigenvalues --  -10.57879 -10.57651 -10.53923 -10.53254  -9.03743
 Alpha  occ. eigenvalues --   -6.86342  -6.84596  -6.84576  -2.96265  -2.95801
 Alpha  occ. eigenvalues --   -2.95784  -2.94387  -2.94387  -1.50155  -1.33107
 Alpha  occ. eigenvalues --   -1.23099  -1.13701  -1.13064  -1.05978  -1.00956
 Alpha  occ. eigenvalues --   -0.95970  -0.91113  -0.85320  -0.81321  -0.80617
 Alpha  occ. eigenvalues --   -0.80400  -0.78408  -0.76519  -0.76124  -0.72875
 Alpha  occ. eigenvalues --   -0.69108  -0.68133  -0.64294  -0.60948  -0.58348
 Alpha  occ. eigenvalues --   -0.57644  -0.57102  -0.56190  -0.55649
 Alpha virt. eigenvalues --   -0.30900  -0.20790  -0.17057  -0.13534  -0.11239
 Alpha virt. eigenvalues --   -0.08382  -0.07503  -0.06731  -0.05685  -0.04381
 Alpha virt. eigenvalues --   -0.04036  -0.02672  -0.02142  -0.01758  -0.01099
 Alpha virt. eigenvalues --   -0.00507   0.00215   0.01199   0.02173   0.03062
 Alpha virt. eigenvalues --    0.04382   0.05016   0.05609   0.05801   0.06445
 Alpha virt. eigenvalues --    0.07206   0.07361   0.07963   0.08928   0.09667
 Alpha virt. eigenvalues --    0.09860   0.11036   0.11379   0.11862   0.12645
 Alpha virt. eigenvalues --    0.12923   0.13298   0.13445   0.14445   0.15982
 Alpha virt. eigenvalues --    0.16367   0.16941   0.17927   0.18673   0.19531
 Alpha virt. eigenvalues --    0.20225   0.20760   0.21029   0.22352   0.23740
 Alpha virt. eigenvalues --    0.24057   0.26961   0.27124   0.28224   0.29726
 Alpha virt. eigenvalues --    0.31386   0.32911   0.33558   0.34101   0.35871
 Alpha virt. eigenvalues --    0.36806   0.37455   0.39091   0.39999   0.41237
 Alpha virt. eigenvalues --    0.43177   0.43994   0.44935   0.46668   0.47175
 Alpha virt. eigenvalues --    0.48159   0.49908   0.50102   0.51263   0.53243
 Alpha virt. eigenvalues --    0.54525   0.55631   0.57686   0.57869   0.59757
 Alpha virt. eigenvalues --    0.60623   0.61826   0.63708   0.66412   0.67751
 Alpha virt. eigenvalues --    0.70973   0.71184   0.72571   0.73869   0.74251
 Alpha virt. eigenvalues --    0.74313   0.77084   0.79431   0.81915   0.85022
 Alpha virt. eigenvalues --    0.86375   0.87301   0.91163   0.93594   0.98444
 Alpha virt. eigenvalues --    1.00063   1.02019   1.03474   1.05194   1.06604
 Alpha virt. eigenvalues --    1.08411   1.12426   1.13139   1.13788   1.17573
 Alpha virt. eigenvalues --    1.20833   1.22623   1.27731   1.33008   1.35904
 Alpha virt. eigenvalues --    1.36507   1.38581   1.42519   1.54414   1.56333
 Alpha virt. eigenvalues --    1.56989   1.59532   1.60839   1.63584   1.65255
 Alpha virt. eigenvalues --    1.67803   1.70970   1.73718   1.74892   1.79019
 Alpha virt. eigenvalues --    1.83567   1.84957   1.86871   1.93027   1.94832
 Alpha virt. eigenvalues --    1.97435   2.01727   2.02529   2.06711   2.08130
 Alpha virt. eigenvalues --    2.12161   2.14118   2.21974   2.23402   2.27059
 Alpha virt. eigenvalues --    2.33157   2.39608   2.41258   2.44060   2.52861
 Alpha virt. eigenvalues --    2.57743   2.62797   2.65552   2.68357   2.71493
 Alpha virt. eigenvalues --    2.73408   2.76135   2.77115   2.80340   2.81572
 Alpha virt. eigenvalues --    2.92697   2.97770   3.01058   3.05346   3.08545
 Alpha virt. eigenvalues --    3.14460   3.15985   3.17210   3.22248   3.26334
 Alpha virt. eigenvalues --    3.27472   3.37637   3.46200   3.49818   3.54439
 Alpha virt. eigenvalues --    3.57236   3.68663   3.73990   3.83210   3.86894
 Alpha virt. eigenvalues --    4.08195   4.09026   4.17792   4.21858   4.41733
 Alpha virt. eigenvalues --    4.44897   4.54172   4.59544   4.93350   4.96205
 Alpha virt. eigenvalues --    5.05038   5.09536   5.61775   6.14951   6.66266
 Alpha virt. eigenvalues --    7.47012   7.49368   7.59559  23.21669  23.60855
 Alpha virt. eigenvalues --   23.71114  23.77491  23.95257  24.01687  35.31247
 Alpha virt. eigenvalues --   47.92416  49.85001  49.93664 289.80077 289.82419
 Alpha virt. eigenvalues --  289.950611020.93630
          Condensed to atoms (all electrons):
               1          2          3          4          5          6
     1  C    8.020614  -2.899547   1.063771  -0.156396   0.302422   0.052681
     2  C   -2.899547  17.403475  -5.057585   0.573315  -0.026281   0.185091
     3  C    1.063771  -5.057585  18.776976  -1.446720   0.037801   0.124911
     4  C   -0.156396   0.573315  -1.446720   6.470969   0.012956  -0.016619
     5  H    0.302422  -0.026281   0.037801   0.012956   0.328725  -0.001582
     6  H    0.052681   0.185091   0.124911  -0.016619  -0.001582   0.309729
     7  H    0.023978  -0.024526   0.024443   0.309932  -0.002768  -0.000005
     8  N   -0.107718   0.301528  -1.582305   0.018604  -0.000670  -0.030087
     9  O   -0.036896   0.152874  -0.292026  -0.011239  -0.000038  -0.002395
    10  O    0.278049  -0.302437  -0.123255  -0.029569   0.000042   0.021558
    11  C    0.839951  -1.072526   2.249142  -0.309993  -0.022764   0.009377
    12  H   -0.009570   0.013022   0.014279   0.008660   0.000006  -0.000016
    13  C   -1.268551  -3.254790  -7.482626   0.873234   0.024134  -0.005349
    14  H   -0.006096   0.012290   0.011858   0.007490  -0.000022   0.000018
    15  Br  -0.014892  -0.143731  -0.228928   0.038625  -0.000226  -0.000525
               7          8          9         10         11         12
     1  C    0.023978  -0.107718  -0.036896   0.278049   0.839951  -0.009570
     2  C   -0.024526   0.301528   0.152874  -0.302437  -1.072526   0.013022
     3  C    0.024443  -1.582305  -0.292026  -0.123255   2.249142   0.014279
     4  C    0.309932   0.018604  -0.011239  -0.029569  -0.309993   0.008660
     5  H   -0.002768  -0.000670  -0.000038   0.000042  -0.022764   0.000006
     6  H   -0.000005  -0.030087  -0.002395   0.021558   0.009377  -0.000016
     7  H    0.334530  -0.000016   0.000012  -0.000008   0.032553  -0.002248
     8  N   -0.000016   7.606342   0.118794   0.137521  -0.288295   0.000263
     9  O    0.000012   0.118794   7.838606   0.010179   0.243745   0.000090
    10  O   -0.000008   0.137521   0.010179   7.845868   0.022882  -0.000009
    11  C    0.032553  -0.288295   0.243745   0.022882   8.086626   0.324464
    12  H   -0.002248   0.000263   0.000090  -0.000009   0.324464   0.315183
    13  C   -0.030210   0.928625  -0.071214   0.068646  -3.972745  -0.018373
    14  H   -0.000012  -0.020761   0.006517  -0.001822  -0.007447  -0.003460
    15  Br  -0.000491   0.137387  -0.046753   0.000322   0.037144  -0.003239
              13         14         15
     1  C   -1.268551  -0.006096  -0.014892
     2  C   -3.254790   0.012290  -0.143731
     3  C   -7.482626   0.011858  -0.228928
     4  C    0.873234   0.007490   0.038625
     5  H    0.024134  -0.000022  -0.000226
     6  H   -0.005349   0.000018  -0.000525
     7  H   -0.030210  -0.000012  -0.000491
     8  N    0.928625  -0.020761   0.137387
     9  O   -0.071214   0.006517  -0.046753
    10  O    0.068646  -0.001822   0.000322
    11  C   -3.972745  -0.007447   0.037144
    12  H   -0.018373  -0.003460  -0.003239
    13  C   19.881070   0.307532   0.336650
    14  H    0.307532   0.278842  -0.030615
    15  Br   0.336650  -0.030615  34.841683
 Mulliken charges:
               1
     1  C   -0.081798
     2  C    0.139827
     3  C   -0.089738
     4  C   -0.343248
     5  H    0.348267
     6  H    0.353212
     7  H    0.334835
     8  N   -0.219211
     9  O    0.089745
    10  O    0.072031
    11  C   -0.172114
    12  H    0.360950
    13  C   -0.316032
    14  H    0.445687
    15  Br   0.077588
 Sum of Mulliken charges =   1.00000
 Mulliken charges with hydrogens summed into heavy atoms:
               1
     1  C    0.266469
     2  C    0.493039
     3  C   -0.089738
     4  C   -0.008412
     8  N   -0.219211
     9  O    0.089745
    10  O    0.072031
    11  C    0.188836
    13  C    0.129655
    15  Br   0.077588
 Electronic spatial extent (au):  <R**2>=           3948.5113
 Charge=              1.0000 electrons
 Dipole moment (field-independent basis, Debye):
    X=              2.6354    Y=             -0.4841    Z=              1.1670  Tot=              2.9226
 Quadrupole moment (field-independent basis, Debye-Ang):
   XX=            -67.8154   YY=            -51.8238   ZZ=            -64.7273
   XY=             -2.1297   XZ=              1.3926   YZ=              0.5814
 Traceless Quadrupole moment (field-independent basis, Debye-Ang):
   XX=             -6.3599   YY=              9.6317   ZZ=             -3.2718
   XY=             -2.1297   XZ=              1.3926   YZ=              0.5814
 Octapole moment (field-independent basis, Debye-Ang**2):
  XXX=           -511.5841  YYY=             95.3331  ZZZ=             93.1359  XYY=           -138.4492
  XXY=             26.2181  XXZ=             37.7450  XZZ=           -138.1639  YZZ=             22.3950
  YYZ=             31.9374  XYZ=              3.8039
 Hexadecapole moment (field-independent basis, Debye-Ang**3):
 XXXX=          -3435.7406 YYYY=           -709.6829 ZZZZ=           -421.2457 XXXY=            182.8614
 XXXZ=            226.2243 YYYX=            192.2643 YYYZ=           -184.0316 ZZZX=            189.0941
 ZZZY=           -160.6733 XXYY=           -628.3765 XXZZ=           -540.1999 YYZZ=           -183.8819
 XXYZ=            -51.8181 YYXZ=             62.8682 ZZXY=             40.3693
 N-N= 7.742098607238D+02 E-N=-8.701155598722D+03  KE= 3.005860092017D+03
 No NMR shielding tensors so no spin-rotation constants.
 Leave Link  601 at Thu May  2 14:19:00 2024, MaxMem=   134217728 cpu:               7.3 elap:               7.3
 (Enter /software/gaussian/g16-c01/sse4/g16/l9999.exe)
 Unable to Open any file for archive entry.
 1\1\GINC-BHX0016\SP\RwB97XD\6-311+G(d)\C6H5Br1N1O2(1+)\BWEIGHT\02-May-
 2024\0\\#P wB97XD/6-311+G* NoSymm #P Field=Z-107\\TitleMe\\1,1\C,0,0.5
 193,1.233,-0.0319\C,0,1.9445,1.2692,-0.0367\C,0,2.6204,0.0928,-0.025\C
 ,0,-0.196,0.0301,0.001\H,0,-0.0207,2.1742,-0.0434\H,0,2.4828,2.2089,-0
 .0361\H,0,-1.2777,0.0399,0.0117\N,0,4.0921,0.0959,0.0366\O,0,4.6393,-1
 .0217,0.1446\O,0,4.6649,1.1984,-0.0233\C,0,0.4943,-1.1671,0.021\H,0,-0
 .0325,-2.1149,0.0545\C,0,1.9629,-1.2165,-0.0211\H,0,2.4436,-1.9631,0.6
 151\Br,0,2.173,-1.9491,-1.9062\\Version=ES64L-G16RevC.01\HF=-3010.5327
 81\RMSD=8.340e-09\Dipole=-3.2923732,1.0376581,1.7083391\Quadrupole=-4.
 7284436,7.1609217,-2.432478,-1.5833987,1.0353867,0.4322601\PG=C01 [X(C
 6H5Br1N1O2)]\\@
 The archive entry for this job was punched.


 ERWIN WITH HIS PSI CAN DO
 CALCULATIONS QUITE A FEW.
 BUT ONE THING HAS NOT BEEN SEEN
 JUST WHAT DOES PSI REALLY MEAN.
 -- WALTER HUCKEL, TRANS. BY FELIX BLOCH
 Job cpu time:       0 days  0 hours 20 minutes 38.6 seconds.
 Elapsed time:       0 days  0 hours 20 minutes 38.9 seconds.
 File lengths (MBytes):  RWF=     40 Int=      0 D2E=      0 Chk=     32 Scr=      1
 Normal termination of Gaussian 16 at Thu May  2 14:19:01 2024.
