 Entering Gaussian System, Link 0=g16
 Initial command:
 /software/gaussian/g16-c01/sse4/g16/l1.exe "/local_scratch/24665331/Gau-3144.inp" -scrdir="/local_scratch/24665331/"
 Entering Link 1 = /software/gaussian/g16-c01/sse4/g16/l1.exe PID=      3151.
  
 Copyright (c) 1988-2019, Gaussian, Inc.  All Rights Reserved.
  
 This is part of the Gaussian(R) 16 program.  It is based on
 the Gaussian(R) 09 system (copyright 2009, Gaussian, Inc.),
 the Gaussian(R) 03 system (copyright 2003, Gaussian, Inc.),
 the Gaussian(R) 98 system (copyright 1998, Gaussian, Inc.),
 the Gaussian(R) 94 system (copyright 1995, Gaussian, Inc.),
 the Gaussian 92(TM) system (copyright 1992, Gaussian, Inc.),
 the Gaussian 90(TM) system (copyright 1990, Gaussian, Inc.),
 the Gaussian 88(TM) system (copyright 1988, Gaussian, Inc.),
 the Gaussian 86(TM) system (copyright 1986, Carnegie Mellon
 University), and the Gaussian 82(TM) system (copyright 1983,
 Carnegie Mellon University). Gaussian is a federally registered
 trademark of Gaussian, Inc.
  
 This software contains proprietary and confidential information,
 including trade secrets, belonging to Gaussian, Inc.
  
 This software is provided under written license and may be
 used, copied, transmitted, or stored only in accord with that
 written license.
  
 The following legend is applicable only to US Government
 contracts under FAR:
  
                    RESTRICTED RIGHTS LEGEND
  
 Use, reproduction and disclosure by the US Government is
 subject to restrictions as set forth in subparagraphs (a)
 and (c) of the Commercial Computer Software - Restricted
 Rights clause in FAR 52.227-19.
  
 Gaussian, Inc.
 340 Quinnipiac St., Bldg. 40, Wallingford CT 06492
  
  
 ---------------------------------------------------------------
 Warning -- This program may not be used in any manner that
 competes with the business of Gaussian, Inc. or will provide
 assistance to any competitor of Gaussian, Inc.  The licensee
 of this program is prohibited from giving any competitor of
 Gaussian, Inc. access to this program.  By using this program,
 the user acknowledges that Gaussian, Inc. is engaged in the
 business of creating and licensing software in the field of
 computational chemistry and represents and warrants to the
 licensee that it is not a competitor of Gaussian, Inc. and that
 it will not use this program in any manner prohibited above.
 ---------------------------------------------------------------
  

 Cite this work as:
 Gaussian 16, Revision C.01,
 M. J. Frisch, G. W. Trucks, H. B. Schlegel, G. E. Scuseria, 
 M. A. Robb, J. R. Cheeseman, G. Scalmani, V. Barone, 
 G. A. Petersson, H. Nakatsuji, X. Li, M. Caricato, A. V. Marenich, 
 J. Bloino, B. G. Janesko, R. Gomperts, B. Mennucci, H. P. Hratchian, 
 J. V. Ortiz, A. F. Izmaylov, J. L. Sonnenberg, D. Williams-Young, 
 F. Ding, F. Lipparini, F. Egidi, J. Goings, B. Peng, A. Petrone, 
 T. Henderson, D. Ranasinghe, V. G. Zakrzewski, J. Gao, N. Rega, 
 G. Zheng, W. Liang, M. Hada, M. Ehara, K. Toyota, R. Fukuda, 
 J. Hasegawa, M. Ishida, T. Nakajima, Y. Honda, O. Kitao, H. Nakai, 
 T. Vreven, K. Throssell, J. A. Montgomery, Jr., J. E. Peralta, 
 F. Ogliaro, M. J. Bearpark, J. J. Heyd, E. N. Brothers, K. N. Kudin, 
 V. N. Staroverov, T. A. Keith, R. Kobayashi, J. Normand, 
 K. Raghavachari, A. P. Rendell, J. C. Burant, S. S. Iyengar, 
 J. Tomasi, M. Cossi, J. M. Millam, M. Klene, C. Adamo, R. Cammi, 
 J. W. Ochterski, R. L. Martin, K. Morokuma, O. Farkas, 
 J. B. Foresman, and D. J. Fox, Gaussian, Inc., Wallingford CT, 2019.
 
 ******************************************
 Gaussian 16:  ES64L-G16RevC.01  3-Jul-2019
                 2-May-2024 
 ******************************************
 %chk=geometry.chk
 %mem=1GB
 %nprocshared=12
 Will use up to   12 processors via shared memory.
 ---------------------------------------
 #P wB97XD/6-311+G* NoSymm #P Field=Y+77
 ---------------------------------------
 1/38=1,172=1/1;
 2/12=2,15=1,17=6,18=5,40=1/2;
 3/5=4,6=6,7=11,11=2,14=2,15=77,25=1,30=1,74=-58/1,2,3;
 4//1;
 5/5=2,38=5/2;
 6/7=2,8=2,9=2,10=2,28=1/1;
 99/5=1,9=1/99;
 Leave Link    1 at Thu May  2 13:57:42 2024, MaxMem=   134217728 cpu:               1.6 elap:               1.6
 (Enter /software/gaussian/g16-c01/sse4/g16/l101.exe)
 -------
 TitleMe
 -------
 Symbolic Z-matrix:
 Charge =  1 Multiplicity = 1
 C                     0.5193    1.233    -0.0319 
 C                     1.9445    1.2692   -0.0367 
 C                     2.6204    0.0928   -0.025 
 C                    -0.196     0.0301    0.001 
 H                    -0.0207    2.1742   -0.0434 
 H                     2.4828    2.2089   -0.0361 
 H                    -1.2777    0.0399    0.0117 
 N                     4.0921    0.0959    0.0366 
 O                     4.6393   -1.0217    0.1446 
 O                     4.6649    1.1984   -0.0233 
 C                     0.4943   -1.1671    0.021 
 H                    -0.0325   -2.1149    0.0545 
 C                     1.9629   -1.2165   -0.0211 
 H                     2.4436   -1.9631    0.6151 
 Br                    2.173    -1.9491   -1.9062 
 
 ITRead=  0  0  0  0  0  0  0  0  0  0  0  0  0  0  0
 MicOpt= -1 -1 -1 -1 -1 -1 -1 -1 -1 -1 -1 -1 -1 -1 -1
 NAtoms=     15 NQM=       15 NQMF=       0 NMMI=      0 NMMIF=      0
                NMic=       0 NMicF=      0.
                    Isotopes and Nuclear Properties:
 (Nuclear quadrupole moments (NQMom) in fm**2, nuclear magnetic moments (NMagM)
  in nuclear magnetons)

  Atom         1           2           3           4           5           6           7           8           9          10
 IAtWgt=          12          12          12          12           1           1           1          14          16          16
 AtmWgt=  12.0000000  12.0000000  12.0000000  12.0000000   1.0078250   1.0078250   1.0078250  14.0030740  15.9949146  15.9949146
 NucSpn=           0           0           0           0           1           1           1           2           0           0
 AtZEff=  -0.0000000  -0.0000000  -0.0000000  -0.0000000  -0.0000000  -0.0000000  -0.0000000  -0.0000000  -0.0000000  -0.0000000
 NQMom=    0.0000000   0.0000000   0.0000000   0.0000000   0.0000000   0.0000000   0.0000000   2.0440000   0.0000000   0.0000000
 NMagM=    0.0000000   0.0000000   0.0000000   0.0000000   2.7928460   2.7928460   2.7928460   0.4037610   0.0000000   0.0000000
 AtZNuc=   6.0000000   6.0000000   6.0000000   6.0000000   1.0000000   1.0000000   1.0000000   7.0000000   8.0000000   8.0000000

  Atom        11          12          13          14          15
 IAtWgt=          12           1          12           1          79
 AtmWgt=  12.0000000   1.0078250  12.0000000   1.0078250  78.9183361
 NucSpn=           0           1           0           1           3
 AtZEff=  -0.0000000  -0.0000000  -0.0000000  -0.0000000  -0.0000000
 NQMom=    0.0000000   0.0000000   0.0000000   0.0000000  31.3000000
 NMagM=    0.0000000   2.7928460   0.0000000   2.7928460   2.1063990
 AtZNuc=   6.0000000   1.0000000   6.0000000   1.0000000  35.0000000
 Leave Link  101 at Thu May  2 13:57:44 2024, MaxMem=   134217728 cpu:               1.4 elap:               1.4
 (Enter /software/gaussian/g16-c01/sse4/g16/l202.exe)
                          Input orientation:                          
 ---------------------------------------------------------------------
 Center     Atomic      Atomic             Coordinates (Angstroms)
 Number     Number       Type             X           Y           Z
 ---------------------------------------------------------------------
      1          6           0        0.519300    1.233000   -0.031900
      2          6           0        1.944500    1.269200   -0.036700
      3          6           0        2.620400    0.092800   -0.025000
      4          6           0       -0.196000    0.030100    0.001000
      5          1           0       -0.020700    2.174200   -0.043400
      6          1           0        2.482800    2.208900   -0.036100
      7          1           0       -1.277700    0.039900    0.011700
      8          7           0        4.092100    0.095900    0.036600
      9          8           0        4.639300   -1.021700    0.144600
     10          8           0        4.664900    1.198400   -0.023300
     11          6           0        0.494300   -1.167100    0.021000
     12          1           0       -0.032500   -2.114900    0.054500
     13          6           0        1.962900   -1.216500   -0.021100
     14          1           0        2.443600   -1.963100    0.615100
     15         35           0        2.173000   -1.949100   -1.906200
 ---------------------------------------------------------------------
                    Distance matrix (angstroms):
                    1          2          3          4          5
     1  C    0.000000
     2  C    1.425668   0.000000
     3  C    2.390549   1.356796   0.000000
     4  C    1.399895   2.473566   2.817218   0.000000
     5  H    1.085168   2.163581   3.362733   2.151712   0.000000
     6  H    2.192654   1.082960   2.120598   3.453189   2.503751
     7  H    2.157452   3.449071   3.898632   1.081797   2.477564
     8  N    3.750012   2.448304   1.472992   4.288753   4.608780
     9  O    4.699917   3.541615   2.312322   4.950458   5.653735
    10  O    4.145753   2.721354   2.324292   4.999386   4.786171
    11  C    2.400813   2.835836   2.471794   1.382101   3.381369
    12  H    3.394169   3.920329   3.452266   2.151887   4.290233
    13  C    2.843264   2.485817   1.465124   2.493060   3.928360
    14  H    3.786370   3.334922   2.160489   3.364142   4.860416
    15  Br   4.046416   3.728900   2.812194   3.628609   5.028314
                    6          7          8          9         10
     6  H    0.000000
     7  H    4.341452   0.000000
     8  N    2.657047   5.370150   0.000000
     9  O    3.888434   6.012948   1.249048   0.000000
    10  O    2.404752   6.054572   1.243863   2.226587   0.000000
    11  C    3.918516   2.144043   3.813080   4.149391   4.794941
    12  H    5.003018   2.489080   4.679774   4.798846   5.748876
    13  C    3.464662   3.475788   2.501842   2.688591   3.623886
    14  H    4.222698   4.268978   2.700314   2.434893   3.916224
    15  Br   4.569706   4.420610   3.411663   3.338935   4.434144
                   11         12         13         14         15
    11  C    0.000000
    12  H    1.084880   0.000000
    13  C    1.470034   2.189625   0.000000
    14  H    2.187771   2.543302   1.092353   0.000000
    15  Br   2.672762   2.955683   2.033334   2.535818   0.000000
 Symmetry turned off by external request.
 Stoichiometry    C6H5BrNO2(1+)
 Framework group  C1[X(C6H5BrNO2)]
 Deg. of freedom    39
 Full point group                 C1      NOp   1
 Rotational constants (GHZ):           1.1632986           0.9594224           0.5957624
 Leave Link  202 at Thu May  2 13:57:46 2024, MaxMem=   134217728 cpu:               1.2 elap:               1.2
 (Enter /software/gaussian/g16-c01/sse4/g16/l301.exe)
 Standard basis: 6-311+G(d) (5D, 7F)
 Ernie: Thresh=  0.10000D-02 Tol=  0.10000D-05 Strict=F.
 The following finite field(s) will be applied:
 An electric field of              0.0000  0.0077  0.0000
   261 basis functions,   443 primitive gaussians,   273 cartesian basis functions
    49 alpha electrons       49 beta electrons
       nuclear repulsion energy       772.8945969580 Hartrees.
 IExCor= 4639 DFT=T Ex+Corr=wB97XD ExCW=0 ScaHFX=  1.000000
 ScaDFX=  1.000000  1.000000  1.000000  1.000000 ScalE2=  1.000000  1.000000
 IRadAn=      5 IRanWt=     -1 IRanGd=            0 ICorTp=0 IEmpDi=121
 HFx  wShort=  0.000000 wLong=  0.200000 cFull=  0.222036 cShort=  0.000000 cLong=  0.777964
 DFx  wShort=  0.000000 wLong=  0.200000 cFull=  0.000000 cShort=  0.000000 cLong=  1.000000
 NAtoms=   15 NActive=   15 NUniq=   15 SFac= 1.00D+00 NAtFMM=   60 NAOKFM=F Big=F
 Integral buffers will be    131072 words long.
 Raffenetti 2 integral format.
 Two-electron integral symmetry is turned off.
 R6Disp:  Grimme-D2 Dispersion energy=       -0.0080346408 Hartrees.
 Nuclear repulsion after empirical dispersion term =      772.8865623173 Hartrees.
 Leave Link  301 at Thu May  2 13:57:48 2024, MaxMem=   134217728 cpu:               1.1 elap:               1.1
 (Enter /software/gaussian/g16-c01/sse4/g16/l302.exe)
 NPDir=0 NMtPBC=     1 NCelOv=     1 NCel=       1 NClECP=     1 NCelD=      1
         NCelK=      1 NCelE2=     1 NClLst=     1 CellRange=     0.0.
 One-electron integrals computed using PRISM.
 NBasis=   261 RedAO= T EigKep=  2.52D-06  NBF=   261
 NBsUse=   261 1.00D-06 EigRej= -1.00D+00 NBFU=   261
 Precomputing XC quadrature grid using
 IXCGrd= 4 IRadAn=           5 IRanWt=          -1 IRanGd=           0 AccXCQ= 0.00D+00.
 Generated NRdTot=       0 NPtTot=           0 NUsed=           0 NTot=          32
 NSgBfM=   273   273   273   273   273 MxSgAt=    15 MxSgA2=    15.
 Leave Link  302 at Thu May  2 13:58:10 2024, MaxMem=   134217728 cpu:              21.9 elap:              21.9
 (Enter /software/gaussian/g16-c01/sse4/g16/l303.exe)
 DipDrv:  MaxL=1.
 The nuclear repulsion energy is now       771.9503638005 hartrees.
 Leave Link  303 at Thu May  2 13:58:13 2024, MaxMem=   134217728 cpu:               3.3 elap:               3.3
 (Enter /software/gaussian/g16-c01/sse4/g16/l401.exe)
 ExpMin= 3.50D-02 ExpMax= 4.40D+05 ExpMxC= 1.51D+04 IAcc=3 IRadAn=         5 AccDes= 0.00D+00
 Harris functional with IExCor= 4639 and IRadAn=       5 diagonalized for initial guess.
 HarFok:  IExCor= 4639 AccDes= 0.00D+00 IRadAn=         5 IDoV= 1 UseB2=F ITyADJ=14
 ICtDFT=  3500011 ScaDFX=  1.000000  1.000000  1.000000  1.000000
 FoFCou: FMM=F IPFlag=           0 FMFlag=      100000 FMFlg1=           0
         NFxFlg=           0 DoJE=T BraDBF=F KetDBF=T FulRan=T
         wScrn=  0.000000 ICntrl=       500 IOpCl=  0 I1Cent=   200000004 NGrid=           0
         NMat0=    1 NMatS0=      1 NMatT0=    0 NMatD0=    1 NMtDS0=    0 NMtDT0=    0
 Symmetry not used in FoFCou.
 Harris En= -2970.61262444106    
 JPrj=0 DoOrth=F DoCkMO=F.
 Leave Link  401 at Thu May  2 13:58:45 2024, MaxMem=   134217728 cpu:              31.3 elap:              31.3
 (Enter /software/gaussian/g16-c01/sse4/g16/l502.exe)
 Two-electron integral symmetry not used.
 Closed shell SCF:
 Using DIIS extrapolation, IDIIS=  1040.
 NGot=   134217728 LenX=   134063053 LenY=   133988083
 Requested convergence on RMS density matrix=1.00D-08 within 128 cycles.
 Requested convergence on MAX density matrix=1.00D-06.
 Requested convergence on             energy=1.00D-06.
 No special actions if energy rises.
 Fock matrices will be formed incrementally for  20 cycles.

 Cycle   1  Pass 1  IDiag  1:
 FoFJK:  IHMeth= 1 ICntrl=       0 DoSepK=T KAlg= 0 I1Cent=           0 FoldK=F
 IRaf=         1 NMat=       1 IRICut=       1 DoRegI=T DoRafI=F ISym2E= 0 IDoP0=0 IntGTp=1.
 FoFCou: FMM=F IPFlag=           0 FMFlag=      100000 FMFlg1=           0
         NFxFlg=           0 DoJE=T BraDBF=F KetDBF=F FulRan=T
         wScrn=  0.000000 ICntrl=       500 IOpCl=  0 I1Cent=           0 NGrid=           0
         NMat0=    1 NMatS0=      1 NMatT0=    0 NMatD0=    1 NMtDS0=    0 NMtDT0=    0
 Symmetry not used in FoFCou.
 E= -3009.67702762229    
 DIIS: error= 2.90D-01 at cycle   1 NSaved=   1.
 NSaved= 1 IEnMin= 1 EnMin= -3009.67702762229     IErMin= 1 ErrMin= 2.90D-01
 ErrMax= 2.90D-01  0.00D+00 EMaxC= 1.00D-01 BMatC= 1.20D+01 BMatP= 1.20D+01
 IDIUse=3 WtCom= 0.00D+00 WtEn= 1.00D+00
 Coeff-Com:  0.100D+01
 Coeff-En:   0.100D+01
 Coeff:      0.100D+01
 Gap=     0.362 Goal=   None    Shift=    0.000
 GapD=    0.362 DampG=1.000 DampE=0.250 DampFc=0.2500 IDamp=-1.
 Damping current iteration by 2.50D-01
 RMSDP=5.25D-02 MaxDP=6.54D+00              OVMax= 2.78D-01

 Cycle   2  Pass 1  IDiag  1:
 RMSU=  7.32D-03    CP:  9.04D-01
 E= -3009.97798933406     Delta-E=       -0.300961711770 Rises=F Damp=T
 DIIS: error= 2.19D-01 at cycle   2 NSaved=   2.
 NSaved= 2 IEnMin= 2 EnMin= -3009.97798933406     IErMin= 2 ErrMin= 2.19D-01
 ErrMax= 2.19D-01  0.00D+00 EMaxC= 1.00D-01 BMatC= 5.46D+00 BMatP= 1.20D+01
 IDIUse=3 WtCom= 0.00D+00 WtEn= 1.00D+00
 Coeff-Com: -0.181D+01 0.281D+01
 Coeff-En:   0.000D+00 0.100D+01
 Coeff:      0.000D+00 0.100D+01
 Gap=     0.264 Goal=   None    Shift=    0.000
 RMSDP=4.12D-02 MaxDP=5.08D+00 DE=-3.01D-01 OVMax= 9.52D-02

 Cycle   3  Pass 1  IDiag  1:
 RMSU=  5.77D-03    CP:  5.71D-01  3.00D+00
 E= -3010.37633400337     Delta-E=       -0.398344669306 Rises=F Damp=F
 DIIS: error= 6.63D-02 at cycle   3 NSaved=   3.
 NSaved= 3 IEnMin= 3 EnMin= -3010.37633400337     IErMin= 3 ErrMin= 6.63D-02
 ErrMax= 6.63D-02  0.00D+00 EMaxC= 1.00D-01 BMatC= 7.48D-01 BMatP= 5.46D+00
 IDIUse=3 WtCom= 3.37D-01 WtEn= 6.63D-01
 Coeff-Com:  0.219D+01-0.283D+01 0.165D+01
 Coeff-En:   0.438D-01 0.000D+00 0.956D+00
 Coeff:      0.765D+00-0.953D+00 0.119D+01
 Gap=     0.266 Goal=   None    Shift=    0.000
 RMSDP=1.08D-02 MaxDP=8.01D-01 DE=-3.98D-01 OVMax= 9.21D-02

 Cycle   4  Pass 1  IDiag  1:
 RMSU=  8.97D-03    CP:  6.04D-01  2.80D+00  1.76D+00
 E= -3010.47776046406     Delta-E=       -0.101426460687 Rises=F Damp=F
 DIIS: error= 3.86D-02 at cycle   4 NSaved=   4.
 NSaved= 4 IEnMin= 4 EnMin= -3010.47776046406     IErMin= 4 ErrMin= 3.86D-02
 ErrMax= 3.86D-02  0.00D+00 EMaxC= 1.00D-01 BMatC= 2.49D-01 BMatP= 7.48D-01
 IDIUse=3 WtCom= 6.14D-01 WtEn= 3.86D-01
 Coeff-Com:  0.420D+00-0.542D+00 0.594D+00 0.528D+00
 Coeff-En:   0.000D+00 0.000D+00 0.238D+00 0.762D+00
 Coeff:      0.258D+00-0.333D+00 0.456D+00 0.619D+00
 Gap=     0.251 Goal=   None    Shift=    0.000
 RMSDP=6.45D-03 MaxDP=8.03D-01 DE=-1.01D-01 OVMax= 8.22D-02

 Cycle   5  Pass 1  IDiag  1:
 RMSU=  2.02D-03    CP:  5.67D-01  2.65D+00  1.79D+00  5.14D-01
 E= -3010.52620069920     Delta-E=       -0.048440235139 Rises=F Damp=F
 DIIS: error= 1.54D-02 at cycle   5 NSaved=   5.
 NSaved= 5 IEnMin= 5 EnMin= -3010.52620069920     IErMin= 5 ErrMin= 1.54D-02
 ErrMax= 1.54D-02  0.00D+00 EMaxC= 1.00D-01 BMatC= 1.90D-02 BMatP= 2.49D-01
 IDIUse=3 WtCom= 8.46D-01 WtEn= 1.54D-01
 Coeff-Com: -0.159D-02 0.845D-02 0.189D+00 0.379D+00 0.426D+00
 Coeff-En:   0.000D+00 0.000D+00 0.000D+00 0.105D+00 0.895D+00
 Coeff:     -0.135D-02 0.715D-02 0.160D+00 0.336D+00 0.498D+00
 Gap=     0.256 Goal=   None    Shift=    0.000
 RMSDP=2.38D-03 MaxDP=2.32D-01 DE=-4.84D-02 OVMax= 5.50D-02

 Cycle   6  Pass 1  IDiag  1:
 RMSU=  7.44D-04    CP:  5.67D-01  2.81D+00  1.77D+00  7.11D-01  5.90D-01
 E= -3010.53674405511     Delta-E=       -0.010543355915 Rises=F Damp=F
 DIIS: error= 4.47D-03 at cycle   6 NSaved=   6.
 NSaved= 6 IEnMin= 6 EnMin= -3010.53674405511     IErMin= 6 ErrMin= 4.47D-03
 ErrMax= 4.47D-03  0.00D+00 EMaxC= 1.00D-01 BMatC= 1.88D-03 BMatP= 1.90D-02
 IDIUse=3 WtCom= 9.55D-01 WtEn= 4.47D-02
 Coeff-Com: -0.581D-01 0.784D-01 0.647D-02 0.116D+00 0.320D+00 0.537D+00
 Coeff-En:   0.000D+00 0.000D+00 0.000D+00 0.000D+00 0.106D+00 0.894D+00
 Coeff:     -0.555D-01 0.749D-01 0.619D-02 0.111D+00 0.310D+00 0.553D+00
 Gap=     0.239 Goal=   None    Shift=    0.000
 RMSDP=6.00D-04 MaxDP=5.14D-02 DE=-1.05D-02 OVMax= 1.35D-02

 Cycle   7  Pass 1  IDiag  1:
 RMSU=  3.15D-04    CP:  5.68D-01  2.79D+00  1.79D+00  6.75D-01  7.19D-01
                    CP:  6.71D-01
 E= -3010.53803574812     Delta-E=       -0.001291693009 Rises=F Damp=F
 DIIS: error= 4.00D-04 at cycle   7 NSaved=   7.
 NSaved= 7 IEnMin= 7 EnMin= -3010.53803574812     IErMin= 7 ErrMin= 4.00D-04
 ErrMax= 4.00D-04  0.00D+00 EMaxC= 1.00D-01 BMatC= 2.51D-05 BMatP= 1.88D-03
 IDIUse=3 WtCom= 9.96D-01 WtEn= 4.00D-03
 Coeff-Com: -0.291D-01 0.388D-01-0.107D-01 0.267D-01 0.981D-01 0.223D+00
 Coeff-Com:  0.653D+00
 Coeff-En:   0.000D+00 0.000D+00 0.000D+00 0.000D+00 0.000D+00 0.000D+00
 Coeff-En:   0.100D+01
 Coeff:     -0.290D-01 0.386D-01-0.107D-01 0.266D-01 0.977D-01 0.222D+00
 Coeff:      0.655D+00
 Gap=     0.241 Goal=   None    Shift=    0.000
 RMSDP=1.94D-04 MaxDP=2.16D-02 DE=-1.29D-03 OVMax= 1.95D-03

 Cycle   8  Pass 1  IDiag  1:
 RMSU=  8.64D-05    CP:  5.66D-01  2.79D+00  1.79D+00  6.83D-01  7.59D-01
                    CP:  7.52D-01  9.73D-01
 E= -3010.53806419847     Delta-E=       -0.000028450351 Rises=F Damp=F
 DIIS: error= 1.29D-04 at cycle   8 NSaved=   8.
 NSaved= 8 IEnMin= 8 EnMin= -3010.53806419847     IErMin= 8 ErrMin= 1.29D-04
 ErrMax= 1.29D-04  0.00D+00 EMaxC= 1.00D-01 BMatC= 2.28D-06 BMatP= 2.51D-05
 IDIUse=3 WtCom= 9.99D-01 WtEn= 1.29D-03
 Coeff-Com: -0.342D-03 0.302D-03-0.390D-02-0.739D-02-0.213D-01-0.354D-01
 Coeff-Com:  0.149D+00 0.919D+00
 Coeff-En:   0.000D+00 0.000D+00 0.000D+00 0.000D+00 0.000D+00 0.000D+00
 Coeff-En:   0.000D+00 0.100D+01
 Coeff:     -0.342D-03 0.301D-03-0.389D-02-0.738D-02-0.213D-01-0.354D-01
 Coeff:      0.149D+00 0.919D+00
 Gap=     0.241 Goal=   None    Shift=    0.000
 RMSDP=8.76D-05 MaxDP=7.47D-03 DE=-2.85D-05 OVMax= 1.06D-03

 Cycle   9  Pass 1  IDiag  1:
 RMSU=  2.82D-05    CP:  5.67D-01  2.80D+00  1.79D+00  6.87D-01  7.78D-01
                    CP:  7.60D-01  1.13D+00  1.24D+00
 E= -3010.53806955329     Delta-E=       -0.000005354818 Rises=F Damp=F
 DIIS: error= 3.23D-05 at cycle   9 NSaved=   9.
 NSaved= 9 IEnMin= 9 EnMin= -3010.53806955329     IErMin= 9 ErrMin= 3.23D-05
 ErrMax= 3.23D-05  0.00D+00 EMaxC= 1.00D-01 BMatC= 3.16D-07 BMatP= 2.28D-06
 IDIUse=1 WtCom= 1.00D+00 WtEn= 0.00D+00
 Coeff-Com:  0.380D-02-0.512D-02 0.215D-04-0.608D-02-0.188D-01-0.401D-01
 Coeff-Com: -0.305D-01 0.297D+00 0.800D+00
 Coeff:      0.380D-02-0.512D-02 0.215D-04-0.608D-02-0.188D-01-0.401D-01
 Coeff:     -0.305D-01 0.297D+00 0.800D+00
 Gap=     0.241 Goal=   None    Shift=    0.000
 RMSDP=3.41D-05 MaxDP=2.15D-03 DE=-5.35D-06 OVMax= 6.02D-04

 Cycle  10  Pass 1  IDiag  1:
 RMSU=  1.20D-05    CP:  5.67D-01  2.79D+00  1.79D+00  6.86D-01  7.84D-01
                    CP:  7.64D-01  1.19D+00  1.38D+00  1.26D+00
 E= -3010.53807077214     Delta-E=       -0.000001218851 Rises=F Damp=F
 DIIS: error= 1.96D-05 at cycle  10 NSaved=  10.
 NSaved=10 IEnMin=10 EnMin= -3010.53807077214     IErMin=10 ErrMin= 1.96D-05
 ErrMax= 1.96D-05  0.00D+00 EMaxC= 1.00D-01 BMatC= 6.64D-08 BMatP= 3.16D-07
 IDIUse=1 WtCom= 1.00D+00 WtEn= 0.00D+00
 Coeff-Com:  0.137D-03-0.161D-03 0.418D-03 0.635D-03 0.477D-02 0.871D-02
 Coeff-Com: -0.268D-01-0.175D+00 0.446D-01 0.114D+01
 Coeff:      0.137D-03-0.161D-03 0.418D-03 0.635D-03 0.477D-02 0.871D-02
 Coeff:     -0.268D-01-0.175D+00 0.446D-01 0.114D+01
 Gap=     0.241 Goal=   None    Shift=    0.000
 RMSDP=2.07D-05 MaxDP=1.52D-03 DE=-1.22D-06 OVMax= 5.23D-04

 Cycle  11  Pass 1  IDiag  1:
 RMSU=  6.41D-06    CP:  5.66D-01  2.79D+00  1.79D+00  6.85D-01  7.88D-01
                    CP:  7.66D-01  1.21D+00  1.48D+00  1.46D+00  1.55D+00
 E= -3010.53807122549     Delta-E=       -0.000000453353 Rises=F Damp=F
 DIIS: error= 6.97D-06 at cycle  11 NSaved=  11.
 NSaved=11 IEnMin=11 EnMin= -3010.53807122549     IErMin=11 ErrMin= 6.97D-06
 ErrMax= 6.97D-06  0.00D+00 EMaxC= 1.00D-01 BMatC= 1.14D-08 BMatP= 6.64D-08
 IDIUse=1 WtCom= 1.00D+00 WtEn= 0.00D+00
 Coeff-Com: -0.408D-03 0.555D-03 0.105D-03 0.907D-03 0.335D-02 0.688D-02
 Coeff-Com: -0.149D-03-0.726D-01-0.108D+00 0.229D+00 0.940D+00
 Coeff:     -0.408D-03 0.555D-03 0.105D-03 0.907D-03 0.335D-02 0.688D-02
 Coeff:     -0.149D-03-0.726D-01-0.108D+00 0.229D+00 0.940D+00
 Gap=     0.241 Goal=   None    Shift=    0.000
 RMSDP=6.36D-06 MaxDP=2.95D-04 DE=-4.53D-07 OVMax= 2.49D-04

 Cycle  12  Pass 1  IDiag  1:
 RMSU=  2.38D-06    CP:  5.66D-01  2.79D+00  1.79D+00  6.85D-01  7.88D-01
                    CP:  7.67D-01  1.21D+00  1.50D+00  1.51D+00  1.74D+00
                    CP:  1.48D+00
 E= -3010.53807131252     Delta-E=       -0.000000087027 Rises=F Damp=F
 DIIS: error= 4.21D-06 at cycle  12 NSaved=  12.
 NSaved=12 IEnMin=12 EnMin= -3010.53807131252     IErMin=12 ErrMin= 4.21D-06
 ErrMax= 4.21D-06  0.00D+00 EMaxC= 1.00D-01 BMatC= 5.24D-09 BMatP= 1.14D-08
 IDIUse=1 WtCom= 1.00D+00 WtEn= 0.00D+00
 Coeff-Com: -0.197D-03 0.260D-03-0.598D-04 0.216D-03-0.507D-03-0.759D-03
 Coeff-Com:  0.112D-01 0.368D-01-0.694D-01-0.356D+00 0.479D+00 0.900D+00
 Coeff:     -0.197D-03 0.260D-03-0.598D-04 0.216D-03-0.507D-03-0.759D-03
 Coeff:      0.112D-01 0.368D-01-0.694D-01-0.356D+00 0.479D+00 0.900D+00
 Gap=     0.241 Goal=   None    Shift=    0.000
 RMSDP=7.00D-06 MaxDP=7.83D-04 DE=-8.70D-08 OVMax= 1.74D-04

 Cycle  13  Pass 1  IDiag  1:
 RMSU=  1.41D-06    CP:  5.66D-01  2.79D+00  1.79D+00  6.85D-01  7.88D-01
                    CP:  7.67D-01  1.21D+00  1.51D+00  1.53D+00  1.97D+00
                    CP:  1.83D+00  1.21D+00
 E= -3010.53807134221     Delta-E=       -0.000000029690 Rises=F Damp=F
 DIIS: error= 1.60D-06 at cycle  13 NSaved=  13.
 NSaved=13 IEnMin=13 EnMin= -3010.53807134221     IErMin=13 ErrMin= 1.60D-06
 ErrMax= 1.60D-06  0.00D+00 EMaxC= 1.00D-01 BMatC= 4.60D-10 BMatP= 5.24D-09
 IDIUse=1 WtCom= 1.00D+00 WtEn= 0.00D+00
 Coeff-Com: -0.304D-04 0.392D-04-0.345D-04-0.411D-04-0.484D-03-0.986D-03
 Coeff-Com:  0.222D-02 0.126D-01 0.388D-02-0.817D-01-0.315D-01 0.730D-01
 Coeff-Com:  0.102D+01
 Coeff:     -0.304D-04 0.392D-04-0.345D-04-0.411D-04-0.484D-03-0.986D-03
 Coeff:      0.222D-02 0.126D-01 0.388D-02-0.817D-01-0.315D-01 0.730D-01
 Coeff:      0.102D+01
 Gap=     0.241 Goal=   None    Shift=    0.000
 RMSDP=2.46D-06 MaxDP=2.25D-04 DE=-2.97D-08 OVMax= 5.51D-05

 Cycle  14  Pass 1  IDiag  1:
 RMSU=  8.76D-07    CP:  5.66D-01  2.79D+00  1.79D+00  6.85D-01  7.88D-01
                    CP:  7.67D-01  1.22D+00  1.49D+00  1.54D+00  2.02D+00
                    CP:  1.86D+00  1.47D+00  1.58D+00
 E= -3010.53807134501     Delta-E=       -0.000000002799 Rises=F Damp=F
 DIIS: error= 7.74D-07 at cycle  14 NSaved=  14.
 NSaved=14 IEnMin=14 EnMin= -3010.53807134501     IErMin=14 ErrMin= 7.74D-07
 ErrMax= 7.74D-07  0.00D+00 EMaxC= 1.00D-01 BMatC= 1.52D-10 BMatP= 4.60D-10
 IDIUse=1 WtCom= 1.00D+00 WtEn= 0.00D+00
 Coeff-Com:  0.522D-05-0.678D-05-0.101D-04-0.499D-04-0.270D-04-0.104D-03
 Coeff-Com: -0.151D-02-0.520D-02 0.177D-01 0.550D-01-0.111D+00-0.204D+00
 Coeff-Com:  0.403D+00 0.846D+00
 Coeff:      0.522D-05-0.678D-05-0.101D-04-0.499D-04-0.270D-04-0.104D-03
 Coeff:     -0.151D-02-0.520D-02 0.177D-01 0.550D-01-0.111D+00-0.204D+00
 Coeff:      0.403D+00 0.846D+00
 Gap=     0.241 Goal=   None    Shift=    0.000
 RMSDP=1.14D-06 MaxDP=1.09D-04 DE=-2.80D-09 OVMax= 2.11D-05

 Cycle  15  Pass 1  IDiag  1:
 RMSU=  1.82D-07    CP:  5.66D-01  2.79D+00  1.79D+00  6.85D-01  7.88D-01
                    CP:  7.68D-01  1.22D+00  1.49D+00  1.54D+00  2.05D+00
                    CP:  1.84D+00  1.53D+00  1.91D+00  1.32D+00
 E= -3010.53807134552     Delta-E=       -0.000000000514 Rises=F Damp=F
 DIIS: error= 2.20D-07 at cycle  15 NSaved=  15.
 NSaved=15 IEnMin=15 EnMin= -3010.53807134552     IErMin=15 ErrMin= 2.20D-07
 ErrMax= 2.20D-07  0.00D+00 EMaxC= 1.00D-01 BMatC= 1.40D-11 BMatP= 1.52D-10
 IDIUse=1 WtCom= 1.00D+00 WtEn= 0.00D+00
 Coeff-Com: -0.654D-06 0.112D-05 0.102D-05 0.138D-06 0.661D-04 0.133D-03
 Coeff-Com: -0.511D-03-0.279D-02 0.266D-02 0.212D-01-0.100D-01-0.542D-01
 Coeff-Com: -0.881D-01 0.146D+00 0.986D+00
 Coeff:     -0.654D-06 0.112D-05 0.102D-05 0.138D-06 0.661D-04 0.133D-03
 Coeff:     -0.511D-03-0.279D-02 0.266D-02 0.212D-01-0.100D-01-0.542D-01
 Coeff:     -0.881D-01 0.146D+00 0.986D+00
 Gap=     0.241 Goal=   None    Shift=    0.000
 RMSDP=5.26D-07 MaxDP=5.11D-05 DE=-5.14D-10 OVMax= 6.89D-06

 Cycle  16  Pass 1  IDiag  1:
 RMSU=  9.39D-08    CP:  5.66D-01  2.79D+00  1.79D+00  6.85D-01  7.88D-01
                    CP:  7.68D-01  1.22D+00  1.49D+00  1.54D+00  2.06D+00
                    CP:  1.83D+00  1.54D+00  2.05D+00  1.47D+00  1.31D+00
 E= -3010.53807134560     Delta-E=       -0.000000000082 Rises=F Damp=F
 DIIS: error= 1.03D-07 at cycle  16 NSaved=  16.
 NSaved=16 IEnMin=16 EnMin= -3010.53807134560     IErMin=16 ErrMin= 1.03D-07
 ErrMax= 1.03D-07  0.00D+00 EMaxC= 1.00D-01 BMatC= 1.64D-12 BMatP= 1.40D-11
 IDIUse=1 WtCom= 1.00D+00 WtEn= 0.00D+00
 Coeff-Com:  0.279D-07-0.892D-08 0.183D-05 0.529D-05 0.103D-04 0.279D-04
 Coeff-Com:  0.671D-04 0.142D-03-0.161D-02-0.240D-02 0.119D-01 0.107D-01
 Coeff-Com: -0.572D-01-0.590D-01 0.176D+00 0.921D+00
 Coeff:      0.279D-07-0.892D-08 0.183D-05 0.529D-05 0.103D-04 0.279D-04
 Coeff:      0.671D-04 0.142D-03-0.161D-02-0.240D-02 0.119D-01 0.107D-01
 Coeff:     -0.572D-01-0.590D-01 0.176D+00 0.921D+00
 Gap=     0.241 Goal=   None    Shift=    0.000
 RMSDP=9.15D-08 MaxDP=7.95D-06 DE=-8.19D-11 OVMax= 2.54D-06

 Cycle  17  Pass 1  IDiag  1:
 RMSU=  2.77D-08    CP:  5.66D-01  2.79D+00  1.79D+00  6.85D-01  7.88D-01
                    CP:  7.68D-01  1.22D+00  1.48D+00  1.54D+00  2.06D+00
                    CP:  1.83D+00  1.54D+00  2.06D+00  1.51D+00  1.45D+00
                    CP:  1.15D+00
 E= -3010.53807134564     Delta-E=       -0.000000000033 Rises=F Damp=F
 DIIS: error= 5.24D-08 at cycle  17 NSaved=  17.
 NSaved=17 IEnMin=17 EnMin= -3010.53807134564     IErMin=17 ErrMin= 5.24D-08
 ErrMax= 5.24D-08  0.00D+00 EMaxC= 1.00D-01 BMatC= 8.55D-13 BMatP= 1.64D-12
 IDIUse=1 WtCom= 1.00D+00 WtEn= 0.00D+00
 Coeff-Com: -0.140D-05 0.184D-05 0.165D-06 0.381D-05-0.267D-05-0.362D-05
 Coeff-Com:  0.134D-03 0.586D-03-0.134D-02-0.487D-02 0.719D-02 0.137D-01
 Coeff-Com: -0.655D-02-0.530D-01-0.148D+00 0.424D+00 0.768D+00
 Coeff:     -0.140D-05 0.184D-05 0.165D-06 0.381D-05-0.267D-05-0.362D-05
 Coeff:      0.134D-03 0.586D-03-0.134D-02-0.487D-02 0.719D-02 0.137D-01
 Coeff:     -0.655D-02-0.530D-01-0.148D+00 0.424D+00 0.768D+00
 Gap=     0.241 Goal=   None    Shift=    0.000
 RMSDP=4.63D-08 MaxDP=3.48D-06 DE=-3.27D-11 OVMax= 1.40D-06

 Cycle  18  Pass 1  IDiag  1:
 RMSU=  1.36D-08    CP:  5.66D-01  2.79D+00  1.79D+00  6.85D-01  7.88D-01
                    CP:  7.68D-01  1.22D+00  1.48D+00  1.55D+00  2.06D+00
                    CP:  1.83D+00  1.54D+00  2.07D+00  1.52D+00  1.48D+00
                    CP:  1.35D+00  1.30D+00
 E= -3010.53807134559     Delta-E=        0.000000000046 Rises=F Damp=F
 DIIS: error= 1.66D-08 at cycle  18 NSaved=  18.
 NSaved=18 IEnMin=17 EnMin= -3010.53807134564     IErMin=18 ErrMin= 1.66D-08
 ErrMax= 1.66D-08  0.00D+00 EMaxC= 1.00D-01 BMatC= 9.05D-14 BMatP= 8.55D-13
 IDIUse=1 WtCom= 1.00D+00 WtEn= 0.00D+00
 Coeff-Com: -0.604D-06 0.806D-06-0.547D-06-0.662D-06-0.177D-05-0.724D-05
 Coeff-Com: -0.165D-04-0.225D-05 0.231D-03 0.474D-03-0.225D-02-0.260D-02
 Coeff-Com:  0.164D-01 0.142D-01-0.724D-01-0.139D+00-0.415D-01 0.123D+01
 Coeff:     -0.604D-06 0.806D-06-0.547D-06-0.662D-06-0.177D-05-0.724D-05
 Coeff:     -0.165D-04-0.225D-05 0.231D-03 0.474D-03-0.225D-02-0.260D-02
 Coeff:      0.164D-01 0.142D-01-0.724D-01-0.139D+00-0.415D-01 0.123D+01
 Gap=     0.241 Goal=   None    Shift=    0.000
 RMSDP=4.07D-08 MaxDP=5.58D-06 DE= 4.64D-11 OVMax= 1.08D-06

 Cycle  19  Pass 1  IDiag  1:
 RMSU=  5.95D-09    CP:  5.66D-01  2.79D+00  1.79D+00  6.85D-01  7.88D-01
                    CP:  7.68D-01  1.22D+00  1.48D+00  1.55D+00  2.07D+00
                    CP:  1.83D+00  1.54D+00  2.07D+00  1.52D+00  1.48D+00
                    CP:  1.46D+00  1.65D+00  1.80D+00
 E= -3010.53807134563     Delta-E=       -0.000000000044 Rises=F Damp=F
 DIIS: error= 6.77D-09 at cycle  19 NSaved=  19.
 NSaved=19 IEnMin=17 EnMin= -3010.53807134564     IErMin=19 ErrMin= 6.77D-09
 ErrMax= 6.77D-09  0.00D+00 EMaxC= 1.00D-01 BMatC= 2.25D-14 BMatP= 9.05D-14
 IDIUse=1 WtCom= 1.00D+00 WtEn= 0.00D+00
 Large coefficients: NSaved= 19 BigCof=    0.00 CofMax=   10.00 Det=-2.34D-14
 Inversion failed.  Reducing to 18 matrices.
 Coeff-Com:  0.424D-08-0.124D-06-0.497D-06 0.168D-06-0.141D-05-0.207D-04
 Coeff-Com: -0.796D-04 0.219D-03 0.714D-03-0.128D-02-0.227D-02 0.281D-02
 Coeff-Com:  0.847D-02 0.113D-01-0.625D-01-0.161D+00 0.120D+00 0.108D+01
 Coeff:      0.424D-08-0.124D-06-0.497D-06 0.168D-06-0.141D-05-0.207D-04
 Coeff:     -0.796D-04 0.219D-03 0.714D-03-0.128D-02-0.227D-02 0.281D-02
 Coeff:      0.847D-02 0.113D-01-0.625D-01-0.161D+00 0.120D+00 0.108D+01
 Gap=     0.241 Goal=   None    Shift=    0.000
 RMSDP=1.39D-08 MaxDP=8.68D-07 DE=-4.37D-11 OVMax= 5.36D-07

 Cycle  20  Pass 1  IDiag  1:
 RMSU=  2.17D-09    CP:  5.66D-01  2.79D+00  1.79D+00  6.85D-01  7.88D-01
                    CP:  7.68D-01  1.22D+00  1.48D+00  1.55D+00  2.07D+00
                    CP:  1.83D+00  1.54D+00  2.07D+00  1.52D+00  1.48D+00
                    CP:  1.49D+00  1.79D+00  2.19D+00  1.54D+00
 E= -3010.53807134561     Delta-E=        0.000000000024 Rises=F Damp=F
 DIIS: error= 4.20D-09 at cycle  20 NSaved=  19.
 NSaved=19 IEnMin=16 EnMin= -3010.53807134564     IErMin=19 ErrMin= 4.20D-09
 ErrMax= 4.20D-09  0.00D+00 EMaxC= 1.00D-01 BMatC= 5.59D-15 BMatP= 2.25D-14
 IDIUse=1 WtCom= 1.00D+00 WtEn= 0.00D+00
 Coeff-Com:  0.133D-08 0.702D-07 0.225D-06 0.113D-05 0.240D-05 0.260D-06
 Coeff-Com: -0.310D-04-0.770D-05 0.712D-04 0.313D-03 0.512D-04-0.371D-02
 Coeff-Com: -0.173D-02 0.251D-01 0.286D-01-0.501D-01-0.307D+00 0.416D+00
 Coeff-Com:  0.893D+00
 Coeff:      0.133D-08 0.702D-07 0.225D-06 0.113D-05 0.240D-05 0.260D-06
 Coeff:     -0.310D-04-0.770D-05 0.712D-04 0.313D-03 0.512D-04-0.371D-02
 Coeff:     -0.173D-02 0.251D-01 0.286D-01-0.501D-01-0.307D+00 0.416D+00
 Coeff:      0.893D+00
 Gap=     0.241 Goal=   None    Shift=    0.000
 RMSDP=6.89D-09 MaxDP=7.32D-07 DE= 2.36D-11 OVMax= 2.13D-07

 SCF Done:  E(RwB97XD) =  -3010.53807135     A.U. after   20 cycles
            NFock= 20  Conv=0.69D-08     -V/T= 2.0016
 KE= 3.005836781038D+03 PE=-8.698199216114D+03 EE= 1.909873999930D+03
 Leave Link  502 at Thu May  2 14:19:04 2024, MaxMem=   134217728 cpu:            1219.0 elap:            1219.4
 (Enter /software/gaussian/g16-c01/sse4/g16/l601.exe)
 Copying SCF densities to generalized density rwf, IOpCl= 0 IROHF=0.

 **********************************************************************

            Population analysis using the SCF Density.

 **********************************************************************

 Alpha  occ. eigenvalues -- -483.29906 -62.84909 -56.64621 -56.64029 -56.64014
 Alpha  occ. eigenvalues --  -19.46209 -19.46043 -14.85521 -10.58921 -10.56854
 Alpha  occ. eigenvalues --  -10.56749 -10.56597 -10.53414 -10.52344  -9.00700
 Alpha  occ. eigenvalues --   -6.83430  -6.81490  -6.81443  -2.93321  -2.92816
 Alpha  occ. eigenvalues --   -2.92778  -2.91226  -2.91226  -1.49802  -1.32767
 Alpha  occ. eigenvalues --   -1.21909  -1.12430  -1.11835  -1.03956  -0.99767
 Alpha  occ. eigenvalues --   -0.94851  -0.90203  -0.84696  -0.80646  -0.79888
 Alpha  occ. eigenvalues --   -0.79737  -0.77504  -0.76030  -0.75109  -0.71392
 Alpha  occ. eigenvalues --   -0.68059  -0.67201  -0.62823  -0.59099  -0.57262
 Alpha  occ. eigenvalues --   -0.56495  -0.55813  -0.54683  -0.53536
 Alpha virt. eigenvalues --   -0.29479  -0.20203  -0.14681  -0.12680  -0.10357
 Alpha virt. eigenvalues --   -0.06699  -0.06013  -0.04776  -0.04043  -0.03263
 Alpha virt. eigenvalues --   -0.01926  -0.01069  -0.00307  -0.00110   0.00913
 Alpha virt. eigenvalues --    0.01470   0.02752   0.03365   0.03981   0.04318
 Alpha virt. eigenvalues --    0.04809   0.05494   0.06130   0.06426   0.06841
 Alpha virt. eigenvalues --    0.07540   0.07913   0.08901   0.09315   0.10028
 Alpha virt. eigenvalues --    0.10502   0.10809   0.11344   0.12067   0.12786
 Alpha virt. eigenvalues --    0.13240   0.13855   0.14395   0.15595   0.15994
 Alpha virt. eigenvalues --    0.16965   0.17153   0.17638   0.19352   0.20359
 Alpha virt. eigenvalues --    0.20728   0.21237   0.21948   0.22151   0.24475
 Alpha virt. eigenvalues --    0.25627   0.27049   0.28486   0.30955   0.32257
 Alpha virt. eigenvalues --    0.33339   0.34123   0.34532   0.35370   0.37167
 Alpha virt. eigenvalues --    0.37859   0.38471   0.39740   0.41648   0.42730
 Alpha virt. eigenvalues --    0.43703   0.44496   0.45564   0.46835   0.48069
 Alpha virt. eigenvalues --    0.49051   0.51326   0.51468   0.53031   0.53760
 Alpha virt. eigenvalues --    0.55716   0.56912   0.57581   0.59166   0.60698
 Alpha virt. eigenvalues --    0.61947   0.62931   0.65565   0.68614   0.68982
 Alpha virt. eigenvalues --    0.70849   0.71618   0.73634   0.74462   0.75171
 Alpha virt. eigenvalues --    0.76055   0.77360   0.79669   0.84478   0.86195
 Alpha virt. eigenvalues --    0.87550   0.88117   0.91727   0.94635   0.98680
 Alpha virt. eigenvalues --    1.00901   1.03004   1.04101   1.06126   1.07270
 Alpha virt. eigenvalues --    1.09573   1.12843   1.13495   1.14099   1.17987
 Alpha virt. eigenvalues --    1.21615   1.23341   1.28403   1.34177   1.36681
 Alpha virt. eigenvalues --    1.37442   1.39498   1.43983   1.55630   1.57199
 Alpha virt. eigenvalues --    1.57551   1.60171   1.61784   1.64355   1.66443
 Alpha virt. eigenvalues --    1.68454   1.71955   1.74289   1.75820   1.79962
 Alpha virt. eigenvalues --    1.84562   1.85689   1.87521   1.96402   1.97258
 Alpha virt. eigenvalues --    1.98451   2.03247   2.03603   2.07844   2.09739
 Alpha virt. eigenvalues --    2.13667   2.15244   2.22758   2.24044   2.27443
 Alpha virt. eigenvalues --    2.33842   2.40525   2.41892   2.44934   2.53703
 Alpha virt. eigenvalues --    2.58807   2.63564   2.66333   2.69153   2.71837
 Alpha virt. eigenvalues --    2.73891   2.76561   2.77827   2.80851   2.82714
 Alpha virt. eigenvalues --    2.93919   2.98655   3.01788   3.06677   3.09416
 Alpha virt. eigenvalues --    3.15214   3.16553   3.18189   3.22753   3.26651
 Alpha virt. eigenvalues --    3.27886   3.38256   3.46912   3.50558   3.54854
 Alpha virt. eigenvalues --    3.58083   3.69040   3.74363   3.84211   3.87908
 Alpha virt. eigenvalues --    4.11467   4.12340   4.20767   4.24960   4.44302
 Alpha virt. eigenvalues --    4.45679   4.55240   4.60042   4.93569   4.96558
 Alpha virt. eigenvalues --    5.05192   5.09980   5.62130   6.15251   6.69495
 Alpha virt. eigenvalues --    7.50367   7.52677   7.62745  23.22694  23.61784
 Alpha virt. eigenvalues --   23.73016  23.78503  23.96208  24.02393  35.31643
 Alpha virt. eigenvalues --   47.95463  49.85331  49.93997 289.83080 289.85417
 Alpha virt. eigenvalues --  289.980261020.96611
          Condensed to atoms (all electrons):
               1          2          3          4          5          6
     1  C    8.261082  -3.201598   0.991912  -0.171281   0.294884   0.066992
     2  C   -3.201598  17.997717  -4.630764   0.527717  -0.020082   0.160649
     3  C    0.991912  -4.630764  18.410716  -1.428204   0.024532   0.150093
     4  C   -0.171281   0.527717  -1.428204   6.574855   0.033153  -0.020288
     5  H    0.294884  -0.020082   0.024532   0.033153   0.363806  -0.002193
     6  H    0.066992   0.160649   0.150093  -0.020288  -0.002193   0.339452
     7  H    0.018601  -0.026876   0.021257   0.302036  -0.003130  -0.000008
     8  N   -0.111747   0.087946  -1.608409   0.002922  -0.000511  -0.034190
     9  O   -0.035699   0.272471  -0.133896  -0.009222  -0.000039  -0.002771
    10  O    0.300569  -0.247833  -0.231448  -0.026146   0.000029   0.023755
    11  C    0.858884  -0.827771   2.371423  -0.393375  -0.029130   0.011338
    12  H   -0.005290   0.015908   0.005805   0.008050   0.000016  -0.000018
    13  C   -1.145860  -4.147878  -7.672712   0.918674   0.026324  -0.012153
    14  H   -0.009155   0.020223   0.035669   0.009244  -0.000034   0.000036
    15  Br  -0.006691  -0.165862  -0.215056   0.026167  -0.000042  -0.000683
               7          8          9         10         11         12
     1  C    0.018601  -0.111747  -0.035699   0.300569   0.858884  -0.005290
     2  C   -0.026876   0.087946   0.272471  -0.247833  -0.827771   0.015908
     3  C    0.021257  -1.608409  -0.133896  -0.231448   2.371423   0.005805
     4  C    0.302036   0.002922  -0.009222  -0.026146  -0.393375   0.008050
     5  H   -0.003130  -0.000511  -0.000039   0.000029  -0.029130   0.000016
     6  H   -0.000008  -0.034190  -0.002771   0.023755   0.011338  -0.000018
     7  H    0.340306   0.000046  -0.000000   0.000002   0.041597  -0.002077
     8  N    0.000046   7.621327   0.091008   0.166480  -0.245587   0.000787
     9  O   -0.000000   0.091008   7.825357  -0.001307   0.239371   0.000063
    10  O    0.000002   0.166480  -0.001307   7.899184   0.014534  -0.000018
    11  C    0.041597  -0.245587   0.239371   0.014534   8.073476   0.323120
    12  H   -0.002077   0.000787   0.000063  -0.000018   0.323120   0.298207
    13  C   -0.020024   1.148777  -0.333213   0.074599  -4.310445  -0.022374
    14  H   -0.000041  -0.034937   0.013204  -0.002018  -0.026630  -0.004177
    15  Br  -0.000424   0.159122  -0.056663   0.003956   0.091056  -0.001809
              13         14         15
     1  C   -1.145860  -0.009155  -0.006691
     2  C   -4.147878   0.020223  -0.165862
     3  C   -7.672712   0.035669  -0.215056
     4  C    0.918674   0.009244   0.026167
     5  H    0.026324  -0.000034  -0.000042
     6  H   -0.012153   0.000036  -0.000683
     7  H   -0.020024  -0.000041  -0.000424
     8  N    1.148777  -0.034937   0.159122
     9  O   -0.333213   0.013204  -0.056663
    10  O    0.074599  -0.002018   0.003956
    11  C   -4.310445  -0.026630   0.091056
    12  H   -0.022374  -0.004177  -0.001809
    13  C   21.240499   0.295007   0.333910
    14  H    0.295007   0.308992  -0.035029
    15  Br   0.333910  -0.035029  34.626826
 Mulliken charges:
               1
     1  C   -0.105602
     2  C    0.186035
     3  C   -0.090918
     4  C   -0.354302
     5  H    0.312417
     6  H    0.319988
     7  H    0.328736
     8  N   -0.243034
     9  O    0.131336
    10  O    0.025662
    11  C   -0.191862
    12  H    0.383807
    13  C   -0.373132
    14  H    0.429646
    15  Br   0.241223
 Sum of Mulliken charges =   1.00000
 Mulliken charges with hydrogens summed into heavy atoms:
               1
     1  C    0.206816
     2  C    0.506023
     3  C   -0.090918
     4  C   -0.025566
     8  N   -0.243034
     9  O    0.131336
    10  O    0.025662
    11  C    0.191945
    13  C    0.056514
    15  Br   0.241223
 Electronic spatial extent (au):  <R**2>=           3944.6379
 Charge=              1.0000 electrons
 Dipole moment (field-independent basis, Debye):
    X=              2.8967    Y=             -3.1665    Z=             -1.0629  Tot=              4.4212
 Quadrupole moment (field-independent basis, Debye-Ang):
   XX=            -67.7389   YY=            -50.0713   ZZ=            -61.3465
   XY=             -7.6913   XZ=             -3.2435   YZ=              3.6530
 Traceless Quadrupole moment (field-independent basis, Debye-Ang):
   XX=             -8.0200   YY=              9.6476   ZZ=             -1.6276
   XY=             -7.6913   XZ=             -3.2435   YZ=              3.6530
 Octapole moment (field-independent basis, Debye-Ang**2):
  XXX=           -513.6283  YYY=             78.5033  ZZZ=             80.4131  XYY=           -133.9679
  XXY=              7.1814  XXZ=             23.9371  XZZ=           -130.4650  YZZ=             12.9337
  YYZ=             22.1746  XYZ=             10.6206
 Hexadecapole moment (field-independent basis, Debye-Ang**3):
 XXXX=          -3456.6078 YYYY=           -688.3673 ZZZZ=           -388.0645 XXXY=            110.0529
 XXXZ=            180.3698 YYYX=            158.5528 YYYZ=           -160.8552 ZZZX=            161.7747
 ZZZY=           -136.4267 XXYY=           -618.7678 XXZZ=           -520.7647 YYZZ=           -163.0040
 XXYZ=            -34.5718 YYXZ=             41.6207 ZZXY=             19.7350
 N-N= 7.719503638005D+02 E-N=-8.698199216119D+03  KE= 3.005836781038D+03
 No NMR shielding tensors so no spin-rotation constants.
 Leave Link  601 at Thu May  2 14:19:12 2024, MaxMem=   134217728 cpu:               7.4 elap:               7.4
 (Enter /software/gaussian/g16-c01/sse4/g16/l9999.exe)
 Unable to Open any file for archive entry.
 1\1\GINC-BHX0012\SP\RwB97XD\6-311+G(d)\C6H5Br1N1O2(1+)\BWEIGHT\02-May-
 2024\0\\#P wB97XD/6-311+G* NoSymm #P Field=Y+77\\TitleMe\\1,1\C,0,0.51
 93,1.233,-0.0319\C,0,1.9445,1.2692,-0.0367\C,0,2.6204,0.0928,-0.025\C,
 0,-0.196,0.0301,0.001\H,0,-0.0207,2.1742,-0.0434\H,0,2.4828,2.2089,-0.
 0361\H,0,-1.2777,0.0399,0.0117\N,0,4.0921,0.0959,0.0366\O,0,4.6393,-1.
 0217,0.1446\O,0,4.6649,1.1984,-0.0233\C,0,0.4943,-1.1671,0.021\H,0,-0.
 0325,-2.1149,0.0545\C,0,1.9629,-1.2165,-0.0211\H,0,2.4436,-1.9631,0.61
 51\Br,0,2.173,-1.9491,-1.9062\\Version=ES64L-G16RevC.01\HF=-3010.53807
 13\RMSD=6.892e-09\Dipole=-3.1895563,-0.0176597,0.8310254\Quadrupole=-5
 .9626405,7.1727438,-1.2101033,-5.7183217,-2.4114917,2.7159102\PG=C01 [
 X(C6H5Br1N1O2)]\\@
 The archive entry for this job was punched.


 SCIENCE IS A VERY HUMAN FORM OF KNOWLEDGE.
 WE ARE ALWAYS AT THE BRINK OF THE KNOWN,
 WE ALWAYS FEEL FORWARD FOR WHAT IS HOPED.
 EVERY JUDGEMENT IN SCIENCE STANDS ON THE EDGE OF ERROR, AND IS PERSONAL.
 SCIENCE IS A TRIBUTE TO WHAT WE CAN KNOW ALTHOUGH WE ARE FALLIBLE.

                     -- J. BRONOWSKI
 Job cpu time:       0 days  0 hours 21 minutes 29.1 seconds.
 Elapsed time:       0 days  0 hours 21 minutes 29.5 seconds.
 File lengths (MBytes):  RWF=     40 Int=      0 D2E=      0 Chk=     32 Scr=      1
 Normal termination of Gaussian 16 at Thu May  2 14:19:12 2024.
