 Entering Gaussian System, Link 0=g16
 Initial command:
 /software/gaussian/g16-c01/sse4/g16/l1.exe "/local_scratch/24665385/Gau-10940.inp" -scrdir="/local_scratch/24665385/"
 Entering Link 1 = /software/gaussian/g16-c01/sse4/g16/l1.exe PID=     10953.
  
 Copyright (c) 1988-2019, Gaussian, Inc.  All Rights Reserved.
  
 This is part of the Gaussian(R) 16 program.  It is based on
 the Gaussian(R) 09 system (copyright 2009, Gaussian, Inc.),
 the Gaussian(R) 03 system (copyright 2003, Gaussian, Inc.),
 the Gaussian(R) 98 system (copyright 1998, Gaussian, Inc.),
 the Gaussian(R) 94 system (copyright 1995, Gaussian, Inc.),
 the Gaussian 92(TM) system (copyright 1992, Gaussian, Inc.),
 the Gaussian 90(TM) system (copyright 1990, Gaussian, Inc.),
 the Gaussian 88(TM) system (copyright 1988, Gaussian, Inc.),
 the Gaussian 86(TM) system (copyright 1986, Carnegie Mellon
 University), and the Gaussian 82(TM) system (copyright 1983,
 Carnegie Mellon University). Gaussian is a federally registered
 trademark of Gaussian, Inc.
  
 This software contains proprietary and confidential information,
 including trade secrets, belonging to Gaussian, Inc.
  
 This software is provided under written license and may be
 used, copied, transmitted, or stored only in accord with that
 written license.
  
 The following legend is applicable only to US Government
 contracts under FAR:
  
                    RESTRICTED RIGHTS LEGEND
  
 Use, reproduction and disclosure by the US Government is
 subject to restrictions as set forth in subparagraphs (a)
 and (c) of the Commercial Computer Software - Restricted
 Rights clause in FAR 52.227-19.
  
 Gaussian, Inc.
 340 Quinnipiac St., Bldg. 40, Wallingford CT 06492
  
  
 ---------------------------------------------------------------
 Warning -- This program may not be used in any manner that
 competes with the business of Gaussian, Inc. or will provide
 assistance to any competitor of Gaussian, Inc.  The licensee
 of this program is prohibited from giving any competitor of
 Gaussian, Inc. access to this program.  By using this program,
 the user acknowledges that Gaussian, Inc. is engaged in the
 business of creating and licensing software in the field of
 computational chemistry and represents and warrants to the
 licensee that it is not a competitor of Gaussian, Inc. and that
 it will not use this program in any manner prohibited above.
 ---------------------------------------------------------------
  

 Cite this work as:
 Gaussian 16, Revision C.01,
 M. J. Frisch, G. W. Trucks, H. B. Schlegel, G. E. Scuseria, 
 M. A. Robb, J. R. Cheeseman, G. Scalmani, V. Barone, 
 G. A. Petersson, H. Nakatsuji, X. Li, M. Caricato, A. V. Marenich, 
 J. Bloino, B. G. Janesko, R. Gomperts, B. Mennucci, H. P. Hratchian, 
 J. V. Ortiz, A. F. Izmaylov, J. L. Sonnenberg, D. Williams-Young, 
 F. Ding, F. Lipparini, F. Egidi, J. Goings, B. Peng, A. Petrone, 
 T. Henderson, D. Ranasinghe, V. G. Zakrzewski, J. Gao, N. Rega, 
 G. Zheng, W. Liang, M. Hada, M. Ehara, K. Toyota, R. Fukuda, 
 J. Hasegawa, M. Ishida, T. Nakajima, Y. Honda, O. Kitao, H. Nakai, 
 T. Vreven, K. Throssell, J. A. Montgomery, Jr., J. E. Peralta, 
 F. Ogliaro, M. J. Bearpark, J. J. Heyd, E. N. Brothers, K. N. Kudin, 
 V. N. Staroverov, T. A. Keith, R. Kobayashi, J. Normand, 
 K. Raghavachari, A. P. Rendell, J. C. Burant, S. S. Iyengar, 
 J. Tomasi, M. Cossi, J. M. Millam, M. Klene, C. Adamo, R. Cammi, 
 J. W. Ochterski, R. L. Martin, K. Morokuma, O. Farkas, 
 J. B. Foresman, and D. J. Fox, Gaussian, Inc., Wallingford CT, 2019.
 
 ******************************************
 Gaussian 16:  ES64L-G16RevC.01  3-Jul-2019
                 2-May-2024 
 ******************************************
 %chk=geometry.chk
 %mem=1GB
 %nprocshared=12
 Will use up to   12 processors via shared memory.
 ---------------------------------------
 #P wB97XD/6-311+G* NoSymm #P Field=Z+19
 ---------------------------------------
 1/38=1,172=1/1;
 2/12=2,15=1,17=6,18=5,40=1/2;
 3/5=4,6=6,7=11,11=2,14=3,15=19,25=1,30=1,74=-58/1,2,3;
 4//1;
 5/5=2,38=5/2;
 6/7=2,8=2,9=2,10=2,28=1/1;
 99/5=1,9=1/99;
 Leave Link    1 at Thu May  2 13:58:19 2024, MaxMem=   134217728 cpu:               1.8 elap:               1.8
 (Enter /software/gaussian/g16-c01/sse4/g16/l101.exe)
 -------
 TitleMe
 -------
 Symbolic Z-matrix:
 Charge =  1 Multiplicity = 1
 C                     0.5193    1.233    -0.0319 
 C                     1.9445    1.2692   -0.0367 
 C                     2.6204    0.0928   -0.025 
 C                    -0.196     0.0301    0.001 
 H                    -0.0207    2.1742   -0.0434 
 H                     2.4828    2.2089   -0.0361 
 H                    -1.2777    0.0399    0.0117 
 N                     4.0921    0.0959    0.0366 
 O                     4.6393   -1.0217    0.1446 
 O                     4.6649    1.1984   -0.0233 
 C                     0.4943   -1.1671    0.021 
 H                    -0.0325   -2.1149    0.0545 
 C                     1.9629   -1.2165   -0.0211 
 H                     2.4436   -1.9631    0.6151 
 Br                    2.173    -1.9491   -1.9062 
 
 ITRead=  0  0  0  0  0  0  0  0  0  0  0  0  0  0  0
 MicOpt= -1 -1 -1 -1 -1 -1 -1 -1 -1 -1 -1 -1 -1 -1 -1
 NAtoms=     15 NQM=       15 NQMF=       0 NMMI=      0 NMMIF=      0
                NMic=       0 NMicF=      0.
                    Isotopes and Nuclear Properties:
 (Nuclear quadrupole moments (NQMom) in fm**2, nuclear magnetic moments (NMagM)
  in nuclear magnetons)

  Atom         1           2           3           4           5           6           7           8           9          10
 IAtWgt=          12          12          12          12           1           1           1          14          16          16
 AtmWgt=  12.0000000  12.0000000  12.0000000  12.0000000   1.0078250   1.0078250   1.0078250  14.0030740  15.9949146  15.9949146
 NucSpn=           0           0           0           0           1           1           1           2           0           0
 AtZEff=  -0.0000000  -0.0000000  -0.0000000  -0.0000000  -0.0000000  -0.0000000  -0.0000000  -0.0000000  -0.0000000  -0.0000000
 NQMom=    0.0000000   0.0000000   0.0000000   0.0000000   0.0000000   0.0000000   0.0000000   2.0440000   0.0000000   0.0000000
 NMagM=    0.0000000   0.0000000   0.0000000   0.0000000   2.7928460   2.7928460   2.7928460   0.4037610   0.0000000   0.0000000
 AtZNuc=   6.0000000   6.0000000   6.0000000   6.0000000   1.0000000   1.0000000   1.0000000   7.0000000   8.0000000   8.0000000

  Atom        11          12          13          14          15
 IAtWgt=          12           1          12           1          79
 AtmWgt=  12.0000000   1.0078250  12.0000000   1.0078250  78.9183361
 NucSpn=           0           1           0           1           3
 AtZEff=  -0.0000000  -0.0000000  -0.0000000  -0.0000000  -0.0000000
 NQMom=    0.0000000   0.0000000   0.0000000   0.0000000  31.3000000
 NMagM=    0.0000000   2.7928460   0.0000000   2.7928460   2.1063990
 AtZNuc=   6.0000000   1.0000000   6.0000000   1.0000000  35.0000000
 Leave Link  101 at Thu May  2 13:58:21 2024, MaxMem=   134217728 cpu:               1.6 elap:               1.7
 (Enter /software/gaussian/g16-c01/sse4/g16/l202.exe)
                          Input orientation:                          
 ---------------------------------------------------------------------
 Center     Atomic      Atomic             Coordinates (Angstroms)
 Number     Number       Type             X           Y           Z
 ---------------------------------------------------------------------
      1          6           0        0.519300    1.233000   -0.031900
      2          6           0        1.944500    1.269200   -0.036700
      3          6           0        2.620400    0.092800   -0.025000
      4          6           0       -0.196000    0.030100    0.001000
      5          1           0       -0.020700    2.174200   -0.043400
      6          1           0        2.482800    2.208900   -0.036100
      7          1           0       -1.277700    0.039900    0.011700
      8          7           0        4.092100    0.095900    0.036600
      9          8           0        4.639300   -1.021700    0.144600
     10          8           0        4.664900    1.198400   -0.023300
     11          6           0        0.494300   -1.167100    0.021000
     12          1           0       -0.032500   -2.114900    0.054500
     13          6           0        1.962900   -1.216500   -0.021100
     14          1           0        2.443600   -1.963100    0.615100
     15         35           0        2.173000   -1.949100   -1.906200
 ---------------------------------------------------------------------
                    Distance matrix (angstroms):
                    1          2          3          4          5
     1  C    0.000000
     2  C    1.425668   0.000000
     3  C    2.390549   1.356796   0.000000
     4  C    1.399895   2.473566   2.817218   0.000000
     5  H    1.085168   2.163581   3.362733   2.151712   0.000000
     6  H    2.192654   1.082960   2.120598   3.453189   2.503751
     7  H    2.157452   3.449071   3.898632   1.081797   2.477564
     8  N    3.750012   2.448304   1.472992   4.288753   4.608780
     9  O    4.699917   3.541615   2.312322   4.950458   5.653735
    10  O    4.145753   2.721354   2.324292   4.999386   4.786171
    11  C    2.400813   2.835836   2.471794   1.382101   3.381369
    12  H    3.394169   3.920329   3.452266   2.151887   4.290233
    13  C    2.843264   2.485817   1.465124   2.493060   3.928360
    14  H    3.786370   3.334922   2.160489   3.364142   4.860416
    15  Br   4.046416   3.728900   2.812194   3.628609   5.028314
                    6          7          8          9         10
     6  H    0.000000
     7  H    4.341452   0.000000
     8  N    2.657047   5.370150   0.000000
     9  O    3.888434   6.012948   1.249048   0.000000
    10  O    2.404752   6.054572   1.243863   2.226587   0.000000
    11  C    3.918516   2.144043   3.813080   4.149391   4.794941
    12  H    5.003018   2.489080   4.679774   4.798846   5.748876
    13  C    3.464662   3.475788   2.501842   2.688591   3.623886
    14  H    4.222698   4.268978   2.700314   2.434893   3.916224
    15  Br   4.569706   4.420610   3.411663   3.338935   4.434144
                   11         12         13         14         15
    11  C    0.000000
    12  H    1.084880   0.000000
    13  C    1.470034   2.189625   0.000000
    14  H    2.187771   2.543302   1.092353   0.000000
    15  Br   2.672762   2.955683   2.033334   2.535818   0.000000
 Symmetry turned off by external request.
 Stoichiometry    C6H5BrNO2(1+)
 Framework group  C1[X(C6H5BrNO2)]
 Deg. of freedom    39
 Full point group                 C1      NOp   1
 Rotational constants (GHZ):           1.1632986           0.9594224           0.5957624
 Leave Link  202 at Thu May  2 13:58:23 2024, MaxMem=   134217728 cpu:               1.2 elap:               1.2
 (Enter /software/gaussian/g16-c01/sse4/g16/l301.exe)
 Standard basis: 6-311+G(d) (5D, 7F)
 Ernie: Thresh=  0.10000D-02 Tol=  0.10000D-05 Strict=F.
 The following finite field(s) will be applied:
 An electric field of              0.0000  0.0000  0.0019
   261 basis functions,   443 primitive gaussians,   273 cartesian basis functions
    49 alpha electrons       49 beta electrons
       nuclear repulsion energy       772.8945969580 Hartrees.
 IExCor= 4639 DFT=T Ex+Corr=wB97XD ExCW=0 ScaHFX=  1.000000
 ScaDFX=  1.000000  1.000000  1.000000  1.000000 ScalE2=  1.000000  1.000000
 IRadAn=      5 IRanWt=     -1 IRanGd=            0 ICorTp=0 IEmpDi=121
 HFx  wShort=  0.000000 wLong=  0.200000 cFull=  0.222036 cShort=  0.000000 cLong=  0.777964
 DFx  wShort=  0.000000 wLong=  0.200000 cFull=  0.000000 cShort=  0.000000 cLong=  1.000000
 NAtoms=   15 NActive=   15 NUniq=   15 SFac= 1.00D+00 NAtFMM=   60 NAOKFM=F Big=F
 Integral buffers will be    131072 words long.
 Raffenetti 2 integral format.
 Two-electron integral symmetry is turned off.
 R6Disp:  Grimme-D2 Dispersion energy=       -0.0080346408 Hartrees.
 Nuclear repulsion after empirical dispersion term =      772.8865623173 Hartrees.
 Leave Link  301 at Thu May  2 13:58:24 2024, MaxMem=   134217728 cpu:               1.2 elap:               1.2
 (Enter /software/gaussian/g16-c01/sse4/g16/l302.exe)
 NPDir=0 NMtPBC=     1 NCelOv=     1 NCel=       1 NClECP=     1 NCelD=      1
         NCelK=      1 NCelE2=     1 NClLst=     1 CellRange=     0.0.
 One-electron integrals computed using PRISM.
 NBasis=   261 RedAO= T EigKep=  2.52D-06  NBF=   261
 NBsUse=   261 1.00D-06 EigRej= -1.00D+00 NBFU=   261
 Precomputing XC quadrature grid using
 IXCGrd= 4 IRadAn=           5 IRanWt=          -1 IRanGd=           0 AccXCQ= 0.00D+00.
 Generated NRdTot=       0 NPtTot=           0 NUsed=           0 NTot=          32
 NSgBfM=   273   273   273   273   273 MxSgAt=    15 MxSgA2=    15.
 Leave Link  302 at Thu May  2 13:58:46 2024, MaxMem=   134217728 cpu:              22.3 elap:              22.3
 (Enter /software/gaussian/g16-c01/sse4/g16/l303.exe)
 DipDrv:  MaxL=1.
 The nuclear repulsion energy is now       772.6515840956 hartrees.
 Leave Link  303 at Thu May  2 13:58:50 2024, MaxMem=   134217728 cpu:               3.4 elap:               3.4
 (Enter /software/gaussian/g16-c01/sse4/g16/l401.exe)
 ExpMin= 3.50D-02 ExpMax= 4.40D+05 ExpMxC= 1.51D+04 IAcc=3 IRadAn=         5 AccDes= 0.00D+00
 Harris functional with IExCor= 4639 and IRadAn=       5 diagonalized for initial guess.
 HarFok:  IExCor= 4639 AccDes= 0.00D+00 IRadAn=         5 IDoV= 1 UseB2=F ITyADJ=14
 ICtDFT=  3500011 ScaDFX=  1.000000  1.000000  1.000000  1.000000
 FoFCou: FMM=F IPFlag=           0 FMFlag=      100000 FMFlg1=           0
         NFxFlg=           0 DoJE=T BraDBF=F KetDBF=T FulRan=T
         wScrn=  0.000000 ICntrl=       500 IOpCl=  0 I1Cent=   200000004 NGrid=           0
         NMat0=    1 NMatS0=      1 NMatT0=    0 NMatD0=    1 NMtDS0=    0 NMtDT0=    0
 Symmetry not used in FoFCou.
 Harris En= -2970.59992069194    
 JPrj=0 DoOrth=F DoCkMO=F.
 Leave Link  401 at Thu May  2 13:59:21 2024, MaxMem=   134217728 cpu:              30.9 elap:              31.0
 (Enter /software/gaussian/g16-c01/sse4/g16/l502.exe)
 Two-electron integral symmetry not used.
 Closed shell SCF:
 Using DIIS extrapolation, IDIIS=  1040.
 NGot=   134217728 LenX=   134063053 LenY=   133988083
 Requested convergence on RMS density matrix=1.00D-08 within 128 cycles.
 Requested convergence on MAX density matrix=1.00D-06.
 Requested convergence on             energy=1.00D-06.
 No special actions if energy rises.
 Fock matrices will be formed incrementally for  20 cycles.

 Cycle   1  Pass 1  IDiag  1:
 FoFJK:  IHMeth= 1 ICntrl=       0 DoSepK=T KAlg= 0 I1Cent=           0 FoldK=F
 IRaf=         1 NMat=       1 IRICut=       1 DoRegI=T DoRafI=F ISym2E= 0 IDoP0=0 IntGTp=1.
 FoFCou: FMM=F IPFlag=           0 FMFlag=      100000 FMFlg1=           0
         NFxFlg=           0 DoJE=T BraDBF=F KetDBF=F FulRan=T
         wScrn=  0.000000 ICntrl=       500 IOpCl=  0 I1Cent=           0 NGrid=           0
         NMat0=    1 NMatS0=      1 NMatT0=    0 NMatD0=    1 NMtDS0=    0 NMtDT0=    0
 Symmetry not used in FoFCou.
 E= -3009.69988859772    
 DIIS: error= 2.90D-01 at cycle   1 NSaved=   1.
 NSaved= 1 IEnMin= 1 EnMin= -3009.69988859772     IErMin= 1 ErrMin= 2.90D-01
 ErrMax= 2.90D-01  0.00D+00 EMaxC= 1.00D-01 BMatC= 1.20D+01 BMatP= 1.20D+01
 IDIUse=3 WtCom= 0.00D+00 WtEn= 1.00D+00
 Coeff-Com:  0.100D+01
 Coeff-En:   0.100D+01
 Coeff:      0.100D+01
 Gap=     0.316 Goal=   None    Shift=    0.000
 GapD=    0.316 DampG=1.000 DampE=0.250 DampFc=0.2500 IDamp=-1.
 Damping current iteration by 2.50D-01
 RMSDP=4.51D-02 MaxDP=4.02D+00              OVMax= 2.61D-01

 Cycle   2  Pass 1  IDiag  1:
 RMSU=  5.44D-03    CP:  9.13D-01
 E= -3009.99148086463     Delta-E=       -0.291592266913 Rises=F Damp=T
 DIIS: error= 2.19D-01 at cycle   2 NSaved=   2.
 NSaved= 2 IEnMin= 2 EnMin= -3009.99148086463     IErMin= 2 ErrMin= 2.19D-01
 ErrMax= 2.19D-01  0.00D+00 EMaxC= 1.00D-01 BMatC= 5.46D+00 BMatP= 1.20D+01
 IDIUse=3 WtCom= 0.00D+00 WtEn= 1.00D+00
 Coeff-Com: -0.183D+01 0.283D+01
 Coeff-En:   0.000D+00 0.100D+01
 Coeff:      0.000D+00 0.100D+01
 Gap=     0.269 Goal=   None    Shift=    0.000
 RMSDP=3.54D-02 MaxDP=3.62D+00 DE=-2.92D-01 OVMax= 7.24D-02

 Cycle   3  Pass 1  IDiag  1:
 RMSU=  4.95D-03    CP:  6.18D-01  2.99D+00
 E= -3010.37600527582     Delta-E=       -0.384524411194 Rises=F Damp=F
 DIIS: error= 6.60D-02 at cycle   3 NSaved=   3.
 NSaved= 3 IEnMin= 3 EnMin= -3010.37600527582     IErMin= 3 ErrMin= 6.60D-02
 ErrMax= 6.60D-02  0.00D+00 EMaxC= 1.00D-01 BMatC= 7.39D-01 BMatP= 5.46D+00
 IDIUse=3 WtCom= 3.40D-01 WtEn= 6.60D-01
 Coeff-Com:  0.261D+01-0.342D+01 0.181D+01
 Coeff-En:   0.394D-01 0.000D+00 0.961D+00
 Coeff:      0.913D+00-0.116D+01 0.125D+01
 Gap=     0.263 Goal=   None    Shift=    0.000
 RMSDP=1.18D-02 MaxDP=8.46D-01 DE=-3.85D-01 OVMax= 7.60D-02

 Cycle   4  Pass 1  IDiag  1:
 RMSU=  4.94D-03    CP:  6.66D-01  1.57D+00  2.04D+00
 E= -3010.48651933158     Delta-E=       -0.110514055753 Rises=F Damp=F
 DIIS: error= 3.75D-02 at cycle   4 NSaved=   4.
 NSaved= 4 IEnMin= 4 EnMin= -3010.48651933158     IErMin= 4 ErrMin= 3.75D-02
 ErrMax= 3.75D-02  0.00D+00 EMaxC= 1.00D-01 BMatC= 2.20D-01 BMatP= 7.39D-01
 IDIUse=3 WtCom= 6.25D-01 WtEn= 3.75D-01
 Coeff-Com: -0.427D-01 0.705D-01 0.339D+00 0.633D+00
 Coeff-En:   0.000D+00 0.000D+00 0.188D+00 0.812D+00
 Coeff:     -0.267D-01 0.441D-01 0.282D+00 0.700D+00
 Gap=     0.253 Goal=   None    Shift=    0.000
 RMSDP=6.30D-03 MaxDP=8.18D-01 DE=-1.11D-01 OVMax= 3.30D-02

 Cycle   5  Pass 1  IDiag  1:
 RMSU=  1.55D-03    CP:  6.20D-01  1.92D+00  1.91D+00  5.24D-01
 E= -3010.52962373687     Delta-E=       -0.043104405293 Rises=F Damp=F
 DIIS: error= 6.63D-03 at cycle   5 NSaved=   5.
 NSaved= 5 IEnMin= 5 EnMin= -3010.52962373687     IErMin= 5 ErrMin= 6.63D-03
 ErrMax= 6.63D-03  0.00D+00 EMaxC= 1.00D-01 BMatC= 8.90D-03 BMatP= 2.20D-01
 IDIUse=3 WtCom= 9.34D-01 WtEn= 6.63D-02
 Coeff-Com: -0.113D+00 0.155D+00 0.103D+00 0.387D+00 0.468D+00
 Coeff-En:   0.000D+00 0.000D+00 0.000D+00 0.000D+00 0.100D+01
 Coeff:     -0.105D+00 0.145D+00 0.959D-01 0.361D+00 0.503D+00
 Gap=     0.244 Goal=   None    Shift=    0.000
 RMSDP=1.65D-03 MaxDP=2.11D-01 DE=-4.31D-02 OVMax= 2.30D-02

 Cycle   6  Pass 1  IDiag  1:
 RMSU=  5.63D-04    CP:  6.29D-01  1.87D+00  1.98D+00  7.12D-01  6.08D-01
 E= -3010.53211590678     Delta-E=       -0.002492169911 Rises=F Damp=F
 DIIS: error= 2.83D-03 at cycle   6 NSaved=   6.
 NSaved= 6 IEnMin= 6 EnMin= -3010.53211590678     IErMin= 6 ErrMin= 2.83D-03
 ErrMax= 2.83D-03  0.00D+00 EMaxC= 1.00D-01 BMatC= 6.46D-04 BMatP= 8.90D-03
 IDIUse=3 WtCom= 9.72D-01 WtEn= 2.83D-02
 Coeff-Com: -0.966D-01 0.130D+00 0.146D-02 0.168D+00 0.345D+00 0.452D+00
 Coeff-En:   0.000D+00 0.000D+00 0.000D+00 0.000D+00 0.990D-01 0.901D+00
 Coeff:     -0.939D-01 0.126D+00 0.141D-02 0.163D+00 0.338D+00 0.465D+00
 Gap=     0.243 Goal=   None    Shift=    0.000
 RMSDP=4.94D-04 MaxDP=5.29D-02 DE=-2.49D-03 OVMax= 8.45D-03

 Cycle   7  Pass 1  IDiag  1:
 RMSU=  2.19D-04    CP:  6.26D-01  1.88D+00  1.98D+00  6.70D-01  7.45D-01
                    CP:  6.39D-01
 E= -3010.53257095931     Delta-E=       -0.000455052531 Rises=F Damp=F
 DIIS: error= 3.53D-04 at cycle   7 NSaved=   7.
 NSaved= 7 IEnMin= 7 EnMin= -3010.53257095931     IErMin= 7 ErrMin= 3.53D-04
 ErrMax= 3.53D-04  0.00D+00 EMaxC= 1.00D-01 BMatC= 1.65D-05 BMatP= 6.46D-04
 IDIUse=3 WtCom= 9.96D-01 WtEn= 3.53D-03
 Coeff-Com: -0.358D-01 0.478D-01-0.119D-01 0.356D-01 0.872D-01 0.186D+00
 Coeff-Com:  0.692D+00
 Coeff-En:   0.000D+00 0.000D+00 0.000D+00 0.000D+00 0.000D+00 0.000D+00
 Coeff-En:   0.100D+01
 Coeff:     -0.357D-01 0.477D-01-0.119D-01 0.354D-01 0.869D-01 0.185D+00
 Coeff:      0.693D+00
 Gap=     0.244 Goal=   None    Shift=    0.000
 RMSDP=1.34D-04 MaxDP=1.06D-02 DE=-4.55D-04 OVMax= 1.39D-03

 Cycle   8  Pass 1  IDiag  1:
 RMSU=  6.01D-05    CP:  6.26D-01  1.87D+00  1.98D+00  6.79D-01  7.86D-01
                    CP:  6.79D-01  8.94D-01
 E= -3010.53258865964     Delta-E=       -0.000017700330 Rises=F Damp=F
 DIIS: error= 1.05D-04 at cycle   8 NSaved=   8.
 NSaved= 8 IEnMin= 8 EnMin= -3010.53258865964     IErMin= 8 ErrMin= 1.05D-04
 ErrMax= 1.05D-04  0.00D+00 EMaxC= 1.00D-01 BMatC= 2.23D-06 BMatP= 1.65D-05
 IDIUse=3 WtCom= 9.99D-01 WtEn= 1.05D-03
 Coeff-Com:  0.400D-02-0.556D-02-0.349D-02-0.127D-01-0.277D-01-0.281D-01
 Coeff-Com:  0.173D+00 0.900D+00
 Coeff-En:   0.000D+00 0.000D+00 0.000D+00 0.000D+00 0.000D+00 0.000D+00
 Coeff-En:   0.000D+00 0.100D+01
 Coeff:      0.400D-02-0.556D-02-0.349D-02-0.127D-01-0.276D-01-0.281D-01
 Coeff:      0.173D+00 0.900D+00
 Gap=     0.244 Goal=   None    Shift=    0.000
 RMSDP=6.28D-05 MaxDP=3.94D-03 DE=-1.77D-05 OVMax= 1.00D-03

 Cycle   9  Pass 1  IDiag  1:
 RMSU=  2.42D-05    CP:  6.26D-01  1.87D+00  1.99D+00  6.82D-01  7.99D-01
                    CP:  6.78D-01  1.04D+00  1.21D+00
 E= -3010.53259272649     Delta-E=       -0.000004066846 Rises=F Damp=F
 DIIS: error= 2.10D-05 at cycle   9 NSaved=   9.
 NSaved= 9 IEnMin= 9 EnMin= -3010.53259272649     IErMin= 9 ErrMin= 2.10D-05
 ErrMax= 2.10D-05  0.00D+00 EMaxC= 1.00D-01 BMatC= 2.25D-07 BMatP= 2.23D-06
 IDIUse=1 WtCom= 1.00D+00 WtEn= 0.00D+00
 Coeff-Com:  0.643D-02-0.864D-02 0.655D-03-0.892D-02-0.184D-01-0.306D-01
 Coeff-Com: -0.549D-01 0.250D+00 0.865D+00
 Coeff:      0.643D-02-0.864D-02 0.655D-03-0.892D-02-0.184D-01-0.306D-01
 Coeff:     -0.549D-01 0.250D+00 0.865D+00
 Gap=     0.244 Goal=   None    Shift=    0.000
 RMSDP=4.34D-05 MaxDP=5.29D-03 DE=-4.07D-06 OVMax= 5.47D-04

 Cycle  10  Pass 1  IDiag  1:
 RMSU=  7.93D-06    CP:  6.26D-01  1.87D+00  1.99D+00  6.81D-01  8.06D-01
                    CP:  6.65D-01  1.08D+00  1.49D+00  1.06D+00
 E= -3010.53259351754     Delta-E=       -0.000000791048 Rises=F Damp=F
 DIIS: error= 1.34D-05 at cycle  10 NSaved=  10.
 NSaved=10 IEnMin=10 EnMin= -3010.53259351754     IErMin=10 ErrMin= 1.34D-05
 ErrMax= 1.34D-05  0.00D+00 EMaxC= 1.00D-01 BMatC= 6.22D-08 BMatP= 2.25D-07
 IDIUse=1 WtCom= 1.00D+00 WtEn= 0.00D+00
 Coeff-Com:  0.663D-03-0.865D-03 0.428D-03-0.366D-03 0.157D-02 0.240D-02
 Coeff-Com: -0.385D-01-0.813D-01 0.213D+00 0.903D+00
 Coeff:      0.663D-03-0.865D-03 0.428D-03-0.366D-03 0.157D-02 0.240D-02
 Coeff:     -0.385D-01-0.813D-01 0.213D+00 0.903D+00
 Gap=     0.244 Goal=   None    Shift=    0.000
 RMSDP=1.32D-05 MaxDP=1.29D-03 DE=-7.91D-07 OVMax= 2.80D-04

 Cycle  11  Pass 1  IDiag  1:
 RMSU=  7.30D-06    CP:  6.26D-01  1.87D+00  1.99D+00  6.81D-01  8.07D-01
                    CP:  6.63D-01  1.07D+00  1.61D+00  1.17D+00  1.29D+00
 E= -3010.53259371023     Delta-E=       -0.000000192692 Rises=F Damp=F
 DIIS: error= 5.97D-06 at cycle  11 NSaved=  11.
 NSaved=11 IEnMin=11 EnMin= -3010.53259371023     IErMin=11 ErrMin= 5.97D-06
 ErrMax= 5.97D-06  0.00D+00 EMaxC= 1.00D-01 BMatC= 7.25D-09 BMatP= 6.22D-08
 IDIUse=1 WtCom= 1.00D+00 WtEn= 0.00D+00
 Coeff-Com: -0.310D-03 0.416D-03 0.526D-04 0.812D-03 0.201D-02 0.422D-02
 Coeff-Com:  0.117D-01-0.229D-01-0.157D+00-0.127D+00 0.129D+01
 Coeff:     -0.310D-03 0.416D-03 0.526D-04 0.812D-03 0.201D-02 0.422D-02
 Coeff:      0.117D-01-0.229D-01-0.157D+00-0.127D+00 0.129D+01
 Gap=     0.244 Goal=   None    Shift=    0.000
 RMSDP=1.36D-05 MaxDP=1.32D-03 DE=-1.93D-07 OVMax= 2.09D-04

 Cycle  12  Pass 1  IDiag  1:
 RMSU=  1.61D-06    CP:  6.25D-01  1.87D+00  1.98D+00  6.80D-01  8.08D-01
                    CP:  6.57D-01  1.06D+00  1.69D+00  1.19D+00  1.65D+00
                    CP:  1.65D+00
 E= -3010.53259377102     Delta-E=       -0.000000060787 Rises=F Damp=F
 DIIS: error= 3.62D-06 at cycle  12 NSaved=  12.
 NSaved=12 IEnMin=12 EnMin= -3010.53259377102     IErMin=12 ErrMin= 3.62D-06
 ErrMax= 3.62D-06  0.00D+00 EMaxC= 1.00D-01 BMatC= 2.46D-09 BMatP= 7.25D-09
 IDIUse=1 WtCom= 1.00D+00 WtEn= 0.00D+00
 Coeff-Com: -0.212D-03 0.280D-03-0.360D-04 0.408D-03 0.423D-03 0.118D-02
 Coeff-Com:  0.130D-01 0.543D-02-0.115D+00-0.249D+00 0.606D+00 0.737D+00
 Coeff:     -0.212D-03 0.280D-03-0.360D-04 0.408D-03 0.423D-03 0.118D-02
 Coeff:      0.130D-01 0.543D-02-0.115D+00-0.249D+00 0.606D+00 0.737D+00
 Gap=     0.244 Goal=   None    Shift=    0.000
 RMSDP=2.69D-06 MaxDP=2.49D-04 DE=-6.08D-08 OVMax= 8.10D-05

 Cycle  13  Pass 1  IDiag  1:
 RMSU=  8.71D-07    CP:  6.25D-01  1.87D+00  1.98D+00  6.80D-01  8.08D-01
                    CP:  6.56D-01  1.06D+00  1.70D+00  1.21D+00  1.73D+00
                    CP:  1.86D+00  1.21D+00
 E= -3010.53259378120     Delta-E=       -0.000000010184 Rises=F Damp=F
 DIIS: error= 1.54D-06 at cycle  13 NSaved=  13.
 NSaved=13 IEnMin=13 EnMin= -3010.53259378120     IErMin=13 ErrMin= 1.54D-06
 ErrMax= 1.54D-06  0.00D+00 EMaxC= 1.00D-01 BMatC= 3.70D-10 BMatP= 2.46D-09
 IDIUse=1 WtCom= 1.00D+00 WtEn= 0.00D+00
 Coeff-Com:  0.782D-05-0.106D-04-0.212D-04-0.115D-03-0.476D-03-0.100D-02
 Coeff-Com: -0.188D-02 0.405D-02 0.308D-01 0.669D-02-0.234D+00 0.123D+00
 Coeff-Com:  0.107D+01
 Coeff:      0.782D-05-0.106D-04-0.212D-04-0.115D-03-0.476D-03-0.100D-02
 Coeff:     -0.188D-02 0.405D-02 0.308D-01 0.669D-02-0.234D+00 0.123D+00
 Coeff:      0.107D+01
 Gap=     0.244 Goal=   None    Shift=    0.000
 RMSDP=8.92D-07 MaxDP=4.40D-05 DE=-1.02D-08 OVMax= 3.63D-05

 Cycle  14  Pass 1  IDiag  1:
 RMSU=  3.36D-07    CP:  6.25D-01  1.87D+00  1.98D+00  6.80D-01  8.08D-01
                    CP:  6.56D-01  1.06D+00  1.70D+00  1.20D+00  1.75D+00
                    CP:  1.90D+00  1.47D+00  1.56D+00
 E= -3010.53259378309     Delta-E=       -0.000000001892 Rises=F Damp=F
 DIIS: error= 5.44D-07 at cycle  14 NSaved=  14.
 NSaved=14 IEnMin=14 EnMin= -3010.53259378309     IErMin=14 ErrMin= 5.44D-07
 ErrMax= 5.44D-07  0.00D+00 EMaxC= 1.00D-01 BMatC= 6.66D-11 BMatP= 3.70D-10
 IDIUse=1 WtCom= 1.00D+00 WtEn= 0.00D+00
 Coeff-Com:  0.156D-04-0.204D-04-0.796D-05-0.860D-04-0.194D-03-0.469D-03
 Coeff-Com: -0.247D-02 0.259D-03 0.286D-01 0.387D-01-0.184D+00-0.619D-01
 Coeff-Com:  0.394D+00 0.787D+00
 Coeff:      0.156D-04-0.204D-04-0.796D-05-0.860D-04-0.194D-03-0.469D-03
 Coeff:     -0.247D-02 0.259D-03 0.286D-01 0.387D-01-0.184D+00-0.619D-01
 Coeff:      0.394D+00 0.787D+00
 Gap=     0.244 Goal=   None    Shift=    0.000
 RMSDP=4.56D-07 MaxDP=4.94D-05 DE=-1.89D-09 OVMax= 1.24D-05

 Cycle  15  Pass 1  IDiag  1:
 RMSU=  1.43D-07    CP:  6.25D-01  1.87D+00  1.98D+00  6.80D-01  8.08D-01
                    CP:  6.56D-01  1.06D+00  1.70D+00  1.20D+00  1.76D+00
                    CP:  1.91D+00  1.55D+00  1.77D+00  1.30D+00
 E= -3010.53259378335     Delta-E=       -0.000000000258 Rises=F Damp=F
 DIIS: error= 2.75D-07 at cycle  15 NSaved=  15.
 NSaved=15 IEnMin=15 EnMin= -3010.53259378335     IErMin=15 ErrMin= 2.75D-07
 ErrMax= 2.75D-07  0.00D+00 EMaxC= 1.00D-01 BMatC= 1.08D-11 BMatP= 6.66D-11
 IDIUse=1 WtCom= 1.00D+00 WtEn= 0.00D+00
 Coeff-Com:  0.668D-05-0.887D-05 0.314D-05 0.192D-05 0.657D-04 0.118D-03
 Coeff-Com: -0.572D-04-0.673D-03-0.245D-03 0.651D-02 0.760D-02-0.386D-01
 Coeff-Com: -0.144D+00 0.202D+00 0.967D+00
 Coeff:      0.668D-05-0.887D-05 0.314D-05 0.192D-05 0.657D-04 0.118D-03
 Coeff:     -0.572D-04-0.673D-03-0.245D-03 0.651D-02 0.760D-02-0.386D-01
 Coeff:     -0.144D+00 0.202D+00 0.967D+00
 Gap=     0.244 Goal=   None    Shift=    0.000
 RMSDP=1.71D-07 MaxDP=8.20D-06 DE=-2.58D-10 OVMax= 5.76D-06

 Cycle  16  Pass 1  IDiag  1:
 RMSU=  6.29D-08    CP:  6.25D-01  1.87D+00  1.98D+00  6.80D-01  8.08D-01
                    CP:  6.56D-01  1.06D+00  1.70D+00  1.20D+00  1.76D+00
                    CP:  1.91D+00  1.58D+00  1.86D+00  1.51D+00  1.47D+00
 E= -3010.53259378338     Delta-E=       -0.000000000027 Rises=F Damp=F
 DIIS: error= 6.75D-08 at cycle  16 NSaved=  16.
 NSaved=16 IEnMin=16 EnMin= -3010.53259378338     IErMin=16 ErrMin= 6.75D-08
 ErrMax= 6.75D-08  0.00D+00 EMaxC= 1.00D-01 BMatC= 8.97D-13 BMatP= 1.08D-11
 IDIUse=1 WtCom= 1.00D+00 WtEn= 0.00D+00
 Coeff-Com: -0.144D-06 0.170D-06 0.143D-05 0.881D-05 0.292D-04 0.575D-04
 Coeff-Com:  0.206D-03-0.187D-03-0.287D-02-0.216D-02 0.184D-01-0.350D-03
 Coeff-Com: -0.537D-01-0.639D-01 0.991D-01 0.101D+01
 Coeff:     -0.144D-06 0.170D-06 0.143D-05 0.881D-05 0.292D-04 0.575D-04
 Coeff:      0.206D-03-0.187D-03-0.287D-02-0.216D-02 0.184D-01-0.350D-03
 Coeff:     -0.537D-01-0.639D-01 0.991D-01 0.101D+01
 Gap=     0.244 Goal=   None    Shift=    0.000
 RMSDP=7.54D-08 MaxDP=6.10D-06 DE=-2.73D-11 OVMax= 1.57D-06

 Cycle  17  Pass 1  IDiag  1:
 RMSU=  2.10D-08    CP:  6.25D-01  1.87D+00  1.98D+00  6.80D-01  8.07D-01
                    CP:  6.56D-01  1.06D+00  1.70D+00  1.20D+00  1.76D+00
                    CP:  1.91D+00  1.58D+00  1.88D+00  1.55D+00  1.75D+00
                    CP:  1.27D+00
 E= -3010.53259378342     Delta-E=       -0.000000000041 Rises=F Damp=F
 DIIS: error= 2.57D-08 at cycle  17 NSaved=  17.
 NSaved=17 IEnMin=17 EnMin= -3010.53259378342     IErMin=17 ErrMin= 2.57D-08
 ErrMax= 2.57D-08  0.00D+00 EMaxC= 1.00D-01 BMatC= 1.92D-13 BMatP= 8.97D-13
 IDIUse=1 WtCom= 1.00D+00 WtEn= 0.00D+00
 Coeff-Com: -0.170D-05 0.227D-05-0.255D-06 0.247D-05 0.210D-06-0.142D-05
 Coeff-Com:  0.425D-04 0.829D-04-0.536D-03-0.110D-02 0.300D-02 0.458D-02
 Coeff-Com:  0.997D-02-0.439D-01-0.111D+00 0.210D+00 0.929D+00
 Coeff:     -0.170D-05 0.227D-05-0.255D-06 0.247D-05 0.210D-06-0.142D-05
 Coeff:      0.425D-04 0.829D-04-0.536D-03-0.110D-02 0.300D-02 0.458D-02
 Coeff:      0.997D-02-0.439D-01-0.111D+00 0.210D+00 0.929D+00
 Gap=     0.244 Goal=   None    Shift=    0.000
 RMSDP=5.18D-08 MaxDP=4.74D-06 DE=-4.09D-11 OVMax= 6.41D-07

 Cycle  18  Pass 1  IDiag  1:
 RMSU=  8.19D-09    CP:  6.25D-01  1.87D+00  1.98D+00  6.80D-01  8.07D-01
                    CP:  6.56D-01  1.06D+00  1.70D+00  1.20D+00  1.76D+00
                    CP:  1.91D+00  1.58D+00  1.88D+00  1.55D+00  1.83D+00
                    CP:  1.53D+00  1.20D+00
 E= -3010.53259378342     Delta-E=        0.000000000002 Rises=F Damp=F
 DIIS: error= 1.68D-08 at cycle  18 NSaved=  18.
 NSaved=18 IEnMin=17 EnMin= -3010.53259378342     IErMin=18 ErrMin= 1.68D-08
 ErrMax= 1.68D-08  0.00D+00 EMaxC= 1.00D-01 BMatC= 5.08D-14 BMatP= 1.92D-13
 IDIUse=1 WtCom= 1.00D+00 WtEn= 0.00D+00
 Coeff-Com: -0.475D-07 0.642D-07-0.272D-06-0.154D-05-0.770D-05-0.164D-04
 Coeff-Com: -0.343D-04 0.921D-04 0.365D-03-0.101D-03-0.290D-02 0.161D-02
 Coeff-Com:  0.163D-01-0.495D-02-0.623D-01-0.114D+00 0.367D+00 0.800D+00
 Coeff:     -0.475D-07 0.642D-07-0.272D-06-0.154D-05-0.770D-05-0.164D-04
 Coeff:     -0.343D-04 0.921D-04 0.365D-03-0.101D-03-0.290D-02 0.161D-02
 Coeff:      0.163D-01-0.495D-02-0.623D-01-0.114D+00 0.367D+00 0.800D+00
 Gap=     0.244 Goal=   None    Shift=    0.000
 RMSDP=3.37D-08 MaxDP=3.58D-06 DE= 1.82D-12 OVMax= 3.05D-07

 Cycle  19  Pass 1  IDiag  1:
 RMSU=  2.81D-09    CP:  6.25D-01  1.87D+00  1.98D+00  6.80D-01  8.07D-01
                    CP:  6.56D-01  1.06D+00  1.70D+00  1.20D+00  1.76D+00
                    CP:  1.91D+00  1.59D+00  1.88D+00  1.54D+00  1.87D+00
                    CP:  1.61D+00  1.42D+00  1.27D+00
 E= -3010.53259378341     Delta-E=        0.000000000008 Rises=F Damp=F
 DIIS: error= 9.61D-09 at cycle  19 NSaved=  19.
 NSaved=19 IEnMin=17 EnMin= -3010.53259378342     IErMin=19 ErrMin= 9.61D-09
 ErrMax= 9.61D-09  0.00D+00 EMaxC= 1.00D-01 BMatC= 5.07D-15 BMatP= 5.08D-14
 IDIUse=1 WtCom= 1.00D+00 WtEn= 0.00D+00
 Large coefficients: NSaved= 19 BigCof=    0.00 CofMax=   10.00 Det=-9.46D-15
 Inversion failed.  Reducing to 18 matrices.
 Large coefficients: NSaved= 18 BigCof=    0.00 CofMax=   10.00 Det=-1.66D-14
 Inversion failed.  Reducing to 17 matrices.
 Coeff-Com: -0.119D-07 0.960D-08 0.769D-06 0.130D-05-0.490D-05-0.127D-04
 Coeff-Com:  0.651D-04 0.153D-03-0.266D-03-0.602D-03-0.972D-03 0.512D-02
 Coeff-Com:  0.144D-01-0.329D-01-0.130D+00-0.198D-01 0.116D+01
 Coeff:     -0.119D-07 0.960D-08 0.769D-06 0.130D-05-0.490D-05-0.127D-04
 Coeff:      0.651D-04 0.153D-03-0.266D-03-0.602D-03-0.972D-03 0.512D-02
 Coeff:      0.144D-01-0.329D-01-0.130D+00-0.198D-01 0.116D+01
 Gap=     0.244 Goal=   None    Shift=    0.000
 RMSDP=8.70D-09 MaxDP=8.15D-07 DE= 7.73D-12 OVMax= 1.98D-07

 SCF Done:  E(RwB97XD) =  -3010.53259378     A.U. after   19 cycles
            NFock= 19  Conv=0.87D-08     -V/T= 2.0016
 KE= 3.005849124167D+03 PE=-8.699218191592D+03 EE= 1.910184889547D+03
 Leave Link  502 at Thu May  2 14:18:40 2024, MaxMem=   134217728 cpu:            1159.1 elap:            1159.5
 (Enter /software/gaussian/g16-c01/sse4/g16/l601.exe)
 Copying SCF densities to generalized density rwf, IOpCl= 0 IROHF=0.

 **********************************************************************

            Population analysis using the SCF Density.

 **********************************************************************

 Alpha  occ. eigenvalues -- -483.30717 -62.85733 -56.65434 -56.64855 -56.64843
 Alpha  occ. eigenvalues --  -19.46125 -19.46114 -14.85544 -10.59010 -10.57735
 Alpha  occ. eigenvalues --  -10.57077 -10.56719 -10.53173 -10.52542  -9.01533
 Alpha  occ. eigenvalues --   -6.84234  -6.82335  -6.82299  -2.94133  -2.93634
 Alpha  occ. eigenvalues --   -2.93605  -2.92086  -2.92085  -1.49809  -1.32771
 Alpha  occ. eigenvalues --   -1.22194  -1.12623  -1.12188  -1.04435  -1.00069
 Alpha  occ. eigenvalues --   -0.95118  -0.90369  -0.84796  -0.80743  -0.79970
 Alpha  occ. eigenvalues --   -0.79909  -0.77717  -0.76064  -0.75376  -0.71701
 Alpha  occ. eigenvalues --   -0.68314  -0.67358  -0.63048  -0.59523  -0.57292
 Alpha  occ. eigenvalues --   -0.56585  -0.55839  -0.55680  -0.54196
 Alpha virt. eigenvalues --   -0.29819  -0.20225  -0.15285  -0.12874  -0.08496
 Alpha virt. eigenvalues --   -0.06056  -0.05490  -0.04523  -0.03840  -0.03081
 Alpha virt. eigenvalues --   -0.02320  -0.01344  -0.00758  -0.00129   0.00795
 Alpha virt. eigenvalues --    0.01249   0.01934   0.02487   0.03057   0.03695
 Alpha virt. eigenvalues --    0.04513   0.05623   0.05825   0.06153   0.07053
 Alpha virt. eigenvalues --    0.07700   0.07716   0.08404   0.09360   0.09803
 Alpha virt. eigenvalues --    0.10108   0.10852   0.11758   0.12172   0.12771
 Alpha virt. eigenvalues --    0.13111   0.13405   0.13859   0.14925   0.15727
 Alpha virt. eigenvalues --    0.16804   0.17270   0.17568   0.18857   0.19025
 Alpha virt. eigenvalues --    0.20236   0.20966   0.21712   0.22507   0.24370
 Alpha virt. eigenvalues --    0.24821   0.26530   0.28238   0.29791   0.32564
 Alpha virt. eigenvalues --    0.33000   0.33638   0.33831   0.34563   0.36743
 Alpha virt. eigenvalues --    0.37564   0.38025   0.39767   0.40926   0.42188
 Alpha virt. eigenvalues --    0.43560   0.44295   0.45659   0.47169   0.47555
 Alpha virt. eigenvalues --    0.48823   0.50694   0.51196   0.52631   0.53809
 Alpha virt. eigenvalues --    0.55380   0.56205   0.58307   0.58422   0.60450
 Alpha virt. eigenvalues --    0.61423   0.62563   0.64861   0.67983   0.68461
 Alpha virt. eigenvalues --    0.71580   0.71861   0.73063   0.74589   0.74935
 Alpha virt. eigenvalues --    0.75128   0.77529   0.79836   0.83709   0.85873
 Alpha virt. eigenvalues --    0.87352   0.87889   0.91710   0.94486   0.98943
 Alpha virt. eigenvalues --    1.00556   1.02824   1.04134   1.05919   1.07171
 Alpha virt. eigenvalues --    1.09026   1.12743   1.13517   1.14241   1.18113
 Alpha virt. eigenvalues --    1.21174   1.23026   1.28368   1.33742   1.36573
 Alpha virt. eigenvalues --    1.37205   1.39278   1.43523   1.55230   1.56961
 Alpha virt. eigenvalues --    1.57545   1.60093   1.61507   1.64222   1.66113
 Alpha virt. eigenvalues --    1.68358   1.71770   1.74169   1.75562   1.79774
 Alpha virt. eigenvalues --    1.84240   1.85651   1.87572   1.95505   1.96683
 Alpha virt. eigenvalues --    1.98164   2.02859   2.03290   2.07569   2.09336
 Alpha virt. eigenvalues --    2.13237   2.14986   2.22613   2.23916   2.27673
 Alpha virt. eigenvalues --    2.33816   2.40131   2.41760   2.44620   2.53580
 Alpha virt. eigenvalues --    2.58364   2.63456   2.66272   2.69046   2.71831
 Alpha virt. eigenvalues --    2.73886   2.76532   2.77689   2.80796   2.82373
 Alpha virt. eigenvalues --    2.93562   2.98401   3.01637   3.06141   3.09304
 Alpha virt. eigenvalues --    3.15159   3.16656   3.17850   3.22664   3.26709
 Alpha virt. eigenvalues --    3.28072   3.38151   3.46926   3.50417   3.54868
 Alpha virt. eigenvalues --    3.57852   3.69017   3.74345   3.83981   3.87693
 Alpha virt. eigenvalues --    4.10565   4.11428   4.19942   4.24088   4.43718
 Alpha virt. eigenvalues --    4.45412   4.54978   4.60030   4.93664   4.96484
 Alpha virt. eigenvalues --    5.05360   5.09824   5.62121   6.15259   6.68575
 Alpha virt. eigenvalues --    7.49455   7.51769   7.61855  23.22506  23.61625
 Alpha virt. eigenvalues --   23.72276  23.78367  23.96011  24.02447  35.31620
 Alpha virt. eigenvalues --   47.94626  49.85340  49.94002 289.82260 289.84599
 Alpha virt. eigenvalues --  289.972141020.95797
          Condensed to atoms (all electrons):
               1          2          3          4          5          6
     1  C    7.786453  -2.430662   0.761976  -0.038089   0.296957   0.058191
     2  C   -2.430662  17.309414  -3.876452   0.416386  -0.012943   0.191820
     3  C    0.761976  -3.876452  19.029982  -1.328103   0.021468   0.117140
     4  C   -0.038089   0.416386  -1.328103   6.400897   0.023207  -0.015242
     5  H    0.296957  -0.012943   0.021468   0.023207   0.331799  -0.001677
     6  H    0.058191   0.191820   0.117140  -0.015242  -0.001677   0.312443
     7  H    0.027190  -0.027127   0.020996   0.305561  -0.002772  -0.000003
     8  N   -0.097102  -0.071138  -1.784168   0.020522  -0.000394  -0.029991
     9  O   -0.013030   0.293343  -0.034087  -0.017208  -0.000032  -0.002486
    10  O    0.269161  -0.185438  -0.260222  -0.021107   0.000001   0.021287
    11  C    0.747064  -0.559504   2.412467  -0.292709  -0.025439   0.008796
    12  H   -0.011728   0.018644   0.007142   0.019116   0.000021  -0.000018
    13  C   -1.247351  -5.054191  -8.822778   0.859517   0.024789  -0.009638
    14  H   -0.002724   0.012661   0.030968   0.002512  -0.000034   0.000051
    15  Br   0.008202  -0.214987  -0.224975  -0.002828   0.000025  -0.000560
               7          8          9         10         11         12
     1  C    0.027190  -0.097102  -0.013030   0.269161   0.747064  -0.011728
     2  C   -0.027127  -0.071138   0.293343  -0.185438  -0.559504   0.018644
     3  C    0.020996  -1.784168  -0.034087  -0.260222   2.412467   0.007142
     4  C    0.305561   0.020522  -0.017208  -0.021107  -0.292709   0.019116
     5  H   -0.002772  -0.000394  -0.000032   0.000001  -0.025439   0.000021
     6  H   -0.000003  -0.029991  -0.002486   0.021287   0.008796  -0.000018
     7  H    0.338856   0.000015   0.000002   0.000002   0.029888  -0.002338
     8  N    0.000015   7.655476   0.040462   0.205336  -0.321433   0.000533
     9  O    0.000002   0.040462   7.902779   0.002422   0.268757   0.000110
    10  O    0.000002   0.205336   0.002422   7.813380   0.001666  -0.000025
    11  C    0.029888  -0.321433   0.268757   0.001666   7.947105   0.310858
    12  H   -0.002338   0.000533   0.000110  -0.000025   0.310858   0.323315
    13  C   -0.019896   1.488520  -0.483998   0.080818  -4.395819  -0.016404
    14  H   -0.000034  -0.032291   0.013537  -0.001725   0.021408  -0.004943
    15  Br  -0.000391   0.169630  -0.058806   0.004837   0.054730  -0.000302
              13         14         15
     1  C   -1.247351  -0.002724   0.008202
     2  C   -5.054191   0.012661  -0.214987
     3  C   -8.822778   0.030968  -0.224975
     4  C    0.859517   0.002512  -0.002828
     5  H    0.024789  -0.000034   0.000025
     6  H   -0.009638   0.000051  -0.000560
     7  H   -0.019896  -0.000034  -0.000391
     8  N    1.488520  -0.032291   0.169630
     9  O   -0.483998   0.013537  -0.058806
    10  O    0.080818  -0.001725   0.004837
    11  C   -4.395819   0.021408   0.054730
    12  H   -0.016404  -0.004943  -0.000302
    13  C   23.269730   0.265272   0.427320
    14  H    0.265272   0.332536  -0.042291
    15  Br   0.427320  -0.042291  34.678498
 Mulliken charges:
               1
     1  C   -0.114507
     2  C    0.190173
     3  C   -0.071354
     4  C   -0.332432
     5  H    0.345024
     6  H    0.349888
     7  H    0.330054
     8  N   -0.243977
     9  O    0.088235
    10  O    0.069606
    11  C   -0.207834
    12  H    0.356019
    13  C   -0.365888
    14  H    0.405096
    15  Br   0.201898
 Sum of Mulliken charges =   1.00000
 Mulliken charges with hydrogens summed into heavy atoms:
               1
     1  C    0.230517
     2  C    0.540060
     3  C   -0.071354
     4  C   -0.002377
     8  N   -0.243977
     9  O    0.088235
    10  O    0.069606
    11  C    0.148185
    13  C    0.039208
    15  Br   0.201898
 Electronic spatial extent (au):  <R**2>=           3945.7164
 Charge=              1.0000 electrons
 Dipole moment (field-independent basis, Debye):
    X=              2.8095    Y=             -0.9818    Z=             -1.0921  Tot=              3.1701
 Quadrupole moment (field-independent basis, Debye-Ang):
   XX=            -67.8575   YY=            -51.0200   ZZ=            -61.7299
   XY=             -3.1238   XZ=             -3.2649   YZ=              2.7915
 Traceless Quadrupole moment (field-independent basis, Debye-Ang):
   XX=             -7.6551   YY=              9.1825   ZZ=             -1.5274
   XY=             -3.1238   XZ=             -3.2649   YZ=              2.7915
 Octapole moment (field-independent basis, Debye-Ang**2):
  XXX=           -513.4617  YYY=             91.4770  ZZZ=             81.0974  XYY=           -136.1629
  XXY=             24.0422  XXZ=             23.2410  XZZ=           -131.5015  YZZ=             16.1702
  YYZ=             24.5235  XYZ=              8.7393
 Hexadecapole moment (field-independent basis, Debye-Ang**3):
 XXXX=          -3452.2526 YYYY=           -700.5724 ZZZZ=           -390.7999 XXXY=            178.4606
 XXXZ=            175.7826 YYYX=            183.8144 YYYZ=           -169.7605 ZZZX=            163.5974
 ZZZY=           -141.4290 XXYY=           -623.1057 XXZZ=           -523.5982 YYZZ=           -169.1643
 XXYZ=            -39.1846 YYXZ=             46.9202 ZZXY=             26.7561
 N-N= 7.726515840956D+02 E-N=-8.699218191091D+03  KE= 3.005849124167D+03
 No NMR shielding tensors so no spin-rotation constants.
 Leave Link  601 at Thu May  2 14:18:48 2024, MaxMem=   134217728 cpu:               7.3 elap:               7.3
 (Enter /software/gaussian/g16-c01/sse4/g16/l9999.exe)
 Unable to Open any file for archive entry.
 1\1\GINC-BHX0017\SP\RwB97XD\6-311+G(d)\C6H5Br1N1O2(1+)\BWEIGHT\02-May-
 2024\0\\#P wB97XD/6-311+G* NoSymm #P Field=Z+19\\TitleMe\\1,1\C,0,0.51
 93,1.233,-0.0319\C,0,1.9445,1.2692,-0.0367\C,0,2.6204,0.0928,-0.025\C,
 0,-0.196,0.0301,0.001\H,0,-0.0207,2.1742,-0.0434\H,0,2.4828,2.2089,-0.
 0361\H,0,-1.2777,0.0399,0.0117\N,0,4.0921,0.0959,0.0366\O,0,4.6393,-1.
 0217,0.1446\O,0,4.6649,1.1984,-0.0233\C,0,0.4943,-1.1671,0.021\H,0,-0.
 0325,-2.1149,0.0545\C,0,1.9629,-1.2165,-0.0211\H,0,2.4436,-1.9631,0.61
 51\Br,0,2.173,-1.9491,-1.9062\\Version=ES64L-G16RevC.01\HF=-3010.53259
 38\RMSD=8.704e-09\Dipole=-3.2238737,0.8418567,0.8195734\Quadrupole=-5.
 6913486,6.8269401,-1.1355915,-2.3224923,-2.4274087,2.0754031\PG=C01 [X
 (C6H5Br1N1O2)]\\@
 The archive entry for this job was punched.


      HUMANKIND PERIODICALLY GOES THROUGH A SPEEDUP OF ITS AFFAIRS, 
      THEREBY EXPERIENCING THE RACE BETWEEN THE RENEWABLE VITALITY
      OF THE LIVING, AND THE BECKONING VITIATION OF DECADENCE.
      IN THIS PERIODIC RACE, ANY PAUSE BECOMES A LUXURY.
      ONLY THEN CAN ONE REFLECT THAT ALL IS PERMITTED;
      ALL IS POSSIBLE.

                              -- THE APOCRYPHA OF MUAD'DIB
                                 CHILDREN OF DUNE, BY FRANK HERBERT
 Job cpu time:       0 days  0 hours 20 minutes 29.8 seconds.
 Elapsed time:       0 days  0 hours 20 minutes 30.2 seconds.
 File lengths (MBytes):  RWF=     40 Int=      0 D2E=      0 Chk=     32 Scr=      1
 Normal termination of Gaussian 16 at Thu May  2 14:18:49 2024.
