 Entering Gaussian System, Link 0=g16
 Initial command:
 /software/gaussian/g16-a03/l1.exe "/local_scratch/6484853/Gau-6286.inp" -scrdir="/local_scratch/6484853/"
 Entering Link 1 = /software/gaussian/g16-a03/l1.exe PID=      6300.
  
 Copyright (c) 1988,1990,1992,1993,1995,1998,2003,2009,2016,
            Gaussian, Inc.  All Rights Reserved.
  
 This is part of the Gaussian(R) 16 program.  It is based on
 the Gaussian(R) 09 system (copyright 2009, Gaussian, Inc.),
 the Gaussian(R) 03 system (copyright 2003, Gaussian, Inc.),
 the Gaussian(R) 98 system (copyright 1998, Gaussian, Inc.),
 the Gaussian(R) 94 system (copyright 1995, Gaussian, Inc.),
 the Gaussian 92(TM) system (copyright 1992, Gaussian, Inc.),
 the Gaussian 90(TM) system (copyright 1990, Gaussian, Inc.),
 the Gaussian 88(TM) system (copyright 1988, Gaussian, Inc.),
 the Gaussian 86(TM) system (copyright 1986, Carnegie Mellon
 University), and the Gaussian 82(TM) system (copyright 1983,
 Carnegie Mellon University). Gaussian is a federally registered
 trademark of Gaussian, Inc.
  
 This software contains proprietary and confidential information,
 including trade secrets, belonging to Gaussian, Inc.
  
 This software is provided under written license and may be
 used, copied, transmitted, or stored only in accord with that
 written license.
  
 The following legend is applicable only to US Government
 contracts under FAR:
  
                    RESTRICTED RIGHTS LEGEND
  
 Use, reproduction and disclosure by the US Government is
 subject to restrictions as set forth in subparagraphs (a)
 and (c) of the Commercial Computer Software - Restricted
 Rights clause in FAR 52.227-19.
  
 Gaussian, Inc.
 340 Quinnipiac St., Bldg. 40, Wallingford CT 06492
  
  
 ---------------------------------------------------------------
 Warning -- This program may not be used in any manner that
 competes with the business of Gaussian, Inc. or will provide
 assistance to any competitor of Gaussian, Inc.  The licensee
 of this program is prohibited from giving any competitor of
 Gaussian, Inc. access to this program.  By using this program,
 the user acknowledges that Gaussian, Inc. is engaged in the
 business of creating and licensing software in the field of
 computational chemistry and represents and warrants to the
 licensee that it is not a competitor of Gaussian, Inc. and that
 it will not use this program in any manner prohibited above.
 ---------------------------------------------------------------
  

 Cite this work as:
 Gaussian 16, Revision A.03,
 M. J. Frisch, G. W. Trucks, H. B. Schlegel, G. E. Scuseria, 
 M. A. Robb, J. R. Cheeseman, G. Scalmani, V. Barone, 
 G. A. Petersson, H. Nakatsuji, X. Li, M. Caricato, A. V. Marenich, 
 J. Bloino, B. G. Janesko, R. Gomperts, B. Mennucci, H. P. Hratchian, 
 J. V. Ortiz, A. F. Izmaylov, J. L. Sonnenberg, D. Williams-Young, 
 F. Ding, F. Lipparini, F. Egidi, J. Goings, B. Peng, A. Petrone, 
 T. Henderson, D. Ranasinghe, V. G. Zakrzewski, J. Gao, N. Rega, 
 G. Zheng, W. Liang, M. Hada, M. Ehara, K. Toyota, R. Fukuda, 
 J. Hasegawa, M. Ishida, T. Nakajima, Y. Honda, O. Kitao, H. Nakai, 
 T. Vreven, K. Throssell, J. A. Montgomery, Jr., J. E. Peralta, 
 F. Ogliaro, M. J. Bearpark, J. J. Heyd, E. N. Brothers, K. N. Kudin, 
 V. N. Staroverov, T. A. Keith, R. Kobayashi, J. Normand, 
 K. Raghavachari, A. P. Rendell, J. C. Burant, S. S. Iyengar, 
 J. Tomasi, M. Cossi, J. M. Millam, M. Klene, C. Adamo, R. Cammi, 
 J. W. Ochterski, R. L. Martin, K. Morokuma, O. Farkas, 
 J. B. Foresman, and D. J. Fox, Gaussian, Inc., Wallingford CT, 2016.
 
 ******************************************
 Gaussian 16:  ES64L-G16RevA.03 25-Dec-2016
                17-Sep-2021 
 ******************************************
 %chk=geometry.chk
 %mem=2GB
 %nprocshared=1
 Will use up to    1 processors via shared memory.
 --------------------------------------------------------------------
 #p B3LYP/6-311+G** #p TD=(singlets,nstates=30)IOp(6/8=3) IOp(9/40=4)
 --------------------------------------------------------------------
 1/38=1,172=1/1;
 2/12=2,17=6,18=5,40=1/2;
 3/5=4,6=6,7=111,11=9,25=1,30=1,74=-5/1,2,3,8;
 4//1;
 5/5=2,38=5/2;
 8/6=1,10=2,108=30/1;
 9/40=4,41=30,42=1,48=1,70=2/14;
 6/7=2,8=3,9=2,10=2/1;
 99/5=1,9=1/99;
 Leave Link    1 at Fri Sep 17 10:52:11 2021, MaxMem=   268435456 cpu:               0.0 elap:               0.1
 (Enter /software/gaussian/g16-a03/l101.exe)
 ---------------------------------------------
 Scan Step 122, Bond Length 1.1099999999999999
 ---------------------------------------------
 Symbolic Z-matrix:
 Charge =  0 Multiplicity = 1
 C                     0.        0.       -0.52736 
 H                     0.        0.93726  -1.11871 
 H                     0.       -0.93726  -1.11871 
 O                     0.        0.        0.58264 
 
 ITRead=  0  0  0  0
 MicOpt= -1 -1 -1 -1
 NAtoms=      4 NQM=        4 NQMF=       0 NMMI=      0 NMMIF=      0
                NMic=       0 NMicF=      0.
                    Isotopes and Nuclear Properties:
 (Nuclear quadrupole moments (NQMom) in fm**2, nuclear magnetic moments (NMagM)
  in nuclear magnetons)

  Atom         1           2           3           4
 IAtWgt=          12           1           1          16
 AtmWgt=  12.0000000   1.0078250   1.0078250  15.9949146
 NucSpn=           0           1           1           0
 AtZEff=  -0.0000000  -0.0000000  -0.0000000  -0.0000000
 NQMom=    0.0000000   0.0000000   0.0000000   0.0000000
 NMagM=    0.0000000   2.7928460   2.7928460   0.0000000
 AtZNuc=   6.0000000   1.0000000   1.0000000   8.0000000
 Leave Link  101 at Fri Sep 17 10:52:12 2021, MaxMem=   268435456 cpu:               0.1 elap:               0.1
 (Enter /software/gaussian/g16-a03/l202.exe)
                          Input orientation:                          
 ---------------------------------------------------------------------
 Center     Atomic      Atomic             Coordinates (Angstroms)
 Number     Number       Type             X           Y           Z
 ---------------------------------------------------------------------
      1          6           0        0.000000    0.000000   -0.527360
      2          1           0        0.000000    0.937260   -1.118710
      3          1           0        0.000000   -0.937260   -1.118710
      4          8           0        0.000000    0.000000    0.582640
 ---------------------------------------------------------------------
                    Distance matrix (angstroms):
                    1          2          3          4
     1  C    0.000000
     2  H    1.108220   0.000000
     3  H    1.108220   1.874520   0.000000
     4  O    1.110000   1.942434   1.942434   0.000000
 Stoichiometry    CH2O
 Framework group  C2V[C2(CO),SGV(H2)]
 Deg. of freedom     3
 Full point group                 C2V     NOp   4
 Largest Abelian subgroup         C2V     NOp   4
 Largest concise Abelian subgroup C2      NOp   2
                         Standard orientation:                         
 ---------------------------------------------------------------------
 Center     Atomic      Atomic             Coordinates (Angstroms)
 Number     Number       Type             X           Y           Z
 ---------------------------------------------------------------------
      1          6           0        0.000000   -0.000000   -0.481081
      2          1           0        0.000000    0.937260   -1.072431
      3          1           0       -0.000000   -0.937260   -1.072431
      4          8           0        0.000000    0.000000    0.628919
 ---------------------------------------------------------------------
 Rotational constants (GHZ):         285.4183527          44.8363127          38.7492074
 Leave Link  202 at Fri Sep 17 10:52:12 2021, MaxMem=   268435456 cpu:               0.0 elap:               0.0
 (Enter /software/gaussian/g16-a03/l301.exe)
 Standard basis: 6-311+G(d,p) (5D, 7F)
 Ernie: Thresh=  0.10000D-02 Tol=  0.10000D-05 Strict=F.
 There are    29 symmetry adapted cartesian basis functions of A1  symmetry.
 There are     3 symmetry adapted cartesian basis functions of A2  symmetry.
 There are    11 symmetry adapted cartesian basis functions of B1  symmetry.
 There are    15 symmetry adapted cartesian basis functions of B2  symmetry.
 There are    27 symmetry adapted basis functions of A1  symmetry.
 There are     3 symmetry adapted basis functions of A2  symmetry.
 There are    11 symmetry adapted basis functions of B1  symmetry.
 There are    15 symmetry adapted basis functions of B2  symmetry.
    56 basis functions,    88 primitive gaussians,    58 cartesian basis functions
     8 alpha electrons        8 beta electrons
       nuclear repulsion energy        33.2545436873 Hartrees.
 IExCor=  402 DFT=T Ex+Corr=B3LYP ExCW=0 ScaHFX=  0.200000
 ScaDFX=  0.800000  0.720000  1.000000  0.810000 ScalE2=  1.000000  1.000000
 IRadAn=      5 IRanWt=     -1 IRanGd=            0 ICorTp=0 IEmpDi=  4
 NAtoms=    4 NActive=    4 NUniq=    3 SFac= 1.78D+00 NAtFMM=   60 NAOKFM=F Big=F
 Integral buffers will be    131072 words long.
 Regular integral format.
 Two-electron integral symmetry is turned on.
 Leave Link  301 at Fri Sep 17 10:52:12 2021, MaxMem=   268435456 cpu:               0.1 elap:               0.1
 (Enter /software/gaussian/g16-a03/l302.exe)
 NPDir=0 NMtPBC=     1 NCelOv=     1 NCel=       1 NClECP=     1 NCelD=      1
         NCelK=      1 NCelE2=     1 NClLst=     1 CellRange=     0.0.
 One-electron integrals computed using PRISM.
 One-electron integral symmetry used in STVInt
 NBasis=    56 RedAO= T EigKep=  2.96D-03  NBF=    27     3    11    15
 NBsUse=    56 1.00D-06 EigRej= -1.00D+00 NBFU=    27     3    11    15
 Precomputing XC quadrature grid using
 IXCGrd= 4 IRadAn=           5 IRanWt=          -1 IRanGd=           0 AccXCQ= 0.00D+00.
 Generated NRdTot=       0 NPtTot=           0 NUsed=           0 NTot=          32
 NSgBfM=    58    58    58    58    58 MxSgAt=     4 MxSgA2=     4.
 Leave Link  302 at Fri Sep 17 10:52:12 2021, MaxMem=   268435456 cpu:               0.1 elap:               0.1
 (Enter /software/gaussian/g16-a03/l303.exe)
 DipDrv:  MaxL=1.
 Leave Link  303 at Fri Sep 17 10:52:12 2021, MaxMem=   268435456 cpu:               0.0 elap:               0.0
 (Enter /software/gaussian/g16-a03/l308.exe)
 Leave Link  308 at Fri Sep 17 10:52:12 2021, MaxMem=   268435456 cpu:               0.0 elap:               0.0
 (Enter /software/gaussian/g16-a03/l401.exe)
 ExpMin= 4.38D-02 ExpMax= 8.59D+03 ExpMxC= 1.30D+03 IAcc=3 IRadAn=         5 AccDes= 0.00D+00
 Harris functional with IExCor=  402 and IRadAn=       5 diagonalized for initial guess.
 HarFok:  IExCor=  402 AccDes= 0.00D+00 IRadAn=         5 IDoV= 1 UseB2=F ITyADJ=14
 ICtDFT=  3500011 ScaDFX=  1.000000  1.000000  1.000000  1.000000
 FoFCou: FMM=F IPFlag=           0 FMFlag=      100000 FMFlg1=           0
         NFxFlg=           0 DoJE=T BraDBF=F KetDBF=T FulRan=T
         wScrn=  0.000000 ICntrl=       500 IOpCl=  0 I1Cent=   200000004 NGrid=           0
         NMat0=    1 NMatS0=      1 NMatT0=    0 NMatD0=    1 NMtDS0=    0 NMtDT0=    0
 Petite list used in FoFCou.
 Harris En= -114.544413858461    
 JPrj=0 DoOrth=F DoCkMO=F.
 Initial guess orbital symmetries:
       Occupied  (A1) (A1) (A1) (A1) (B2) (A1) (B1) (B2)
       Virtual   (B1) (A1) (A1) (B2) (B1) (A1) (B2) (A1) (B1) (B2)
                 (A1) (A1) (B2) (A1) (B1) (B2) (A1) (A1) (A2) (A1)
                 (B1) (B2) (B1) (A1) (A1) (B2) (B2) (A1) (B1) (A2)
                 (A1) (B2) (A1) (B2) (B1) (A1) (A2) (A1) (B1) (B2)
                 (A1) (A1) (B2) (B1) (B2) (A1) (A1) (A1)
 The electronic state of the initial guess is 1-A1.
 Leave Link  401 at Fri Sep 17 10:52:13 2021, MaxMem=   268435456 cpu:               0.3 elap:               0.3
 (Enter /software/gaussian/g16-a03/l502.exe)
 Keep R1 ints in memory in symmetry-blocked form, NReq=2159909.
 FoFCou: FMM=F IPFlag=           0 FMFlag=           0 FMFlg1=           0
         NFxFlg=           0 DoJE=F BraDBF=F KetDBF=F FulRan=T
         wScrn=  0.000000 ICntrl=       600 IOpCl=  0 I1Cent=           0 NGrid=           0
         NMat0=    1 NMatS0=   1596 NMatT0=    0 NMatD0=    1 NMtDS0=    0 NMtDT0=    0
 Petite list used in FoFCou.
 Closed shell SCF:
 Using DIIS extrapolation, IDIIS=  1040.
 NGot=   268435456 LenX=   268074384 LenY=   268070579
 Requested convergence on RMS density matrix=1.00D-08 within 128 cycles.
 Requested convergence on MAX density matrix=1.00D-06.
 Requested convergence on             energy=1.00D-06.
 No special actions if energy rises.

 Cycle   1  Pass 1  IDiag  1:
 E= -114.460750726433    
 DIIS: error= 4.50D-02 at cycle   1 NSaved=   1.
 NSaved= 1 IEnMin= 1 EnMin= -114.460750726433     IErMin= 1 ErrMin= 4.50D-02
 ErrMax= 4.50D-02  0.00D+00 EMaxC= 1.00D-01 BMatC= 9.54D-02 BMatP= 9.54D-02
 IDIUse=3 WtCom= 5.50D-01 WtEn= 4.50D-01
 Coeff-Com:  0.100D+01
 Coeff-En:   0.100D+01
 Coeff:      0.100D+01
 Gap=     0.183 Goal=   None    Shift=    0.000
 GapD=    0.183 DampG=1.000 DampE=0.500 DampFc=0.5000 IDamp=-1.
 Damping current iteration by 5.00D-01
 RMSDP=1.02D-02 MaxDP=1.07D-01              OVMax= 2.35D-01

 Cycle   2  Pass 1  IDiag  1:
 E= -114.470465507404     Delta-E=       -0.009714780971 Rises=F Damp=T
 DIIS: error= 2.40D-02 at cycle   2 NSaved=   2.
 NSaved= 2 IEnMin= 2 EnMin= -114.470465507404     IErMin= 2 ErrMin= 2.40D-02
 ErrMax= 2.40D-02  0.00D+00 EMaxC= 1.00D-01 BMatC= 1.64D-02 BMatP= 9.54D-02
 IDIUse=3 WtCom= 7.60D-01 WtEn= 2.40D-01
 Coeff-Com:  0.253D+00 0.747D+00
 Coeff-En:   0.432D+00 0.568D+00
 Coeff:      0.296D+00 0.704D+00
 Gap=     0.250 Goal=   None    Shift=    0.000
 RMSDP=2.26D-03 MaxDP=2.44D-02 DE=-9.71D-03 OVMax= 1.75D-01

 Cycle   3  Pass 1  IDiag  1:
 E= -114.522262880641     Delta-E=       -0.051797373237 Rises=F Damp=F
 DIIS: error= 9.44D-03 at cycle   3 NSaved=   3.
 NSaved= 3 IEnMin= 3 EnMin= -114.522262880641     IErMin= 3 ErrMin= 9.44D-03
 ErrMax= 9.44D-03  0.00D+00 EMaxC= 1.00D-01 BMatC= 3.77D-03 BMatP= 1.64D-02
 IDIUse=3 WtCom= 9.06D-01 WtEn= 9.44D-02
 Coeff-Com:  0.694D-01 0.338D+00 0.592D+00
 Coeff-En:   0.000D+00 0.000D+00 0.100D+01
 Coeff:      0.628D-01 0.306D+00 0.631D+00
 Gap=     0.233 Goal=   None    Shift=    0.000
 RMSDP=8.39D-04 MaxDP=1.95D-02 DE=-5.18D-02 OVMax= 3.02D-02

 Cycle   4  Pass 1  IDiag  1:
 E= -114.525223465765     Delta-E=       -0.002960585124 Rises=F Damp=F
 DIIS: error= 3.75D-03 at cycle   4 NSaved=   4.
 NSaved= 4 IEnMin= 4 EnMin= -114.525223465765     IErMin= 4 ErrMin= 3.75D-03
 ErrMax= 3.75D-03  0.00D+00 EMaxC= 1.00D-01 BMatC= 4.18D-04 BMatP= 3.77D-03
 IDIUse=3 WtCom= 9.62D-01 WtEn= 3.75D-02
 Coeff-Com: -0.247D-02 0.334D-01 0.272D+00 0.697D+00
 Coeff-En:   0.000D+00 0.000D+00 0.428D-01 0.957D+00
 Coeff:     -0.238D-02 0.321D-01 0.263D+00 0.707D+00
 Gap=     0.235 Goal=   None    Shift=    0.000
 RMSDP=2.42D-04 MaxDP=5.59D-03 DE=-2.96D-03 OVMax= 5.79D-03

 Cycle   5  Pass 1  IDiag  1:
 E= -114.525586517466     Delta-E=       -0.000363051701 Rises=F Damp=F
 DIIS: error= 2.57D-04 at cycle   5 NSaved=   5.
 NSaved= 5 IEnMin= 5 EnMin= -114.525586517466     IErMin= 5 ErrMin= 2.57D-04
 ErrMax= 2.57D-04  0.00D+00 EMaxC= 1.00D-01 BMatC= 2.29D-06 BMatP= 4.18D-04
 IDIUse=3 WtCom= 9.97D-01 WtEn= 2.57D-03
 Coeff-Com:  0.251D-03-0.339D-02 0.381D-01 0.133D+00 0.832D+00
 Coeff-En:   0.000D+00 0.000D+00 0.000D+00 0.000D+00 0.100D+01
 Coeff:      0.251D-03-0.339D-02 0.380D-01 0.133D+00 0.832D+00
 Gap=     0.235 Goal=   None    Shift=    0.000
 RMSDP=2.88D-05 MaxDP=2.61D-04 DE=-3.63D-04 OVMax= 5.79D-04

 Cycle   6  Pass 1  IDiag  1:
 E= -114.525588714288     Delta-E=       -0.000002196822 Rises=F Damp=F
 DIIS: error= 2.29D-05 at cycle   6 NSaved=   6.
 NSaved= 6 IEnMin= 6 EnMin= -114.525588714288     IErMin= 6 ErrMin= 2.29D-05
 ErrMax= 2.29D-05  0.00D+00 EMaxC= 1.00D-01 BMatC= 1.50D-08 BMatP= 2.29D-06
 IDIUse=1 WtCom= 1.00D+00 WtEn= 0.00D+00
 Coeff-Com:  0.234D-03-0.749D-03-0.132D-02-0.190D-02 0.128D-01 0.991D+00
 Coeff:      0.234D-03-0.749D-03-0.132D-02-0.190D-02 0.128D-01 0.991D+00
 Gap=     0.235 Goal=   None    Shift=    0.000
 RMSDP=2.97D-06 MaxDP=2.55D-05 DE=-2.20D-06 OVMax= 5.42D-05

 Cycle   7  Pass 1  IDiag  1:
 E= -114.525588727834     Delta-E=       -0.000000013547 Rises=F Damp=F
 DIIS: error= 2.10D-06 at cycle   7 NSaved=   7.
 NSaved= 7 IEnMin= 7 EnMin= -114.525588727834     IErMin= 7 ErrMin= 2.10D-06
 ErrMax= 2.10D-06  0.00D+00 EMaxC= 1.00D-01 BMatC= 1.93D-10 BMatP= 1.50D-08
 IDIUse=1 WtCom= 1.00D+00 WtEn= 0.00D+00
 Coeff-Com:  0.896D-05-0.112D-04-0.405D-03-0.173D-02-0.112D-01 0.936D-01
 Coeff-Com:  0.920D+00
 Coeff:      0.896D-05-0.112D-04-0.405D-03-0.173D-02-0.112D-01 0.936D-01
 Coeff:      0.920D+00
 Gap=     0.235 Goal=   None    Shift=    0.000
 RMSDP=1.87D-07 MaxDP=2.92D-06 DE=-1.35D-08 OVMax= 4.23D-06

 Cycle   8  Pass 1  IDiag  1:
 E= -114.525588727997     Delta-E=       -0.000000000163 Rises=F Damp=F
 DIIS: error= 7.33D-07 at cycle   8 NSaved=   8.
 NSaved= 8 IEnMin= 8 EnMin= -114.525588727997     IErMin= 8 ErrMin= 7.33D-07
 ErrMax= 7.33D-07  0.00D+00 EMaxC= 1.00D-01 BMatC= 1.11D-11 BMatP= 1.93D-10
 IDIUse=1 WtCom= 1.00D+00 WtEn= 0.00D+00
 Coeff-Com: -0.135D-05 0.434D-05 0.156D-04-0.129D-03-0.121D-02-0.742D-02
 Coeff-Com:  0.100D+00 0.909D+00
 Coeff:     -0.135D-05 0.434D-05 0.156D-04-0.129D-03-0.121D-02-0.742D-02
 Coeff:      0.100D+00 0.909D+00
 Gap=     0.235 Goal=   None    Shift=    0.000
 RMSDP=7.28D-08 MaxDP=6.50D-07 DE=-1.63D-10 OVMax= 1.07D-06

 Cycle   9  Pass 1  IDiag  1:
 E= -114.525588728006     Delta-E=       -0.000000000009 Rises=F Damp=F
 DIIS: error= 3.40D-08 at cycle   9 NSaved=   9.
 NSaved= 9 IEnMin= 9 EnMin= -114.525588728006     IErMin= 9 ErrMin= 3.40D-08
 ErrMax= 3.40D-08  0.00D+00 EMaxC= 1.00D-01 BMatC= 6.43D-14 BMatP= 1.11D-11
 IDIUse=1 WtCom= 1.00D+00 WtEn= 0.00D+00
 Coeff-Com: -0.302D-07 0.248D-06 0.351D-05-0.211D-05 0.188D-04-0.181D-02
 Coeff-Com: -0.356D-02 0.452D-01 0.960D+00
 Coeff:     -0.302D-07 0.248D-06 0.351D-05-0.211D-05 0.188D-04-0.181D-02
 Coeff:     -0.356D-02 0.452D-01 0.960D+00
 Gap=     0.235 Goal=   None    Shift=    0.000
 RMSDP=3.55D-09 MaxDP=6.32D-08 DE=-9.32D-12 OVMax= 6.56D-08

 SCF Done:  E(RB3LYP) =  -114.525588728     A.U. after    9 cycles
            NFock=  9  Conv=0.35D-08     -V/T= 1.9996
 KE= 1.145709546183D+02 PE=-3.357377680842D+02 EE= 7.338668105061D+01
 Leave Link  502 at Fri Sep 17 10:52:15 2021, MaxMem=   268435456 cpu:               1.6 elap:               2.0
 (Enter /software/gaussian/g16-a03/l801.exe)
 DoSCS=F DFT=T ScalE2(SS,OS)=  1.000000  1.000000
 ExpMin= 4.38D-02 ExpMax= 8.59D+03 ExpMxC= 1.30D+03 IAcc=3 IRadAn=         5 AccDes= 0.00D+00
 HarFok:  IExCor=  205 AccDes= 0.00D+00 IRadAn=         5 IDoV=-2 UseB2=F ITyADJ=14
 ICtDFT= 12500011 ScaDFX=  1.000000  1.000000  1.000000  1.000000
 Largest valence mixing into a core orbital is  4.32D-05
 Largest core mixing into a valence orbital is  8.82D-06
 Range of M.O.s used for correlation:     3    56
 NBasis=    56 NAE=     8 NBE=     8 NFC=     2 NFV=     0
 NROrb=     54 NOA=     6 NOB=     6 NVA=    48 NVB=    48
 Leave Link  801 at Fri Sep 17 10:52:15 2021, MaxMem=   268435456 cpu:               0.2 elap:               0.2
 (Enter /software/gaussian/g16-a03/l914.exe)
 RHF ground state
 Keep R1, R2, and R3 ints in memory in symmetry-blocked form, NReq=6042848.
 FoFCou: FMM=F IPFlag=           0 FMFlag=           0 FMFlg1=           0
         NFxFlg=           0 DoJE=F BraDBF=F KetDBF=F FulRan=T
         wScrn=  0.000000 ICntrl=       600 IOpCl=  0 I1Cent=           0 NGrid=           0
         NMat0=    1 NMatS0=   1596 NMatT0=    0 NMatD0=    1 NMtDS0=    0 NMtDT0=    0
 Petite list used in FoFCou.
 MDV=   268435456 DFT=T DoStab=F Mixed=T DoRPA=T DoScal=F NonHer=T
 Making orbital integer symmetry assigments:
 Orbital symmetries:
       Occupied  (A1) (A1) (A1) (A1) (B2) (A1) (B1) (B2)
       Virtual   (B1) (A1) (A1) (B2) (B1) (A1) (A1) (B2) (B1) (B2)
                 (A1) (A1) (A1) (B2) (B1) (B2) (A1) (A1) (A2) (A1)
                 (B1) (B2) (B1) (A1) (A1) (B2) (B2) (B1) (A1) (A2)
                 (A1) (B2) (A1) (B2) (A1) (B1) (A2) (A1) (B1) (B2)
                 (A1) (A1) (B2) (B1) (B2) (A1) (A1) (A1)
   120 initial guesses have been made.
 Convergence on wavefunction:    0.001000000000000
 Davidson Disk Diagonalization:  ConvIn= 1.00D-03 SkipCon=T Conv= 1.00D-03.
 Max sub-space:  1728 roots to seek:   120 dimension of matrix:          576
 Iteration     1 Dimension   120 NMult     0 NNew    120
 CISAX will form   120 AO SS matrices at one time.
 NMat=   120 NSing=   120 JSym2X=-1.
 New state      6 was old state      8
 New state      7 was old state      6
 New state      8 was old state      7
 New state     10 was old state     12
 New state     11 was old state     10
 New state     12 was old state     16
 New state     13 was old state     14
 New state     14 was old state     13
 New state     16 was old state     17
 New state     17 was old state     11
 New state     18 was old state     19
 New state     19 was old state     18
 New state     25 was old state     26
 New state     26 was old state     25
 New state     27 was old state     28
 New state     28 was old state     30
 New state     29 was old state     27
 New state     30 was old state     29
 Excitation Energies [eV] at current iteration:
 Root      1 :     4.515761287017202
 Root      2 :     6.686763267215527
 Root      3 :     7.486062130671522
 Root      4 :     7.641050661549361
 Root      5 :     8.141147080003426
 Root      6 :    10.308975488142670
 Root      7 :    10.320790569544390
 Root      8 :    10.735500339634180
 Root      9 :    11.140812595672360
 Root     10 :    11.261185287876920
 Root     11 :    11.374946576944300
 Root     12 :    12.122647706272580
 Root     13 :    12.216502427482860
 Root     14 :    12.249951375302460
 Root     15 :    12.287130742612710
 Root     16 :    12.577828574007900
 Root     17 :    12.829905198170090
 Root     18 :    13.121550492267700
 Root     19 :    13.180694449666910
 Root     20 :    13.226441150263340
 Root     21 :    13.491588524512700
 Root     22 :    13.607390821427310
 Root     23 :    13.777852123986760
 Root     24 :    14.391065523077200
 Root     25 :    14.487496233120550
 Root     26 :    14.711855788296620
 Root     27 :    14.945902063942390
 Root     28 :    15.483895386369590
 Root     29 :    15.516648211941870
 Root     30 :    15.556166597968570
 Root     31 :    15.889439008832360
 Root     32 :    16.103460191924890
 Root     33 :    16.651397051590300
 Root     34 :    16.680448660159000
 Root     35 :    16.807565480018480
 Root     36 :    16.924905793305980
 Root     37 :    17.078656455403490
 Root     38 :    17.239256549656980
 Root     39 :    17.426812302536980
 Root     40 :    17.487594313529020
 Root     41 :    17.583179352917050
 Root     42 :    17.998220721709720
 Root     43 :    18.049289652825380
 Root     44 :    18.198249591594800
 Root     45 :    18.378460660398460
 Root     46 :    18.596863456645260
 Root     47 :    19.045416447582030
 Root     48 :    19.308695934516840
 Root     49 :    19.553266627006800
 Root     50 :    19.617094825612190
 Root     51 :    19.681294014275680
 Root     52 :    20.082309192660900
 Root     53 :    20.164191712547820
 Root     54 :    20.314771396259320
 Root     55 :    20.539568582119980
 Root     56 :    21.168540346889370
 Root     57 :    21.176971116000720
 Root     58 :    21.812134443638480
 Root     59 :    22.067493342093230
 Root     60 :    22.280268052994070
 Root     61 :    22.573302751831960
 Root     62 :    23.173770022647510
 Root     63 :    23.649109309532940
 Root     64 :    23.686998566644540
 Root     65 :    23.791023886165740
 Root     66 :    23.922311705319680
 Root     67 :    24.830402218861540
 Root     68 :    24.992669167049380
 Root     69 :    25.248370838984670
 Root     70 :    25.339595486217270
 Root     71 :    25.650996853391870
 Root     72 :    26.255307755682830
 Root     73 :    26.275665492806660
 Root     74 :    26.556468058731020
 Root     75 :    27.448088124020180
 Root     76 :    27.837433579712290
 Root     77 :    28.335703917527610
 Root     78 :    28.529238377447690
 Root     79 :    29.140531090670270
 Root     80 :    29.188029268903700
 Root     81 :    29.368140080335660
 Root     82 :    29.512926066764860
 Root     83 :    29.582645967438310
 Root     84 :    29.950715014854560
 Root     85 :    30.198329015475750
 Root     86 :    30.865078535464760
 Root     87 :    30.916244261726770
 Root     88 :    31.337317143622160
 Root     89 :    31.482593454448210
 Root     90 :    32.734569318553390
 Root     91 :    33.113058247788710
 Root     92 :    33.339789933424930
 Root     93 :    33.659944040255650
 Root     94 :    33.826362834361920
 Root     95 :    33.961501455174430
 Root     96 :    34.482964470447210
 Root     97 :    34.523487973742090
 Root     98 :    34.678032745872110
 Root     99 :    35.184048529416360
 Root    100 :    35.631148025816860
 Root    101 :    35.797131238478730
 Root    102 :    36.155391626730210
 Root    103 :    36.706849408057200
 Root    104 :    36.950756192387320
 Root    105 :    38.204115194918460
 Root    106 :    38.243788022819740
 Root    107 :    38.531417939797090
 Root    108 :    38.625936528867190
 Root    109 :    38.907886012383180
 Root    110 :    38.954426985683950
 Root    111 :    39.205126884259950
 Root    112 :    39.880597884805380
 Root    113 :    39.972266694976180
 Root    114 :    40.641125664933020
 Root    115 :    40.958429768655820
 Root    116 :    40.975357788733260
 Root    117 :    41.116012805908300
 Root    118 :    41.119639592568720
 Root    119 :    42.236023180681640
 Root    120 :    47.272664130311730
 Iteration     2 Dimension   180 NMult   120 NNew     60
 CISAX will form    60 AO SS matrices at one time.
 NMat=    60 NSing=    60 JSym2X=-1.
 Root      1 not converged, maximum delta is    0.005679519704727
 Root      2 not converged, maximum delta is    0.003394731838517
 Root      3 not converged, maximum delta is    0.002831802406209
 Root      4 not converged, maximum delta is    0.003163024239461
 Root      5 not converged, maximum delta is    0.001740097286108
 Root      6 not converged, maximum delta is    0.012158828995969
 Root      7 not converged, maximum delta is    0.005644038671825
 Root      8 not converged, maximum delta is    0.017253935683577
 Root      9 not converged, maximum delta is    0.002373237612967
 Root     10 not converged, maximum delta is    0.009569465407161
 Root     11 not converged, maximum delta is    0.001708008587282
 Root     12 not converged, maximum delta is    0.001341019816844
 Root     13 not converged, maximum delta is    0.029277662709598
 Root     14 not converged, maximum delta is    0.004693238014047
 Root     15 not converged, maximum delta is    0.001879900297532
 Root     16 not converged, maximum delta is    0.058362975899214
 Root     17 not converged, maximum delta is    0.055541791211078
 Root     18 not converged, maximum delta is    0.197899659073764
 Root     19 not converged, maximum delta is    0.162710793404350
 Root     20 not converged, maximum delta is    0.011198674575542
 Root     21 not converged, maximum delta is    0.015132671640184
 Root     22 not converged, maximum delta is    0.015214928388855
 Root     23 not converged, maximum delta is    0.007109853642601
 Root     24 not converged, maximum delta is    0.005455514289053
 Root     25 not converged, maximum delta is    0.013510354175190
 Root     26 not converged, maximum delta is    0.010904193995231
 Root     27 not converged, maximum delta is    0.002388663567203
 New state     28 was old state     29
 Root     28 not converged, maximum delta is    0.088108016138360
 New state     29 was old state     28
 Root     29 not converged, maximum delta is    0.010286159676790
 Root     30 not converged, maximum delta is    0.004540226218712
 Excitation Energies [eV] at current iteration:
 Root      1 :     4.501812699454057   Change is   -0.013948587563146
 Root      2 :     6.684419556341626   Change is   -0.002343710873901
 Root      3 :     7.479855243478196   Change is   -0.006206887193325
 Root      4 :     7.638316590706262   Change is   -0.002734070843099
 Root      5 :     8.140353736721748   Change is   -0.000793343281678
 Root      6 :    10.237470152860530   Change is   -0.071505335282141
 Root      7 :    10.308743185622790   Change is   -0.012047383921599
 Root      8 :    10.677599157204890   Change is   -0.057901182429290
 Root      9 :    11.138595623760310   Change is   -0.002216971912056
 Root     10 :    11.249687652381050   Change is   -0.011497635495866
 Root     11 :    11.374102488208910   Change is   -0.000844088735395
 Root     12 :    12.121736766329270   Change is   -0.000910939943308
 Root     13 :    12.191816425819870   Change is   -0.024686001662994
 Root     14 :    12.244381743705960   Change is   -0.005569631596496
 Root     15 :    12.286595293117520   Change is   -0.000535449495191
 Root     16 :    12.557908388422060   Change is   -0.019920185585835
 Root     17 :    12.794695992959850   Change is   -0.035209205210240
 Root     18 :    13.108738939700950   Change is   -0.012811552566754
 Root     19 :    13.138034462064060   Change is   -0.042659987602850
 Root     20 :    13.221571606736980   Change is   -0.004869543526367
 Root     21 :    13.486874423655830   Change is   -0.004714100856876
 Root     22 :    13.594051314642010   Change is   -0.013339506785292
 Root     23 :    13.772354627728260   Change is   -0.005497496258500
 Root     24 :    14.385342974741030   Change is   -0.005722548336165
 Root     25 :    14.480748897163170   Change is   -0.006747335957384
 Root     26 :    14.691003717598440   Change is   -0.020852070698178
 Root     27 :    14.945014142640830   Change is   -0.000887921301553
 Root     28 :    15.429083250995450   Change is   -0.087564960946414
 Root     29 :    15.465499100725100   Change is   -0.018396285644489
 Root     30 :    15.550408715607790   Change is   -0.005757882360779
 Iteration     3 Dimension   238 NMult   180 NNew     58
 CISAX will form    58 AO SS matrices at one time.
 NMat=    58 NSing=    58 JSym2X=-1.
 Root      1 has converged.
 Root      2 has converged.
 Root      3 has converged.
 Root      4 has converged.
 Root      5 has converged.
 Root      6 has converged.
 Root      7 has converged.
 Root      8 has converged.
 Root      9 has converged.
 Root     10 has converged.
 Root     11 has converged.
 Root     12 has converged.
 Root     13 has converged.
 Root     14 has converged.
 Root     15 has converged.
 Root     16 has converged.
 Root     17 has converged.
 Root     18 has converged.
 Root     19 has converged.
 Root     20 has converged.
 Root     21 has converged.
 Root     22 has converged.
 Root     23 has converged.
 Root     24 has converged.
 Root     25 has converged.
 Root     26 has converged.
 Root     27 has converged.
 Root     28 has converged.
 Root     29 has converged.
 Root     30 has converged.
 Excitation Energies [eV] at current iteration:
 Root      1 :     4.501809958090131   Change is   -0.000002741363925
 Root      2 :     6.684417554201890   Change is   -0.000002002139735
 Root      3 :     7.479852172673707   Change is   -0.000003070804490
 Root      4 :     7.638314868641861   Change is   -0.000001722064401
 Root      5 :     8.140353614916679   Change is   -0.000000121805069
 Root      6 :    10.237336392030430   Change is   -0.000133760830101
 Root      7 :    10.308737585240740   Change is   -0.000005600382050
 Root      8 :    10.677549440337720   Change is   -0.000049716867170
 Root      9 :    11.138591443367320   Change is   -0.000004180392990
 Root     10 :    11.249667790670250   Change is   -0.000019861710808
 Root     11 :    11.374101331547160   Change is   -0.000001156661751
 Root     12 :    12.121736155023540   Change is   -0.000000611305726
 Root     13 :    12.191769579068900   Change is   -0.000046846750974
 Root     14 :    12.244369577153500   Change is   -0.000012166552460
 Root     15 :    12.286594801699450   Change is   -0.000000491418069
 Root     16 :    12.557867625970380   Change is   -0.000040762451679
 Root     17 :    12.794638365851720   Change is   -0.000057627108127
 Root     18 :    13.108714691516380   Change is   -0.000024248184570
 Root     19 :    13.137956716621800   Change is   -0.000077745442265
 Root     20 :    13.221562858426970   Change is   -0.000008748310004
 Root     21 :    13.486864343140390   Change is   -0.000010080515431
 Root     22 :    13.594035089908520   Change is   -0.000016224733496
 Root     23 :    13.772340289292330   Change is   -0.000014338435934
 Root     24 :    14.385332087544480   Change is   -0.000010887196547
 Root     25 :    14.480729220304390   Change is   -0.000019676858781
 Root     26 :    14.690969672353030   Change is   -0.000034045245410
 Root     27 :    14.945011635124010   Change is   -0.000002507516825
 Root     28 :    15.428963766766730   Change is   -0.000119484228724
 Root     29 :    15.465466480546150   Change is   -0.000032620178952
 Root     30 :    15.550393992026920   Change is   -0.000014723580868
 Convergence achieved on expansion vectors.
 ***********************************************************************
 Excited states from <AA,BB:AA,BB> singles matrix:
 ***********************************************************************
 
 1PDM for each excited state written to RWF  633
 Ground to excited state transition densities written to RWF  633
 Ground to excited state transition electric dipole moments (Au):
       state          X           Y           Z        Dip. S.      Osc.
         1        -0.0000     -0.0000      0.0000      0.0000      0.0000
         2         0.0000      0.5304      0.0000      0.2813      0.0461
         3         0.0000      0.3484      0.0000      0.1214      0.0222
         4        -0.0000     -0.0000     -0.5354      0.2866      0.0536
         5        -0.0000      0.0000     -0.0000      0.0000      0.0000
         6         0.0379     -0.0000     -0.0000      0.0014      0.0004
         7         0.0000      0.8195      0.0000      0.6716      0.1696
         8        -0.0000     -0.0000      0.4372      0.1911      0.0500
         9         0.0000     -0.0524     -0.0000      0.0027      0.0007
        10         0.0000      0.0000     -0.0000      0.0000      0.0000
        11        -0.3854     -0.0000      0.0000      0.1485      0.0414
        12         0.0000     -0.0000      0.0000      0.0000      0.0000
        13         0.0000     -0.0000     -0.5111      0.2612      0.0780
        14         0.3202      0.0000      0.0000      0.1025      0.0308
        15        -0.0000     -0.0000     -0.0000      0.0000      0.0000
        16         0.0000      0.0000     -0.2620      0.0687      0.0211
        17        -0.0000      0.0000     -1.0234      1.0474      0.3283
        18         0.0000     -0.0000     -0.7967      0.6347      0.2039
        19         0.0000     -0.0000      0.0976      0.0095      0.0031
        20        -0.0000     -0.3783      0.0000      0.1431      0.0464
        21         0.0000     -0.4967     -0.0000      0.2467      0.0815
        22        -0.0000     -0.4087      0.0000      0.1670      0.0556
        23        -0.2619      0.0000      0.0000      0.0686      0.0231
        24         0.0000      0.2478      0.0000      0.0614      0.0216
        25         0.0414     -0.0000     -0.0000      0.0017      0.0006
        26         0.0000     -0.0000     -0.1289      0.0166      0.0060
        27        -0.0000      0.0000      0.0000      0.0000      0.0000
        28        -0.5867     -0.0000      0.0000      0.3442      0.1301
        29         0.0000     -0.2508     -0.0000      0.0629      0.0238
        30         0.0000     -0.0000      0.1371      0.0188      0.0072
 Ground to excited state transition velocity dipole moments (Au):
       state          X           Y           Z        Dip. S.      Osc.
         1         0.0000      0.0000     -0.0000      0.0000      0.0000
         2        -0.0000     -0.1298      0.0000      0.0169      0.0457
         3        -0.0000     -0.1003      0.0000      0.0101      0.0244
         4         0.0000      0.0000      0.1455      0.0212      0.0503
         5         0.0000     -0.0000      0.0000      0.0000      0.0000
         6        -0.0251      0.0000      0.0000      0.0006      0.0011
         7        -0.0000     -0.3095     -0.0000      0.0958      0.1685
         8        -0.0000     -0.0000     -0.1623      0.0263      0.0447
         9        -0.0000     -0.0075      0.0000      0.0001      0.0001
        10        -0.0000      0.0000      0.0000      0.0000      0.0000
        11         0.1645      0.0000      0.0000      0.0271      0.0431
        12        -0.0000      0.0000     -0.0000      0.0000      0.0000
        13        -0.0000     -0.0000      0.2286      0.0523      0.0778
        14        -0.1533     -0.0000     -0.0000      0.0235      0.0348
        15         0.0000     -0.0000      0.0000      0.0000      0.0000
        16        -0.0000     -0.0000      0.1143      0.0131      0.0189
        17         0.0000     -0.0000      0.4777      0.2282      0.3235
        18         0.0000      0.0000      0.3900      0.1521      0.2104
        19        -0.0000     -0.0000     -0.0502      0.0025      0.0035
        20         0.0000      0.1824      0.0000      0.0333      0.0456
        21        -0.0000      0.2418      0.0000      0.0585      0.0786
        22         0.0000      0.2154     -0.0000      0.0464      0.0619
        23         0.1264     -0.0000     -0.0000      0.0160      0.0211
        24        -0.0000     -0.1347     -0.0000      0.0182      0.0229
        25        -0.0023      0.0000     -0.0000      0.0000      0.0000
        26        -0.0000      0.0000      0.0766      0.0059      0.0072
        27         0.0000     -0.0000     -0.0000      0.0000      0.0000
        28         0.3357      0.0000     -0.0000      0.1127      0.1325
        29        -0.0000      0.1458      0.0000      0.0213      0.0249
        30         0.0000      0.0000     -0.0791      0.0063      0.0073
 Ground to excited state transition magnetic dipole moments (Au):
       state          X           Y           Z
         1         0.0000     -0.0000      1.2666
         2        -0.4376     -0.0000      0.0000
         3         0.7585      0.0000     -0.0000
         4        -0.0000      0.0000      0.0000
         5        -0.0000      0.0000     -0.0920
         6         0.0000     -1.4675      0.0000
         7        -0.9003     -0.0000     -0.0000
         8        -0.0000      0.0000     -0.0000
         9         0.6627     -0.0000     -0.0000
        10        -0.0000      0.0000     -0.5531
        11         0.0000     -0.0314     -0.0000
        12         0.0000      0.0000      0.0715
        13         0.0000      0.0000      0.0000
        14        -0.0000      0.0140      0.0000
        15        -0.0000     -0.0000      0.0410
        16        -0.0000     -0.0000     -0.0000
        17         0.0000      0.0000     -0.0000
        18        -0.0000      0.0000      0.0000
        19         0.0000     -0.0000      0.0000
        20        -0.2718      0.0000     -0.0000
        21         0.3949     -0.0000     -0.0000
        22        -0.5784      0.0000      0.0000
        23         0.0000      0.4779      0.0000
        24        -0.2915     -0.0000      0.0000
        25         0.0000     -0.2851      0.0000
        26         0.0000      0.0000      0.0000
        27         0.0000     -0.0000      0.0608
        28         0.0000     -0.4026     -0.0000
        29         0.8121      0.0000      0.0000
        30        -0.0000      0.0000     -0.0000
 Ground to excited state transition velocity quadrupole moments (Au):
       state          XX          YY          ZZ          XY          XZ          YZ
         1        -0.0000      0.0000      0.0000     -0.1288     -0.0000     -0.0000
         2         0.0000     -0.0000     -0.0000      0.0000      0.0000      0.5285
         3         0.0000     -0.0000     -0.0000      0.0000      0.0000      0.0944
         4        -0.0993     -0.4553     -0.2483     -0.0000      0.0000     -0.0000
         5        -0.0000     -0.0000     -0.0000     -0.1159     -0.0000      0.0000
         6         0.0000      0.0000      0.0000      0.0000     -0.4131     -0.0000
         7         0.0000     -0.0000      0.0000      0.0000     -0.0000      0.7013
         8         0.2849     -0.2495     -0.4779      0.0000      0.0000      0.0000
         9        -0.0000     -0.0000     -0.0000      0.0000     -0.0000      0.3205
        10         0.0000      0.0000      0.0000      0.2603      0.0000     -0.0000
        11         0.0000      0.0000      0.0000      0.0000     -0.0711     -0.0000
        12         0.0000      0.0000      0.0000      0.2984     -0.0000     -0.0000
        13        -0.0715     -0.3386     -0.1116     -0.0000      0.0000     -0.0000
        14         0.0000      0.0000      0.0000      0.0000     -0.2772      0.0000
        15        -0.0000     -0.0000     -0.0000      0.2474      0.0000      0.0000
        16         0.1692      0.4657      0.3196     -0.0000     -0.0000      0.0000
        17        -0.4219     -0.7888     -0.7884      0.0000     -0.0000     -0.0000
        18         0.6292     -0.0759     -0.0463     -0.0000      0.0000     -0.0000
        19         0.0401     -0.4047     -0.0862     -0.0000     -0.0000     -0.0000
        20        -0.0000     -0.0000     -0.0000      0.0000      0.0000     -0.0678
        21         0.0000      0.0000     -0.0000      0.0000     -0.0000     -0.5029
        22         0.0000     -0.0000      0.0000     -0.0000      0.0000      0.1158
        23         0.0000      0.0000      0.0000     -0.0000      0.1263     -0.0000
        24         0.0000      0.0000      0.0000     -0.0000     -0.0000     -0.3402
        25        -0.0000     -0.0000      0.0000     -0.0000     -0.0655      0.0000
        26         0.3212      0.8450      0.1186      0.0000     -0.0000      0.0000
        27        -0.0000     -0.0000     -0.0000      0.3031     -0.0000     -0.0000
        28        -0.0000      0.0000     -0.0000     -0.0000     -0.3844      0.0000
        29        -0.0000     -0.0000     -0.0000      0.0000      0.0000      0.0345
        30        -0.2084      0.4415     -0.1256      0.0000      0.0000      0.0000
 <0|del|b> * <b|rxdel|0> + <0|del|b> * <b|delr+rdel|0>
 Rotatory Strengths (R) in cgs (10**-40 erg-esu-cm/Gauss)
       state          XX          YY          ZZ    R(velocity)    E-M Angle
         1        -0.0000     -0.0000      0.0000     -0.0000       90.00
         2         0.0000     -0.0000      0.0000      0.0000       90.00
         3        -0.0000     -0.0000     -0.0000     -0.0000       90.00
         4        -0.0000      0.0000      0.0000      0.0000       90.00
         5        -0.0000      0.0000     -0.0000     -0.0000       90.00
         6        -0.0000     -0.0000     -0.0000     -0.0000       90.00
         7         0.0000      0.0000      0.0000      0.0000       90.00
         8        -0.0000      0.0000      0.0000      0.0000       90.00
         9         0.0000     -0.0000     -0.0000     -0.0000       90.00
        10        -0.0000     -0.0000      0.0000     -0.0000       90.00
        11         0.0000      0.0000      0.0000      0.0000       90.00
        12        -0.0000      0.0000     -0.0000     -0.0000       90.00
        13        -0.0000      0.0000     -0.0000      0.0000       90.00
        14        -0.0000      0.0000      0.0000      0.0000       90.00
        15         0.0000     -0.0000     -0.0000      0.0000       90.00
        16        -0.0000     -0.0000      0.0000     -0.0000       90.00
        17         0.0000     -0.0000      0.0000     -0.0000       90.00
        18        -0.0000      0.0000      0.0000      0.0000       90.00
        19         0.0000     -0.0000     -0.0000     -0.0000       90.00
        20        -0.0000     -0.0000     -0.0000     -0.0000       90.00
        21        -0.0000      0.0000     -0.0000     -0.0000       90.00
        22         0.0000     -0.0000     -0.0000     -0.0000       90.00
        23        -0.0000      0.0000      0.0000      0.0000       90.00
        24         0.0000      0.0000      0.0000      0.0000       90.00
        25        -0.0000     -0.0000     -0.0000     -0.0000       90.00
        26         0.0000     -0.0000      0.0000      0.0000       90.00
        27        -0.0000      0.0000      0.0000     -0.0000       90.00
        28        -0.0000      0.0000      0.0000      0.0000       90.00
        29        -0.0000     -0.0000     -0.0000     -0.0000       90.00
        30        -0.0000      0.0000     -0.0000      0.0000       90.00
 1/2[<0|r|b>*<b|rxdel|0> + (<0|rxdel|b>*<b|r|0>)*]
 Rotatory Strengths (R) in cgs (10**-40 erg-esu-cm/Gauss)
       state          XX          YY          ZZ     R(length)
         1         0.0000     -0.0000     -0.0000     -0.0000
         2         0.0000      0.0000     -0.0000      0.0000
         3        -0.0000     -0.0000      0.0000     -0.0000
         4        -0.0000      0.0000      0.0000      0.0000
         5        -0.0000     -0.0000     -0.0000     -0.0000
         6        -0.0000     -0.0000      0.0000     -0.0000
         7         0.0000      0.0000      0.0000      0.0000
         8        -0.0000      0.0000      0.0000      0.0000
         9        -0.0000     -0.0000     -0.0000     -0.0000
        10         0.0000     -0.0000     -0.0000     -0.0000
        11         0.0000     -0.0000      0.0000      0.0000
        12        -0.0000      0.0000     -0.0000     -0.0000
        13        -0.0000      0.0000      0.0000      0.0000
        14         0.0000     -0.0000     -0.0000      0.0000
        15        -0.0000     -0.0000      0.0000      0.0000
        16         0.0000      0.0000     -0.0000     -0.0000
        17         0.0000     -0.0000     -0.0000     -0.0000
        18         0.0000      0.0000      0.0000      0.0000
        19        -0.0000     -0.0000     -0.0000     -0.0000
        20        -0.0000      0.0000      0.0000      0.0000
        21        -0.0000     -0.0000     -0.0000     -0.0000
        22        -0.0000      0.0000     -0.0000     -0.0000
        23         0.0000     -0.0000     -0.0000      0.0000
        24         0.0000      0.0000     -0.0000      0.0000
        25        -0.0000     -0.0000      0.0000     -0.0000
        26        -0.0000      0.0000      0.0000      0.0000
        27         0.0000      0.0000     -0.0000     -0.0000
        28         0.0000     -0.0000      0.0000      0.0000
        29        -0.0000      0.0000      0.0000     -0.0000
        30         0.0000      0.0000      0.0000      0.0000
  1/2[<0|del|b>*<b|r|0> + (<0|r|b>*<b|del|0>)*] (Au)
       state          X           Y           Z        Dip. S.   Osc.(frdel)
         1        -0.0000     -0.0000     -0.0000      0.0000      0.0000
         2        -0.0000     -0.0689      0.0000      0.0689      0.0459
         3        -0.0000     -0.0350      0.0000      0.0350      0.0233
         4        -0.0000     -0.0000     -0.0779      0.0779      0.0519
         5        -0.0000     -0.0000     -0.0000      0.0000      0.0000
         6        -0.0010     -0.0000     -0.0000      0.0010      0.0006
         7        -0.0000     -0.2536     -0.0000      0.2536      0.1691
         8         0.0000      0.0000     -0.0709      0.0709      0.0473
         9        -0.0000      0.0004     -0.0000     -0.0004     -0.0003
        10        -0.0000      0.0000     -0.0000     -0.0000     -0.0000
        11        -0.0634     -0.0000      0.0000      0.0634      0.0423
        12        -0.0000     -0.0000     -0.0000      0.0000      0.0000
        13        -0.0000      0.0000     -0.1168      0.1168      0.0779
        14        -0.0491     -0.0000     -0.0000      0.0491      0.0327
        15        -0.0000      0.0000     -0.0000      0.0000      0.0000
        16        -0.0000     -0.0000     -0.0299      0.0299      0.0200
        17        -0.0000     -0.0000     -0.4889      0.4889      0.3259
        18         0.0000     -0.0000     -0.3107      0.3107      0.2071
        19        -0.0000      0.0000     -0.0049      0.0049      0.0033
        20        -0.0000     -0.0690      0.0000      0.0690      0.0460
        21        -0.0000     -0.1201     -0.0000      0.1201      0.0801
        22        -0.0000     -0.0880     -0.0000      0.0880      0.0587
        23        -0.0331     -0.0000     -0.0000      0.0331      0.0221
        24        -0.0000     -0.0334     -0.0000      0.0334      0.0223
        25        -0.0001     -0.0000      0.0000      0.0001      0.0001
        26        -0.0000     -0.0000     -0.0099      0.0099      0.0066
        27        -0.0000     -0.0000     -0.0000      0.0000      0.0000
        28        -0.1969     -0.0000     -0.0000      0.1969      0.1313
        29        -0.0000     -0.0366     -0.0000      0.0366      0.0244
        30         0.0000     -0.0000     -0.0108      0.0108      0.0072

 Excitation energies and oscillator strengths:
 
 Excited State   1:      Singlet-A2     4.5018 eV  275.41 nm  f=0.0000  <S**2>=0.000
       3 -> 27         0.00279
       3 -> 38         0.00236
       3 -> 45         0.00213
       4 -> 27         0.00242
       4 -> 38        -0.00068
       4 -> 45        -0.00115
       5 ->  9         0.02067
       5 -> 13        -0.00578
       5 -> 17         0.00606
       5 -> 23        -0.00146
       5 -> 29         0.00409
       5 -> 31         0.00285
       5 -> 36         0.00387
       5 -> 44         0.00068
       5 -> 47         0.00014
       5 -> 52         0.00084
       6 -> 27         0.00023
       6 -> 38        -0.00072
       6 -> 45         0.00172
       7 -> 12        -0.00062
       7 -> 16         0.00219
       7 -> 18        -0.00224
       7 -> 22         0.00122
       7 -> 24         0.00133
       7 -> 30        -0.00079
       7 -> 34         0.00039
       7 -> 35         0.00041
       7 -> 40        -0.00037
       7 -> 48         0.00052
       7 -> 51         0.00024
       7 -> 53         0.00043
       8 ->  9         0.70361
       8 -> 13        -0.06407
       8 -> 17         0.02427
       8 -> 23        -0.01163
       8 -> 29         0.00777
       8 -> 31         0.00330
       8 -> 36        -0.00084
       8 -> 44        -0.00020
       8 -> 47        -0.00021
       8 -> 52         0.00149
       3 <- 27         0.00189
       3 <- 38         0.00199
       3 <- 45         0.00222
       4 <- 27         0.00323
       4 <- 38        -0.00010
       4 <- 45        -0.00101
       5 <-  9        -0.00012
       5 <- 13        -0.00090
       5 <- 17        -0.00081
       5 <- 23         0.00054
       5 <- 29        -0.00053
       5 <- 31        -0.00105
       5 <- 36         0.00177
       5 <- 44         0.00033
       5 <- 47         0.00017
       5 <- 52         0.00022
       6 <- 27         0.00071
       6 <- 38        -0.00067
       6 <- 45         0.00133
       7 <- 12        -0.00093
       7 <- 16        -0.00601
       7 <- 18        -0.00076
       7 <- 22         0.00688
       7 <- 24        -0.00055
       7 <- 30         0.00273
       7 <- 34        -0.00133
       7 <- 35         0.00254
       7 <- 40        -0.00101
       7 <- 42         0.00028
       7 <- 48         0.00035
       7 <- 51         0.00012
       7 <- 53         0.00116
       8 <-  9        -0.01945
       8 <- 13         0.00440
       8 <- 17        -0.00395
       8 <- 23         0.00077
       8 <- 29        -0.00064
       8 <- 31         0.00139
       8 <- 36        -0.00183
       8 <- 52         0.00044
 This state for optimization and/or second-order correction.
 Total Energy, E(TD-HF/TD-DFT) =  -114.360150256    
 Copying the excited state density for this state as the 1-particle RhoCI density.
 
 Excited State   2:      Singlet-B2     6.6844 eV  185.48 nm  f=0.0461  <S**2>=0.000
       3 -> 12         0.00129
       3 -> 16         0.00066
       3 -> 18         0.00112
       3 -> 22        -0.00026
       3 -> 24         0.00131
       3 -> 30        -0.00011
       3 -> 34         0.00012
       3 -> 35        -0.00029
       4 -> 12        -0.00406
       4 -> 16         0.00133
       4 -> 18         0.00230
       4 -> 22        -0.00335
       4 -> 24         0.00369
       4 -> 34        -0.00071
       4 -> 35         0.00077
       4 -> 40        -0.00050
       5 -> 10        -0.00398
       5 -> 11        -0.00931
       5 -> 14         0.00687
       5 -> 15        -0.00115
       5 -> 19         0.00235
       5 -> 20         0.00067
       5 -> 21         0.00503
       5 -> 26         0.00257
       5 -> 28         0.00189
       5 -> 32         0.00017
       5 -> 33        -0.00100
       5 -> 37        -0.00032
       5 -> 39        -0.00031
       5 -> 41        -0.00015
       5 -> 43        -0.00056
       5 -> 46        -0.00049
       5 -> 49         0.00013
       6 -> 12         0.00093
       6 -> 16         0.00126
       6 -> 18         0.00320
       6 -> 22        -0.00271
       6 -> 24         0.00154
       6 -> 30        -0.00038
       6 -> 34        -0.00016
       6 -> 35         0.00015
       6 -> 40         0.00021
       6 -> 42        -0.00025
       6 -> 48         0.00040
       6 -> 51        -0.00046
       7 -> 27         0.00039
       7 -> 38        -0.00036
       7 -> 45         0.00064
       8 -> 10         0.70436
       8 -> 11        -0.05683
       8 -> 14         0.00508
       8 -> 15        -0.00860
       8 -> 19         0.01621
       8 -> 20         0.01142
       8 -> 21        -0.00438
       8 -> 25         0.00064
       8 -> 26         0.00166
       8 -> 28         0.00059
       8 -> 33         0.00216
       8 -> 37         0.00049
       8 -> 39         0.00048
       8 -> 41        -0.00015
       8 -> 43         0.00068
       8 -> 46        -0.00081
       8 -> 54         0.00017
       3 <- 12         0.00034
       3 <- 16         0.00052
       3 <- 18         0.00046
       3 <- 22        -0.00037
       3 <- 24         0.00083
       3 <- 30        -0.00011
       3 <- 34         0.00010
       3 <- 35        -0.00028
       4 <- 12         0.00062
       4 <- 16         0.00167
       4 <- 18         0.00233
       4 <- 22        -0.00204
       4 <- 24         0.00260
       4 <- 34        -0.00047
       4 <- 35         0.00049
       4 <- 40        -0.00020
       4 <- 42        -0.00019
       4 <- 48        -0.00011
       5 <- 10         0.00246
       5 <- 11        -0.00022
       5 <- 14         0.00496
       5 <- 15        -0.00105
       5 <- 19         0.00055
       5 <- 20         0.00048
       5 <- 21         0.00230
       5 <- 25         0.00170
       5 <- 26         0.00157
       5 <- 28         0.00047
       5 <- 33        -0.00097
       5 <- 37        -0.00035
       5 <- 39        -0.00017
       5 <- 43        -0.00040
       5 <- 46        -0.00042
       5 <- 49         0.00012
       6 <- 12         0.00029
       6 <- 16        -0.00013
       6 <- 18         0.00154
       6 <- 22        -0.00091
       6 <- 24         0.00057
       6 <- 30         0.00035
       6 <- 34        -0.00022
       6 <- 35         0.00031
       6 <- 40         0.00020
       6 <- 42        -0.00024
       6 <- 48         0.00034
       6 <- 51        -0.00047
       6 <- 53         0.00012
       7 <- 27         0.00030
       7 <- 38        -0.00027
       7 <- 45         0.00055
       8 <- 10        -0.00241
       8 <- 11        -0.00066
       8 <- 14        -0.00744
       8 <- 19        -0.00040
       8 <- 20        -0.00042
       8 <- 21        -0.00272
       8 <- 25        -0.00271
       8 <- 26        -0.00019
       8 <- 28        -0.00070
       8 <- 32        -0.00074
       8 <- 33         0.00122
       8 <- 37         0.00048
       8 <- 39         0.00039
       8 <- 43         0.00050
       8 <- 46        -0.00055
       8 <- 50        -0.00013
 
 Excited State   3:      Singlet-B2     7.4799 eV  165.76 nm  f=0.0222  <S**2>=0.000
       3 -> 12        -0.00024
       3 -> 16        -0.00067
       3 -> 18         0.00063
       3 -> 22         0.00030
       3 -> 24         0.00027
       3 -> 30         0.00169
       3 -> 34         0.00013
       3 -> 35        -0.00037
       3 -> 40         0.00035
       3 -> 42        -0.00013
       3 -> 48         0.00031
       3 -> 51        -0.00027
       4 -> 12         0.00304
       4 -> 16        -0.00061
       4 -> 18         0.00306
       4 -> 22        -0.00153
       4 -> 24         0.00322
       4 -> 30        -0.00110
       4 -> 34         0.00053
       4 -> 35        -0.00045
       4 -> 42        -0.00018
       4 -> 48         0.00021
       4 -> 51        -0.00014
       5 -> 10        -0.00764
       5 -> 11         0.00023
       5 -> 14         0.00661
       5 -> 15        -0.00685
       5 -> 19        -0.00356
       5 -> 20        -0.00340
       5 -> 21         0.00102
       5 -> 25         0.00141
       5 -> 26        -0.00015
       5 -> 28         0.00155
       5 -> 32        -0.00047
       5 -> 33        -0.00149
       5 -> 37        -0.00013
       5 -> 39         0.00043
       5 -> 41        -0.00083
       5 -> 46         0.00082
       5 -> 49        -0.00010
       5 -> 50         0.00043
       6 -> 12        -0.00323
       6 -> 16        -0.00190
       6 -> 18        -0.00129
       6 -> 22         0.00144
       6 -> 30         0.00069
       6 -> 34        -0.00047
       6 -> 35         0.00147
       6 -> 40        -0.00094
       6 -> 42         0.00016
       6 -> 48        -0.00088
       6 -> 51         0.00064
       6 -> 53         0.00012
       7 -> 27        -0.00033
       7 -> 38        -0.00109
       7 -> 45        -0.00152
       8 -> 10         0.05744
       8 -> 11         0.70385
       8 -> 14        -0.01035
       8 -> 15         0.01491
       8 -> 19        -0.02565
       8 -> 20         0.01100
       8 -> 21        -0.00225
       8 -> 25         0.00058
       8 -> 26        -0.00163
       8 -> 28        -0.00025
       8 -> 32        -0.00038
       8 -> 41        -0.00136
       8 -> 43         0.00018
       8 -> 46         0.00143
       8 -> 49        -0.00026
       8 -> 50         0.00084
       8 -> 54        -0.00016
       3 <- 12         0.00033
       3 <- 16        -0.00025
       3 <- 18         0.00080
       3 <- 24         0.00038
       3 <- 30         0.00101
       3 <- 34         0.00022
       3 <- 35        -0.00043
       3 <- 40         0.00031
       3 <- 42        -0.00012
       3 <- 48         0.00025
       3 <- 51        -0.00017
       3 <- 53        -0.00024
       4 <- 12         0.00035
       4 <- 16         0.00058
       4 <- 18         0.00083
       4 <- 22        -0.00117
       4 <- 24         0.00133
       4 <- 30        -0.00049
       4 <- 34         0.00048
       4 <- 42        -0.00019
       4 <- 48         0.00014
       4 <- 51        -0.00019
       5 <- 10         0.00130
       5 <- 11        -0.00092
       5 <- 14         0.00234
       5 <- 15        -0.00044
       5 <- 19         0.00083
       5 <- 20        -0.00025
       5 <- 21         0.00084
       5 <- 25         0.00120
       5 <- 26        -0.00042
       5 <- 28         0.00077
       5 <- 32         0.00083
       5 <- 33        -0.00086
       5 <- 37         0.00018
       5 <- 39         0.00017
       5 <- 41        -0.00085
       5 <- 46         0.00076
       5 <- 50         0.00036
       6 <- 12        -0.00034
       6 <- 16        -0.00037
       6 <- 18        -0.00012
       6 <- 22         0.00053
       6 <- 30         0.00034
       6 <- 34        -0.00028
       6 <- 35         0.00112
       6 <- 40        -0.00069
       6 <- 42         0.00011
       6 <- 48        -0.00073
       6 <- 51         0.00053
       7 <- 38        -0.00087
       7 <- 45        -0.00129
       8 <- 10        -0.00076
       8 <- 14        -0.00413
       8 <- 15         0.00056
       8 <- 19         0.00325
       8 <- 20        -0.00132
       8 <- 21        -0.00209
       8 <- 25         0.00016
       8 <- 26        -0.00163
       8 <- 28        -0.00021
       8 <- 32         0.00127
       8 <- 33         0.00067
       8 <- 37        -0.00011
       8 <- 39        -0.00034
       8 <- 41        -0.00116
       8 <- 46         0.00115
       8 <- 50         0.00061
 
 Excited State   4:      Singlet-A1     7.6383 eV  162.32 nm  f=0.0536  <S**2>=0.000
       3 -> 10         0.00173
       3 -> 11        -0.00099
       3 -> 14         0.00064
       3 -> 15        -0.00029
       3 -> 19         0.00064
       3 -> 20         0.00133
       3 -> 21         0.00050
       3 -> 25        -0.00039
       3 -> 26         0.00097
       3 -> 28         0.00113
       3 -> 32        -0.00022
       3 -> 33        -0.00046
       3 -> 37        -0.00027
       3 -> 39         0.00011
       3 -> 41        -0.00021
       3 -> 46         0.00010
       3 -> 49         0.00018
       3 -> 50         0.00033
       3 -> 54        -0.00021
       4 -> 10         0.00518
       4 -> 11         0.00718
       4 -> 14         0.00546
       4 -> 19         0.00041
       4 -> 20         0.00500
       4 -> 21         0.00186
       4 -> 25         0.00720
       4 -> 26         0.00118
       4 -> 28        -0.00045
       4 -> 32         0.00049
       4 -> 33        -0.00052
       4 -> 39        -0.00021
       4 -> 41         0.00016
       4 -> 43         0.00015
       4 -> 46        -0.00023
       4 -> 49        -0.00014
       4 -> 50         0.00013
       5 -> 12         0.00720
       5 -> 16         0.00083
       5 -> 18         0.01139
       5 -> 22        -0.00155
       5 -> 24         0.00521
       5 -> 34        -0.00015
       5 -> 35         0.00081
       5 -> 51         0.00030
       5 -> 53        -0.00015
       6 -> 10         0.01305
       6 -> 11        -0.00353
       6 -> 14         0.00434
       6 -> 15         0.00142
       6 -> 19         0.00391
       6 -> 20         0.00448
       6 -> 21         0.00158
       6 -> 25         0.00283
       6 -> 26         0.00036
       6 -> 28        -0.00136
       6 -> 32         0.00062
       6 -> 33        -0.00023
       6 -> 43         0.00012
       6 -> 49        -0.00053
       6 -> 50        -0.00038
       7 ->  9         0.01379
       7 -> 13         0.00870
       7 -> 17         0.00386
       7 -> 23         0.00519
       7 -> 29        -0.00023
       7 -> 31         0.00085
       7 -> 36         0.00056
       7 -> 44         0.00066
       7 -> 47        -0.00035
       7 -> 52        -0.00011
       8 -> 12         0.70574
       8 -> 16        -0.01641
       8 -> 18         0.02929
       8 -> 22         0.00508
       8 -> 24         0.00274
       8 -> 30         0.00104
       8 -> 34         0.00153
       8 -> 35        -0.00208
       8 -> 40        -0.00073
       8 -> 42         0.00041
       8 -> 48        -0.00037
       8 -> 51         0.00030
       8 -> 53        -0.00021
       3 <- 10         0.00060
       3 <- 11        -0.00015
       3 <- 14         0.00037
       3 <- 19         0.00022
       3 <- 20         0.00061
       3 <- 21         0.00040
       3 <- 26         0.00058
       3 <- 28         0.00073
       3 <- 32        -0.00025
       3 <- 33        -0.00027
       3 <- 37        -0.00021
       3 <- 41        -0.00016
       3 <- 46         0.00019
       3 <- 49         0.00014
       3 <- 50         0.00029
       3 <- 54        -0.00019
       4 <- 10         0.00470
       4 <- 11         0.00189
       4 <- 14         0.00400
       4 <- 15        -0.00044
       4 <- 19         0.00028
       4 <- 20         0.00284
       4 <- 21         0.00074
       4 <- 25         0.00401
       4 <- 26         0.00074
       4 <- 32         0.00040
       4 <- 33        -0.00089
       4 <- 39        -0.00026
       4 <- 46        -0.00021
       4 <- 49        -0.00011
       4 <- 50         0.00013
       5 <- 12         0.00277
       5 <- 16         0.00197
       5 <- 18         0.00407
       5 <- 22        -0.00045
       5 <- 24         0.00282
       5 <- 34        -0.00034
       5 <- 35         0.00074
       5 <- 40         0.00010
       5 <- 51         0.00020
       5 <- 53        -0.00013
       6 <- 10         0.00350
       6 <- 11        -0.00035
       6 <- 14         0.00177
       6 <- 15         0.00045
       6 <- 19         0.00131
       6 <- 20         0.00220
       6 <- 21         0.00057
       6 <- 25         0.00146
       6 <- 26         0.00046
       6 <- 28        -0.00082
       6 <- 32         0.00046
       6 <- 33        -0.00029
       6 <- 41         0.00014
       6 <- 49        -0.00041
       6 <- 50        -0.00039
       7 <-  9         0.00153
       7 <- 13         0.00227
       7 <- 17         0.00119
       7 <- 23         0.00270
       7 <- 29        -0.00023
       7 <- 31         0.00060
       7 <- 36         0.00045
       7 <- 44         0.00054
       7 <- 47        -0.00030
       8 <- 12        -0.00146
       8 <- 16        -0.00719
       8 <- 18        -0.00258
       8 <- 22         0.00080
       8 <- 24        -0.00210
       8 <- 34         0.00078
       8 <- 35        -0.00108
       8 <- 40        -0.00067
       8 <- 42         0.00035
       8 <- 48        -0.00042
       8 <- 51         0.00024
       8 <- 53        -0.00022
 
 Excited State   5:      Singlet-A2     8.1404 eV  152.31 nm  f=0.0000  <S**2>=0.000
       3 -> 27        -0.00062
       3 -> 38        -0.00055
       3 -> 45        -0.00032
       4 -> 27         0.00017
       4 -> 38         0.00054
       5 ->  9        -0.00871
       5 -> 13        -0.00208
       5 -> 17         0.00611
       5 -> 23        -0.00151
       5 -> 31        -0.00170
       5 -> 36        -0.00117
       5 -> 44        -0.00022
       5 -> 52        -0.00012
       6 -> 27         0.00022
       6 -> 38         0.00029
       6 -> 45        -0.00033
       7 -> 12        -0.00050
       7 -> 16        -0.00181
       7 -> 18         0.00189
       7 -> 22        -0.00070
       7 -> 24        -0.00014
       7 -> 35        -0.00016
       7 -> 40         0.00013
       7 -> 48        -0.00012
       8 ->  9         0.06399
       8 -> 13         0.70371
       8 -> 17         0.01533
       8 -> 23         0.01832
       8 -> 31        -0.00137
       8 -> 36        -0.00018
       8 -> 47         0.00018
       8 -> 52        -0.00017
       3 <- 27        -0.00023
       3 <- 38        -0.00039
       3 <- 45        -0.00041
       4 <- 27        -0.00021
       5 <-  9        -0.00026
       5 <- 13        -0.00030
       5 <- 17         0.00059
       5 <- 36        -0.00026
       6 <- 38         0.00021
       7 <- 12        -0.00066
       7 <- 16        -0.00084
       7 <- 18         0.00068
       7 <- 22        -0.00119
       7 <- 24        -0.00037
       7 <- 30         0.00019
       7 <- 34         0.00044
       7 <- 35        -0.00072
       7 <- 40         0.00040
       7 <- 42        -0.00016
       7 <- 53        -0.00013
       8 <-  9         0.00270
       8 <- 13         0.00142
       8 <- 17         0.00023
       8 <- 23        -0.00023
       8 <- 31        -0.00013
       8 <- 36         0.00021
 
 Excited State   6:      Singlet-B1    10.2373 eV  121.11 nm  f=0.0004  <S**2>=0.000
       3 ->  9        -0.03023
       3 -> 13         0.00826
       3 -> 17        -0.00780
       3 -> 23         0.00546
       3 -> 29        -0.00345
       3 -> 31        -0.00049
       3 -> 36        -0.00017
       3 -> 44         0.00080
       3 -> 47        -0.00026
       3 -> 52         0.00108
       4 ->  9         0.01642
       4 -> 13        -0.00289
       4 -> 17         0.00104
       4 -> 23        -0.00238
       4 -> 29        -0.00039
       4 -> 31         0.00325
       4 -> 36        -0.00014
       4 -> 44        -0.00024
       4 -> 47        -0.00172
       4 -> 52        -0.00103
       5 -> 27        -0.00200
       5 -> 38         0.00255
       5 -> 45         0.00410
       6 ->  9         0.70292
       6 -> 13        -0.05690
       6 -> 17         0.02789
       6 -> 23        -0.01223
       6 -> 29         0.01026
       6 -> 31        -0.00222
       6 -> 36        -0.00247
       6 -> 44        -0.00317
       6 -> 47         0.00606
       6 -> 52         0.00203
       7 -> 10         0.00526
       7 -> 11         0.02203
       7 -> 14         0.00289
       7 -> 15        -0.01389
       7 -> 19        -0.00636
       7 -> 20         0.00400
       7 -> 21         0.00464
       7 -> 25        -0.00435
       7 -> 26         0.00766
       7 -> 28        -0.00182
       7 -> 32         0.00051
       7 -> 33        -0.00113
       7 -> 37        -0.00192
       7 -> 39         0.00109
       7 -> 41        -0.00281
       7 -> 43         0.00126
       7 -> 46         0.00524
       7 -> 49        -0.00177
       7 -> 50        -0.00144
       7 -> 54         0.00047
       8 -> 27         0.00540
       8 -> 38         0.00154
       8 -> 45         0.00666
       3 <-  9        -0.00898
       3 <- 13         0.00205
       3 <- 17        -0.00327
       3 <- 23         0.00137
       3 <- 29        -0.00176
       3 <- 31        -0.00040
       3 <- 36        -0.00029
       3 <- 52         0.00092
       4 <-  9         0.00368
       4 <- 13        -0.00013
       4 <- 17         0.00230
       4 <- 23        -0.00054
       4 <- 29         0.00175
       4 <- 31         0.00351
       4 <- 36         0.00065
       4 <- 44         0.00014
       4 <- 47        -0.00145
       4 <- 52        -0.00052
       5 <- 27        -0.00173
       5 <- 38         0.00188
       5 <- 45         0.00350
       6 <-  9        -0.01897
       6 <- 13         0.00569
       6 <- 17        -0.00326
       6 <- 23         0.00212
       6 <- 29        -0.00056
       6 <- 31        -0.00369
       6 <- 36        -0.00289
       6 <- 44        -0.00189
       6 <- 47         0.00507
       6 <- 52         0.00065
       7 <- 10         0.00098
       7 <- 11         0.00131
       7 <- 14         0.00016
       7 <- 15        -0.00040
       7 <- 19        -0.00060
       7 <- 20         0.00476
       7 <- 21         0.00463
       7 <- 25        -0.00616
       7 <- 26         0.00655
       7 <- 28         0.00332
       7 <- 32         0.00152
       7 <- 33         0.00047
       7 <- 37        -0.00282
       7 <- 39         0.00114
       7 <- 41        -0.00192
       7 <- 43         0.00130
       7 <- 46         0.00450
       7 <- 49        -0.00138
       7 <- 50        -0.00091
       7 <- 54         0.00089
       8 <- 27         0.00370
       8 <- 38         0.00127
       8 <- 45         0.00555
 
 Excited State   7:      Singlet-B2    10.3087 eV  120.27 nm  f=0.1696  <S**2>=0.000
       3 -> 12        -0.00028
       3 -> 16        -0.00193
       3 -> 18         0.00089
       3 -> 22         0.00140
       3 -> 24         0.00105
       3 -> 30         0.00142
       3 -> 34        -0.00067
       3 -> 35        -0.00013
       3 -> 40        -0.00028
       3 -> 42         0.00042
       3 -> 48         0.00035
       3 -> 51        -0.00020
       3 -> 53        -0.00012
       4 -> 12        -0.00643
       4 -> 16         0.00226
       4 -> 18         0.00433
       4 -> 22        -0.01483
       4 -> 24         0.00786
       4 -> 30         0.00026
       4 -> 34         0.00240
       4 -> 35        -0.00250
       4 -> 40        -0.00220
       4 -> 42         0.00080
       4 -> 48         0.00028
       4 -> 51        -0.00014
       5 -> 10         0.01898
       5 -> 11        -0.00605
       5 -> 14         0.03485
       5 -> 15        -0.00735
       5 -> 19         0.00526
       5 -> 20        -0.01382
       5 -> 21         0.01669
       5 -> 25         0.00803
       5 -> 26         0.00310
       5 -> 28        -0.00036
       5 -> 32        -0.00107
       5 -> 33         0.00324
       5 -> 39         0.00214
       5 -> 41        -0.00122
       5 -> 43        -0.00072
       5 -> 50         0.00034
       6 -> 12         0.00472
       6 -> 16         0.00589
       6 -> 18         0.00893
       6 -> 22        -0.00924
       6 -> 24         0.00505
       6 -> 30         0.00091
       6 -> 34         0.00170
       6 -> 35        -0.00039
       6 -> 40        -0.00127
       6 -> 48        -0.00057
       6 -> 51         0.00022
       7 -> 27         0.00674
       7 -> 45        -0.00081
       8 -> 10        -0.00526
       8 -> 11         0.01179
       8 -> 14         0.70468
       8 -> 15        -0.02255
       8 -> 19         0.01793
       8 -> 20         0.00390
       8 -> 21        -0.01986
       8 -> 25        -0.00701
       8 -> 26         0.00104
       8 -> 28        -0.00103
       8 -> 33         0.00278
       8 -> 37         0.00144
       8 -> 39        -0.00352
       8 -> 41         0.00010
       8 -> 43         0.00197
       8 -> 49        -0.00055
       8 -> 50         0.00063
       3 <- 12        -0.00027
       3 <- 16        -0.00095
       3 <- 18         0.00030
       3 <- 22         0.00046
       3 <- 24         0.00050
       3 <- 30         0.00081
       3 <- 34        -0.00031
       3 <- 35        -0.00017
       3 <- 40        -0.00020
       3 <- 42         0.00028
       3 <- 48         0.00034
       3 <- 51        -0.00014
       3 <- 53        -0.00018
       4 <- 12        -0.00081
       4 <- 16         0.00190
       4 <- 18         0.00319
       4 <- 22        -0.00728
       4 <- 24         0.00475
       4 <- 30         0.00036
       4 <- 34         0.00094
       4 <- 35        -0.00188
       4 <- 40        -0.00156
       4 <- 42         0.00037
       4 <- 48         0.00010
       4 <- 51        -0.00028
       5 <- 10         0.00400
       5 <- 11        -0.00178
       5 <- 14         0.01144
       5 <- 15        -0.00201
       5 <- 19         0.00253
       5 <- 20        -0.00522
       5 <- 21         0.00776
       5 <- 25         0.00494
       5 <- 26         0.00141
       5 <- 28        -0.00071
       5 <- 33         0.00174
       5 <- 37        -0.00011
       5 <- 39         0.00164
       5 <- 41        -0.00076
       5 <- 43        -0.00058
       5 <- 46         0.00014
       5 <- 49         0.00017
       5 <- 50         0.00017
       6 <- 12         0.00064
       6 <- 16         0.00148
       6 <- 18         0.00281
       6 <- 22        -0.00389
       6 <- 24         0.00228
       6 <- 30         0.00067
       6 <- 34         0.00088
       6 <- 35        -0.00018
       6 <- 40        -0.00095
       6 <- 48        -0.00049
       6 <- 51         0.00013
       7 <- 27         0.00420
       7 <- 38        -0.00016
       7 <- 45        -0.00080
       8 <- 10        -0.00745
       8 <- 11        -0.00355
       8 <- 14        -0.01703
       8 <- 15        -0.00027
       8 <- 19         0.00248
       8 <- 20         0.00296
       8 <- 21        -0.01183
       8 <- 25        -0.00538
       8 <- 26        -0.00124
       8 <- 28        -0.00067
       8 <- 32         0.00056
       8 <- 33         0.00073
       8 <- 37         0.00075
       8 <- 39        -0.00214
       8 <- 43         0.00130
       8 <- 46         0.00046
       8 <- 49        -0.00033
       8 <- 50         0.00042
 
 Excited State   8:      Singlet-A1    10.6775 eV  116.12 nm  f=0.0500  <S**2>=0.000
       3 -> 10         0.00259
       3 -> 11         0.00661
       3 -> 14         0.00272
       3 -> 15        -0.00120
       3 -> 19        -0.00761
       3 -> 20         0.00773
       3 -> 21         0.00492
       3 -> 25        -0.00521
       3 -> 26         0.00903
       3 -> 28         0.00692
       3 -> 32        -0.00369
       3 -> 33        -0.00071
       3 -> 37        -0.00350
       3 -> 39         0.00186
       3 -> 41         0.00017
       3 -> 43         0.00128
       3 -> 46         0.00149
       3 -> 49        -0.00013
       3 -> 50         0.00077
       3 -> 54         0.00011
       4 -> 10         0.04664
       4 -> 11        -0.00872
       4 -> 14         0.02356
       4 -> 15        -0.00470
       4 -> 19         0.01343
       4 -> 20         0.00712
       4 -> 21         0.00532
       4 -> 25         0.01195
       4 -> 26         0.00444
       4 -> 28         0.00026
       4 -> 32         0.00239
       4 -> 33         0.00153
       4 -> 37         0.00139
       4 -> 41        -0.00023
       4 -> 46        -0.00111
       4 -> 49         0.00091
       5 -> 12         0.05327
       5 -> 16         0.05047
       5 -> 18         0.01566
       5 -> 22        -0.01065
       5 -> 24         0.02005
       5 -> 30        -0.00567
       5 -> 34        -0.00057
       5 -> 35        -0.00172
       5 -> 40        -0.00086
       5 -> 42         0.00091
       5 -> 48         0.00015
       5 -> 53        -0.00058
       6 -> 10         0.00950
       6 -> 11         0.00413
       6 -> 14         0.00897
       6 -> 15        -0.01548
       6 -> 19         0.00038
       6 -> 20        -0.02078
       6 -> 21        -0.01206
       6 -> 25         0.02240
       6 -> 26        -0.01371
       6 -> 28        -0.01285
       6 -> 32        -0.00046
       6 -> 33        -0.00299
       6 -> 37         0.00376
       6 -> 39        -0.00045
       6 -> 41        -0.00186
       6 -> 43        -0.00035
       6 -> 46         0.00107
       6 -> 49        -0.00120
       6 -> 50        -0.00074
       6 -> 54         0.00019
       7 ->  9         0.58972
       7 -> 13         0.06224
       7 -> 17        -0.01090
       7 -> 23         0.01601
       7 -> 29        -0.00306
       7 -> 31        -0.00148
       7 -> 36        -0.00020
       7 -> 44         0.00011
       7 -> 47         0.00018
       7 -> 52         0.00105
       8 -> 12        -0.00479
       8 -> 16         0.36949
       8 -> 18        -0.00741
       8 -> 22        -0.05136
       8 -> 24         0.00834
       8 -> 30        -0.00952
       8 -> 34         0.00690
       8 -> 35        -0.00864
       8 -> 40         0.00291
       8 -> 42        -0.00065
       8 -> 48         0.00045
       8 -> 51         0.00063
       8 -> 53        -0.00096
       3 <- 10         0.00090
       3 <- 11         0.00323
       3 <- 14         0.00205
       3 <- 19        -0.00411
       3 <- 20         0.00437
       3 <- 21         0.00390
       3 <- 25        -0.00388
       3 <- 26         0.00596
       3 <- 28         0.00464
       3 <- 32        -0.00260
       3 <- 33         0.00011
       3 <- 37        -0.00249
       3 <- 39         0.00138
       3 <- 43         0.00111
       3 <- 46         0.00166
       3 <- 49        -0.00034
       3 <- 50         0.00066
       4 <- 10         0.00953
       4 <- 11        -0.00144
       4 <- 14         0.00678
       4 <- 15        -0.00152
       4 <- 19         0.00483
       4 <- 20         0.00291
       4 <- 21         0.00204
       4 <- 25         0.00573
       4 <- 26         0.00279
       4 <- 32         0.00214
       4 <- 33         0.00011
       4 <- 37         0.00074
       4 <- 41        -0.00037
       4 <- 46        -0.00056
       4 <- 49         0.00091
       4 <- 50        -0.00021
       5 <- 12         0.00834
       5 <- 16         0.01245
[...]
  46        4PY         0.00000   0.00000  -0.04571  -0.09950  -0.13539
  47        4PZ        -0.00123   0.00000   0.00980   0.01669   0.00546
  48        5S         -0.00030   0.00000   0.00082   0.00343   0.00240
  49        5PX         0.00000   0.00000   0.00000   0.00000   0.00000
  50        5PY         0.00000   0.00000  -0.02557  -0.04563  -0.04296
  51        5PZ        -0.00030   0.00000   0.00327   0.00438   0.00068
  52        6D 0        0.00021   0.00000  -0.00125  -0.00234  -0.00084
  53        6D+1        0.00000   0.00000   0.00000   0.00000   0.00000
  54        6D-1        0.00000   0.00000  -0.00296  -0.00301   0.00245
  55        6D+2        0.00001   0.00000  -0.00007  -0.00010  -0.00001
  56        6D-2        0.00000   0.00000   0.00000   0.00000   0.00000
                          26        27        28        29        30
  26        4PX         0.00020
  27        4PY         0.00000   0.00117
  28        4PZ         0.00000  -0.00047   0.00035
  29 3   H  1S          0.00000  -0.00272  -0.00169   0.08178
  30        2S          0.00000  -0.00351  -0.00273   0.12041   0.18231
  31        3S          0.00000  -0.00071  -0.00151   0.05814   0.10046
  32        4PX         0.00020   0.00000   0.00000   0.00000   0.00000
  33        4PY         0.00000  -0.00057  -0.00006   0.00758   0.00978
  34        4PZ         0.00000   0.00006  -0.00015   0.00433   0.00591
  35 4   O  1S          0.00000  -0.00048  -0.00084   0.00283   0.00312
  36        2S          0.00000  -0.00109  -0.00080   0.00486   0.00606
  37        2PX         0.00470   0.00000   0.00000   0.00000   0.00000
  38        2PY         0.00000  -0.00443   0.00211   0.02424   0.06060
  39        2PZ         0.00000  -0.00246  -0.00189   0.01053   0.01938
  40        3S          0.00000   0.00437   0.00040  -0.01610  -0.02211
  41        3PX         0.00691   0.00000   0.00000   0.00000   0.00000
  42        3PY         0.00000  -0.00646   0.00310   0.03479   0.08741
  43        3PZ         0.00000  -0.00343  -0.00266   0.01468   0.02703
  44        4S          0.00000   0.00236  -0.00141  -0.00989  -0.00905
  45        4PX         0.00530   0.00000   0.00000   0.00000   0.00000
  46        4PY         0.00000  -0.00461   0.00161   0.04571   0.09950
  47        4PZ         0.00000  -0.00203  -0.00121   0.00980   0.01669
  48        5S          0.00000  -0.00036  -0.00093   0.00082   0.00343
  49        5PX         0.00032   0.00000   0.00000   0.00000   0.00000
  50        5PY         0.00000  -0.00004  -0.00072   0.02557   0.04563
  51        5PZ         0.00000  -0.00057   0.00007   0.00327   0.00438
  52        6D 0        0.00000   0.00033   0.00025  -0.00125  -0.00234
  53        6D+1       -0.00054   0.00000   0.00000   0.00000   0.00000
  54        6D-1        0.00000   0.00057  -0.00045   0.00296   0.00301
  55        6D+2        0.00000   0.00002   0.00000  -0.00007  -0.00010
  56        6D-2       -0.00000   0.00000   0.00000   0.00000   0.00000
                          31        32        33        34        35
  31        3S          0.08717
  32        4PX         0.00000   0.00020
  33        4PY         0.00103   0.00000   0.00117
  34        4PZ         0.00175   0.00000   0.00047   0.00035
  35 4   O  1S          0.00134   0.00000   0.00048  -0.00084   0.63943
  36        2S          0.00154   0.00000   0.00109  -0.00080   0.56873
  37        2PX         0.00000   0.00470   0.00000   0.00000   0.00000
  38        2PY         0.09737   0.00000  -0.00443  -0.00211   0.00000
  39        2PZ         0.00704   0.00000   0.00246  -0.00189  -0.00978
  40        3S         -0.00245   0.00000  -0.00437   0.00040  -0.13099
  41        3PX         0.00000   0.00691   0.00000   0.00000   0.00000
  42        3PY         0.14116   0.00000  -0.00646  -0.00310   0.00000
  43        3PZ         0.00985   0.00000   0.00343  -0.00266  -0.01314
  44        4S          0.00272   0.00000  -0.00236  -0.00141  -0.12952
  45        4PX         0.00000   0.00530   0.00000   0.00000   0.00000
  46        4PY         0.13539   0.00000  -0.00461  -0.00161   0.00000
  47        4PZ         0.00546   0.00000   0.00203  -0.00121  -0.01385
  48        5S          0.00240   0.00000   0.00036  -0.00093  -0.00479
  49        5PX         0.00000   0.00032   0.00000   0.00000   0.00000
  50        5PY         0.04296   0.00000  -0.00004   0.00072   0.00000
  51        5PZ         0.00068   0.00000   0.00057   0.00007   0.00050
  52        6D 0       -0.00084   0.00000  -0.00033   0.00025  -0.00126
  53        6D+1        0.00000  -0.00054   0.00000   0.00000   0.00000
  54        6D-1       -0.00245   0.00000   0.00057   0.00045   0.00000
  55        6D+2       -0.00001   0.00000  -0.00002   0.00000  -0.00063
  56        6D-2        0.00000   0.00000   0.00000   0.00000   0.00000
                          36        37        38        39        40
  36        2S          0.52296
  37        2PX         0.00000   0.11266
  38        2PY         0.00000   0.00000   0.18062
  39        2PZ        -0.01533  -0.00000  -0.00000   0.15011
  40        3S         -0.22236   0.00000   0.00000   0.04726   0.68162
  41        3PX         0.00000   0.16586   0.00000   0.00000   0.00000
  42        3PY         0.00000   0.00000   0.26253   0.00000   0.00000
  43        3PZ        -0.02033  -0.00000  -0.00000   0.20943   0.06214
  44        4S         -0.20267   0.00000   0.00000   0.15466   0.57125
  45        4PX         0.00000   0.12705   0.00000   0.00000   0.00000
  46        4PY         0.00000   0.00000   0.22745   0.00000   0.00000
  47        4PZ        -0.02300  -0.00000  -0.00000   0.11184   0.07191
  48        5S         -0.01009   0.00000   0.00000   0.06294   0.03895
  49        5PX         0.00000   0.00764   0.00000   0.00000   0.00000
  50        5PY         0.00000   0.00000   0.05033   0.00000   0.00000
  51        5PZ         0.00039  -0.00000  -0.00000   0.00550   0.00029
  52        6D 0       -0.00262   0.00000   0.00000  -0.01683   0.00896
  53        6D+1       -0.00000  -0.01306   0.00000  -0.00000   0.00000
  54        6D-1       -0.00000   0.00000  -0.01159  -0.00000   0.00000
  55        6D+2       -0.00105   0.00000   0.00000   0.00016   0.00319
  56        6D-2        0.00000   0.00000   0.00000   0.00000   0.00000
                          41        42        43        44        45
  41        3PX         0.24417
  42        3PY         0.00000   0.38160
  43        3PZ        -0.00000  -0.00000   0.29224
  44        4S          0.00000   0.00000   0.21278   0.57059
  45        4PX         0.18703   0.00000   0.00000   0.00000   0.14327
  46        4PY         0.00000   0.33046   0.00000   0.00000   0.00000
  47        4PZ        -0.00000  -0.00000   0.15584   0.14337  -0.00000
  48        5S          0.00000   0.00000   0.08776   0.08024   0.00000
  49        5PX         0.01124   0.00000   0.00000   0.00000   0.00861
  50        5PY         0.00000   0.07299   0.00000   0.00000   0.00000
  51        5PZ        -0.00000  -0.00000   0.00765   0.00402  -0.00000
  52        6D 0        0.00000   0.00000  -0.02357  -0.00623   0.00000
  53        6D+1       -0.01923   0.00000  -0.00000  -0.00000  -0.01473
  54        6D-1        0.00000  -0.01689  -0.00000  -0.00000   0.00000
  55        6D+2        0.00000   0.00000   0.00021   0.00262   0.00000
  56        6D-2        0.00000   0.00000   0.00000   0.00000   0.00000
                          46        47        48        49        50
  46        4PY         0.29126
  47        4PZ        -0.00000   0.08568
  48        5S          0.00000   0.04769   0.02736
  49        5PX         0.00000   0.00000   0.00000   0.00052
  50        5PY         0.06939   0.00000   0.00000   0.00000   0.02147
  51        5PZ        -0.00000   0.00429   0.00194  -0.00000  -0.00000
  52        6D 0        0.00000  -0.01173  -0.00670   0.00000   0.00000
  53        6D+1        0.00000  -0.00000  -0.00000  -0.00089   0.00000
  54        6D-1       -0.01316  -0.00000  -0.00000   0.00000  -0.00144
  55        6D+2        0.00000   0.00029   0.00016   0.00000   0.00000
  56        6D-2        0.00000   0.00000   0.00000   0.00000   0.00000
                          51        52        53        54        55
  51        5PZ         0.00049
  52        6D 0       -0.00061   0.00220
  53        6D+1       -0.00000  -0.00000   0.00151
  54        6D-1       -0.00000  -0.00000   0.00000   0.00117
  55        6D+2       -0.00000   0.00005   0.00000   0.00000   0.00001
  56        6D-2        0.00000   0.00000   0.00000   0.00000   0.00000
                          56
  56        6D-2        0.00000
          Condensed to atoms (all electrons):
               1          2          3          4
     1  C    4.749810   0.397076   0.397076   0.406784
     2  H    0.397076   0.725078  -0.118843  -0.087991
     3  H    0.397076  -0.118843   0.725078  -0.087991
     4  O    0.406784  -0.087991  -0.087991   7.987814
 Mulliken charges:
               1
     1  C    0.049255
     2  H    0.084681
     3  H    0.084681
     4  O   -0.218616
 Sum of Mulliken charges =   0.00000
 Mulliken charges with hydrogens summed into heavy atoms:
               1
     1  C    0.218616
     4  O   -0.218616
 Electronic spatial extent (au):  <R**2>=             57.4780
 Charge=              0.0000 electrons
 Dipole moment (field-independent basis, Debye):
    X=             -0.0000    Y=             -0.0000    Z=             -2.0045  Tot=              2.0045
 Quadrupole moment (field-independent basis, Debye-Ang):
   XX=            -11.4655   YY=            -11.8087   ZZ=            -12.6797
   XY=              0.0000   XZ=              0.0000   YZ=              0.0000
 Traceless Quadrupole moment (field-independent basis, Debye-Ang):
   XX=              0.5191   YY=              0.1760   ZZ=             -0.6951
   XY=              0.0000   XZ=              0.0000   YZ=              0.0000
 Octapole moment (field-independent basis, Debye-Ang**2):
  XXX=              0.0000  YYY=              0.0000  ZZZ=              1.1290  XYY=              0.0000
  XXY=             -0.0000  XXZ=              0.7791  XZZ=              0.0000  YZZ=             -0.0000
  YYZ=              0.1501  XYZ=             -0.0000
 Hexadecapole moment (field-independent basis, Debye-Ang**3):
 XXXX=            -10.0698 YYYY=            -19.8424 ZZZZ=            -43.8247 XXXY=             -0.0000
 XXXZ=             -0.0000 YYYX=             -0.0000 YYYZ=             -0.0000 ZZZX=             -0.0000
 ZZZY=              0.0000 XXYY=             -5.2271 XXZZ=             -8.8787 YYZZ=            -10.7834
 XXYZ=             -0.0000 YYXZ=             -0.0000 ZZXY=             -0.0000
 N-N= 3.325454368729D+01 E-N=-3.357377679603D+02  KE= 1.145709546183D+02
 Symmetry A1   KE= 1.040091017436D+02
 Symmetry A2   KE= 6.641613936280D-36
 Symmetry B1   KE= 3.783191404290D+00
 Symmetry B2   KE= 6.778661470404D+00
 Leave Link  601 at Fri Sep 17 10:52:39 2021, MaxMem=   268435456 cpu:               0.0 elap:               0.0
 (Enter /software/gaussian/g16-a03/l9999.exe)
 Electronic transition elements 
                 1             2             3             4             5 
      1  -0.114360D+03 -0.114280D+03 -0.114251D+03 -0.114245D+03 -0.114226D+03
      2   0.000000D+00  0.000000D+00  0.000000D+00  0.000000D+00  0.000000D+00
      3   0.000000D+00  0.530402D+00  0.348388D+00  0.000000D+00  0.000000D+00
      4   0.000000D+00  0.000000D+00  0.000000D+00 -0.535377D+00  0.000000D+00
      5   0.000000D+00  0.000000D+00  0.000000D+00  0.000000D+00  0.000000D+00
      6   0.000000D+00 -0.129826D+00 -0.100321D+00  0.000000D+00  0.000000D+00
      7   0.000000D+00  0.000000D+00  0.000000D+00  0.145535D+00  0.000000D+00
      8   0.000000D+00 -0.437638D+00  0.758453D+00  0.000000D+00  0.000000D+00
      9   0.000000D+00  0.000000D+00  0.000000D+00  0.000000D+00  0.000000D+00
     10   0.126657D+01  0.000000D+00  0.000000D+00  0.000000D+00 -0.919690D-01
     11   0.000000D+00  0.000000D+00  0.000000D+00 -0.992706D-01  0.000000D+00
     12   0.000000D+00  0.000000D+00  0.000000D+00 -0.455325D+00  0.000000D+00
     13   0.000000D+00  0.000000D+00  0.000000D+00 -0.248310D+00  0.000000D+00
     14  -0.128754D+00  0.000000D+00  0.000000D+00  0.000000D+00 -0.115940D+00
     15   0.000000D+00  0.000000D+00  0.000000D+00  0.000000D+00  0.000000D+00
     16   0.000000D+00  0.528497D+00  0.944311D-01  0.000000D+00  0.000000D+00
                 6             7             8             9            10 
      1  -0.114149D+03 -0.114147D+03 -0.114133D+03 -0.114116D+03 -0.114112D+03
      2   0.378844D-01  0.000000D+00  0.000000D+00  0.000000D+00  0.000000D+00
      3   0.000000D+00  0.819534D+00  0.000000D+00 -0.523934D-01  0.000000D+00
      4   0.000000D+00  0.000000D+00  0.437156D+00  0.000000D+00  0.000000D+00
      5  -0.250866D-01  0.000000D+00  0.000000D+00  0.000000D+00  0.000000D+00
      6   0.000000D+00 -0.309482D+00  0.000000D+00 -0.754200D-02  0.000000D+00
      7   0.000000D+00  0.000000D+00 -0.162272D+00  0.000000D+00  0.000000D+00
      8   0.000000D+00 -0.900349D+00  0.000000D+00  0.662681D+00  0.000000D+00
      9  -0.146745D+01  0.000000D+00  0.000000D+00  0.000000D+00  0.000000D+00
     10   0.000000D+00  0.000000D+00  0.000000D+00  0.000000D+00 -0.553067D+00
     11   0.000000D+00  0.000000D+00  0.284906D+00  0.000000D+00  0.000000D+00
     12   0.000000D+00  0.000000D+00 -0.249456D+00  0.000000D+00  0.000000D+00
     13   0.000000D+00  0.000000D+00 -0.477935D+00  0.000000D+00  0.000000D+00
     14   0.000000D+00  0.000000D+00  0.000000D+00  0.000000D+00  0.260287D+00
     15  -0.413110D+00  0.000000D+00  0.000000D+00  0.000000D+00  0.000000D+00
     16   0.000000D+00  0.701302D+00  0.000000D+00  0.320532D+00  0.000000D+00
                11            12            13            14            15 
      1  -0.114108D+03 -0.114080D+03 -0.114078D+03 -0.114076D+03 -0.114074D+03
      2  -0.385391D+00  0.000000D+00  0.000000D+00  0.320222D+00  0.000000D+00
      3   0.000000D+00  0.000000D+00  0.000000D+00  0.000000D+00  0.000000D+00
      4   0.000000D+00  0.000000D+00 -0.511103D+00  0.000000D+00  0.000000D+00
      5   0.164474D+00  0.000000D+00  0.000000D+00 -0.153291D+00  0.000000D+00
      6   0.000000D+00  0.000000D+00  0.000000D+00  0.000000D+00  0.000000D+00
      7   0.000000D+00  0.000000D+00  0.228605D+00  0.000000D+00  0.000000D+00
      8   0.000000D+00  0.000000D+00  0.000000D+00  0.000000D+00  0.000000D+00
      9  -0.313634D-01  0.000000D+00  0.000000D+00  0.139613D-01  0.000000D+00
     10   0.000000D+00  0.715196D-01  0.000000D+00  0.000000D+00  0.410254D-01
     11   0.000000D+00  0.000000D+00 -0.714868D-01  0.000000D+00  0.000000D+00
     12   0.000000D+00  0.000000D+00 -0.338626D+00  0.000000D+00  0.000000D+00
     13   0.000000D+00  0.000000D+00 -0.111643D+00  0.000000D+00  0.000000D+00
     14   0.000000D+00  0.298447D+00  0.000000D+00  0.000000D+00  0.247390D+00
     15  -0.711003D-01  0.000000D+00  0.000000D+00 -0.277220D+00  0.000000D+00
     16   0.000000D+00  0.000000D+00  0.000000D+00  0.000000D+00  0.000000D+00
                16            17            18            19            20 
      1  -0.114064D+03 -0.114055D+03 -0.114044D+03 -0.114043D+03 -0.114040D+03
      2   0.000000D+00  0.000000D+00  0.000000D+00  0.000000D+00  0.000000D+00
      3   0.000000D+00  0.000000D+00  0.000000D+00  0.000000D+00 -0.378313D+00
      4  -0.262015D+00 -0.102345D+01 -0.796709D+00  0.976217D-01  0.000000D+00
      5   0.000000D+00  0.000000D+00  0.000000D+00  0.000000D+00  0.000000D+00
      6   0.000000D+00  0.000000D+00  0.000000D+00  0.000000D+00  0.182376D+00
      7   0.114254D+00  0.477665D+00  0.389952D+00 -0.502137D-01  0.000000D+00
      8   0.000000D+00  0.000000D+00  0.000000D+00  0.000000D+00 -0.271807D+00
      9   0.000000D+00  0.000000D+00  0.000000D+00  0.000000D+00  0.000000D+00
     10   0.000000D+00  0.000000D+00  0.000000D+00  0.000000D+00  0.000000D+00
     11   0.169172D+00 -0.421936D+00  0.629201D+00  0.400838D-01  0.000000D+00
     12   0.465745D+00 -0.788797D+00 -0.758502D-01 -0.404713D+00  0.000000D+00
     13   0.319643D+00 -0.788352D+00 -0.463147D-01 -0.862079D-01  0.000000D+00
     14   0.000000D+00  0.000000D+00  0.000000D+00  0.000000D+00  0.000000D+00
     15   0.000000D+00  0.000000D+00  0.000000D+00  0.000000D+00  0.000000D+00
     16   0.000000D+00  0.000000D+00  0.000000D+00  0.000000D+00 -0.677609D-01
                21            22            23            24            25 
      1  -0.114030D+03 -0.114026D+03 -0.114019D+03 -0.113997D+03 -0.113993D+03
      2   0.000000D+00  0.000000D+00 -0.261913D+00  0.000000D+00  0.413688D-01
      3  -0.496712D+00 -0.408692D+00  0.000000D+00  0.247821D+00  0.000000D+00
      4   0.000000D+00  0.000000D+00  0.000000D+00  0.000000D+00  0.000000D+00
      5   0.000000D+00  0.000000D+00  0.126423D+00  0.000000D+00 -0.228050D-02
      6   0.241777D+00  0.215397D+00  0.000000D+00 -0.134747D+00  0.000000D+00
      7   0.000000D+00  0.000000D+00  0.000000D+00  0.000000D+00  0.000000D+00
      8   0.394864D+00 -0.578390D+00  0.000000D+00 -0.291503D+00  0.000000D+00
      9   0.000000D+00  0.000000D+00  0.477883D+00  0.000000D+00 -0.285123D+00
     10   0.000000D+00  0.000000D+00  0.000000D+00  0.000000D+00  0.000000D+00
     11   0.000000D+00  0.000000D+00  0.000000D+00  0.000000D+00  0.000000D+00
     12   0.000000D+00  0.000000D+00  0.000000D+00  0.000000D+00  0.000000D+00
     13   0.000000D+00  0.000000D+00  0.000000D+00  0.000000D+00  0.000000D+00
     14   0.000000D+00  0.000000D+00  0.000000D+00  0.000000D+00  0.000000D+00
     15   0.000000D+00  0.000000D+00  0.126341D+00  0.000000D+00 -0.654539D-01
     16  -0.502931D+00  0.115844D+00  0.000000D+00 -0.340214D+00  0.000000D+00
                26            27            28            29            30 
      1  -0.113986D+03 -0.113976D+03 -0.113959D+03 -0.113957D+03 -0.113954D+03
      2   0.000000D+00  0.000000D+00 -0.586653D+00  0.000000D+00  0.000000D+00
      3   0.000000D+00  0.000000D+00  0.000000D+00 -0.250797D+00  0.000000D+00
      4  -0.128906D+00  0.000000D+00  0.000000D+00  0.000000D+00  0.137069D+00
      5   0.000000D+00  0.000000D+00  0.335711D+00  0.000000D+00  0.000000D+00
      6   0.000000D+00  0.000000D+00  0.000000D+00  0.145798D+00  0.000000D+00
      7   0.765856D-01  0.000000D+00  0.000000D+00  0.000000D+00 -0.791386D-01
      8   0.000000D+00  0.000000D+00  0.000000D+00  0.812092D+00  0.000000D+00
      9   0.000000D+00  0.000000D+00 -0.402608D+00  0.000000D+00  0.000000D+00
     10   0.000000D+00  0.608328D-01  0.000000D+00  0.000000D+00  0.000000D+00
     11   0.321190D+00  0.000000D+00  0.000000D+00  0.000000D+00 -0.208356D+00
     12   0.844980D+00  0.000000D+00  0.000000D+00  0.000000D+00  0.441491D+00
     13   0.118561D+00  0.000000D+00  0.000000D+00  0.000000D+00 -0.125633D+00
     14   0.000000D+00  0.303092D+00  0.000000D+00  0.000000D+00  0.000000D+00
     15   0.000000D+00  0.000000D+00 -0.384382D+00  0.000000D+00  0.000000D+00
     16   0.000000D+00  0.000000D+00  0.000000D+00  0.344983D-01  0.000000D+00

 Test job not archived.
 1\1\GINC-BHD0011\SP\RB3LYP TD-FC\6-311+G(d,p)\C1H2O1\BWEIGHT\17-Sep-20
 21\0\\#p B3LYP/6-311+G** #p TD=(singlets,nstates=30)IOp(6/8=3) IOp(9/4
 0=4)\\Scan Step 122, Bond Length 1.1099999999999999\\0,1\C,0,0.,0.,-0.
 52736\H,0,0.,0.93726,-1.11871\H,0,0.,-0.93726,-1.11871\O,0,0.,0.,0.582
 64\\Version=ES64L-G16RevA.03\State=1-A1\HF=-114.5255887\RMSD=3.550e-09
 \PG=C02V [C2(C1O1),SGV(H2)]\\@


 NO MATTER HOW THIN YOU SLICE IT, IT'S STILL BALONEY

                                   -- ALFRED E. SMITH
 Job cpu time:       0 days  0 hours  0 minutes 26.4 seconds.
 Elapsed time:       0 days  0 hours  0 minutes 26.9 seconds.
 File lengths (MBytes):  RWF=     79 Int=      0 D2E=      0 Chk=     32 Scr=      1
 Normal termination of Gaussian 16 at Fri Sep 17 10:52:39 2021.
