 Entering Gaussian System, Link 0=g16
 Initial command:
 /software/gaussian/g16-c01/sse4/g16/l1.exe "/local_scratch/24657521/Gau-23508.inp" -scrdir="/local_scratch/24657521/"
 Entering Link 1 = /software/gaussian/g16-c01/sse4/g16/l1.exe PID=     23510.
  
 Copyright (c) 1988-2019, Gaussian, Inc.  All Rights Reserved.
  
 This is part of the Gaussian(R) 16 program.  It is based on
 the Gaussian(R) 09 system (copyright 2009, Gaussian, Inc.),
 the Gaussian(R) 03 system (copyright 2003, Gaussian, Inc.),
 the Gaussian(R) 98 system (copyright 1998, Gaussian, Inc.),
 the Gaussian(R) 94 system (copyright 1995, Gaussian, Inc.),
 the Gaussian 92(TM) system (copyright 1992, Gaussian, Inc.),
 the Gaussian 90(TM) system (copyright 1990, Gaussian, Inc.),
 the Gaussian 88(TM) system (copyright 1988, Gaussian, Inc.),
 the Gaussian 86(TM) system (copyright 1986, Carnegie Mellon
 University), and the Gaussian 82(TM) system (copyright 1983,
 Carnegie Mellon University). Gaussian is a federally registered
 trademark of Gaussian, Inc.
  
 This software contains proprietary and confidential information,
 including trade secrets, belonging to Gaussian, Inc.
  
 This software is provided under written license and may be
 used, copied, transmitted, or stored only in accord with that
 written license.
  
 The following legend is applicable only to US Government
 contracts under FAR:
  
                    RESTRICTED RIGHTS LEGEND
  
 Use, reproduction and disclosure by the US Government is
 subject to restrictions as set forth in subparagraphs (a)
 and (c) of the Commercial Computer Software - Restricted
 Rights clause in FAR 52.227-19.
  
 Gaussian, Inc.
 340 Quinnipiac St., Bldg. 40, Wallingford CT 06492
  
  
 ---------------------------------------------------------------
 Warning -- This program may not be used in any manner that
 competes with the business of Gaussian, Inc. or will provide
 assistance to any competitor of Gaussian, Inc.  The licensee
 of this program is prohibited from giving any competitor of
 Gaussian, Inc. access to this program.  By using this program,
 the user acknowledges that Gaussian, Inc. is engaged in the
 business of creating and licensing software in the field of
 computational chemistry and represents and warrants to the
 licensee that it is not a competitor of Gaussian, Inc. and that
 it will not use this program in any manner prohibited above.
 ---------------------------------------------------------------
  

 Cite this work as:
 Gaussian 16, Revision C.01,
 M. J. Frisch, G. W. Trucks, H. B. Schlegel, G. E. Scuseria, 
 M. A. Robb, J. R. Cheeseman, G. Scalmani, V. Barone, 
 G. A. Petersson, H. Nakatsuji, X. Li, M. Caricato, A. V. Marenich, 
 J. Bloino, B. G. Janesko, R. Gomperts, B. Mennucci, H. P. Hratchian, 
 J. V. Ortiz, A. F. Izmaylov, J. L. Sonnenberg, D. Williams-Young, 
 F. Ding, F. Lipparini, F. Egidi, J. Goings, B. Peng, A. Petrone, 
 T. Henderson, D. Ranasinghe, V. G. Zakrzewski, J. Gao, N. Rega, 
 G. Zheng, W. Liang, M. Hada, M. Ehara, K. Toyota, R. Fukuda, 
 J. Hasegawa, M. Ishida, T. Nakajima, Y. Honda, O. Kitao, H. Nakai, 
 T. Vreven, K. Throssell, J. A. Montgomery, Jr., J. E. Peralta, 
 F. Ogliaro, M. J. Bearpark, J. J. Heyd, E. N. Brothers, K. N. Kudin, 
 V. N. Staroverov, T. A. Keith, R. Kobayashi, J. Normand, 
 K. Raghavachari, A. P. Rendell, J. C. Burant, S. S. Iyengar, 
 J. Tomasi, M. Cossi, J. M. Millam, M. Klene, C. Adamo, R. Cammi, 
 J. W. Ochterski, R. L. Martin, K. Morokuma, O. Farkas, 
 J. B. Foresman, and D. J. Fox, Gaussian, Inc., Wallingford CT, 2019.
 
 ******************************************
 Gaussian 16:  ES64L-G16RevC.01  3-Jul-2019
                 1-May-2024 
 ******************************************
 %chk=geometry.chk
 %mem=9GB
 %nprocshared=12
 Will use up to   12 processors via shared memory.
 ----------------------------------------
 #P wB97XD/6-311+G* NoSymm #P Field=Y+194
 ----------------------------------------
 1/38=1,172=1/1;
 2/12=2,15=1,17=6,18=5,40=1/2;
 3/5=4,6=6,7=11,11=2,14=2,15=194,25=1,30=1,74=-58/1,2,3;
 4//1;
 5/5=2,38=5/2;
 6/7=2,8=2,9=2,10=2,28=1/1;
 99/5=1,9=1/99;
 Leave Link    1 at Wed May  1 14:49:55 2024, MaxMem=  1207959552 cpu:               2.6 elap:               2.6
 (Enter /software/gaussian/g16-c01/sse4/g16/l101.exe)
 -------
 TitleMe
 -------
 Symbolic Z-matrix:
 Charge =  1 Multiplicity = 1
 C                     0.0295    1.3397    0.0682 
 C                     1.4348    1.2867    0.0064 
 C                     2.1118    0.0511   -0.0054 
 C                     1.4451   -1.1372    0.0312 
 C                    -0.6879    0.1682    0.11 
 H                    -0.4713    2.2984    0.0781 
 H                     2.0273    2.1965   -0.0322 
 H                     1.9897   -2.0764    0.0232 
 H                    -1.7716    0.1804    0.1582 
 N                     3.5864    0.051    -0.0675 
 O                     4.1471   -1.0597   -0.0881 
 O                     4.145     1.1639   -0.0901 
 C                    -0.0236   -1.1458    0.0835 
 H                    -0.4367   -1.8725    0.7889 
 Br                   -0.5359   -1.8697   -1.7408 
 
 ITRead=  0  0  0  0  0  0  0  0  0  0  0  0  0  0  0
 MicOpt= -1 -1 -1 -1 -1 -1 -1 -1 -1 -1 -1 -1 -1 -1 -1
 NAtoms=     15 NQM=       15 NQMF=       0 NMMI=      0 NMMIF=      0
                NMic=       0 NMicF=      0.
                    Isotopes and Nuclear Properties:
 (Nuclear quadrupole moments (NQMom) in fm**2, nuclear magnetic moments (NMagM)
  in nuclear magnetons)

  Atom         1           2           3           4           5           6           7           8           9          10
 IAtWgt=          12          12          12          12          12           1           1           1           1          14
 AtmWgt=  12.0000000  12.0000000  12.0000000  12.0000000  12.0000000   1.0078250   1.0078250   1.0078250   1.0078250  14.0030740
 NucSpn=           0           0           0           0           0           1           1           1           1           2
 AtZEff=  -0.0000000  -0.0000000  -0.0000000  -0.0000000  -0.0000000  -0.0000000  -0.0000000  -0.0000000  -0.0000000  -0.0000000
 NQMom=    0.0000000   0.0000000   0.0000000   0.0000000   0.0000000   0.0000000   0.0000000   0.0000000   0.0000000   2.0440000
 NMagM=    0.0000000   0.0000000   0.0000000   0.0000000   0.0000000   2.7928460   2.7928460   2.7928460   2.7928460   0.4037610
 AtZNuc=   6.0000000   6.0000000   6.0000000   6.0000000   6.0000000   1.0000000   1.0000000   1.0000000   1.0000000   7.0000000

  Atom        11          12          13          14          15
 IAtWgt=          16          16          12           1          79
 AtmWgt=  15.9949146  15.9949146  12.0000000   1.0078250  78.9183361
 NucSpn=           0           0           0           1           3
 AtZEff=  -0.0000000  -0.0000000  -0.0000000  -0.0000000  -0.0000000
 NQMom=    0.0000000   0.0000000   0.0000000   0.0000000  31.3000000
 NMagM=    0.0000000   0.0000000   0.0000000   2.7928460   2.1063990
 AtZNuc=   8.0000000   8.0000000   6.0000000   1.0000000  35.0000000
 Leave Link  101 at Wed May  1 14:49:57 2024, MaxMem=  1207959552 cpu:               1.5 elap:               1.6
 (Enter /software/gaussian/g16-c01/sse4/g16/l202.exe)
                          Input orientation:                          
 ---------------------------------------------------------------------
 Center     Atomic      Atomic             Coordinates (Angstroms)
 Number     Number       Type             X           Y           Z
 ---------------------------------------------------------------------
      1          6           0        0.029500    1.339700    0.068200
      2          6           0        1.434800    1.286700    0.006400
      3          6           0        2.111800    0.051100   -0.005400
      4          6           0        1.445100   -1.137200    0.031200
      5          6           0       -0.687900    0.168200    0.110000
      6          1           0       -0.471300    2.298400    0.078100
      7          1           0        2.027300    2.196500   -0.032200
      8          1           0        1.989700   -2.076400    0.023200
      9          1           0       -1.771600    0.180400    0.158200
     10          7           0        3.586400    0.051000   -0.067500
     11          8           0        4.147100   -1.059700   -0.088100
     12          8           0        4.145000    1.163900   -0.090100
     13          6           0       -0.023600   -1.145800    0.083500
     14          1           0       -0.436700   -1.872500    0.788900
     15         35           0       -0.535900   -1.869700   -1.740800
 ---------------------------------------------------------------------
                    Distance matrix (angstroms):
                    1          2          3          4          5
     1  C    0.000000
     2  C    1.407656   0.000000
     3  C    2.449874   1.408963   0.000000
     4  C    2.853126   2.424049   1.363043   0.000000
     5  C    1.374344   2.401589   2.804523   2.501993   0.000000
     6  H    1.081667   2.159142   3.424870   3.934226   2.141421
     7  H    2.176095   1.086408   2.147231   3.384750   3.392128
     8  H    3.938800   3.408612   2.131193   1.085702   3.495040
     9  H    2.143837   3.395283   3.888995   3.478413   1.084840
    10  N    3.785591   2.482297   1.475907   2.450862   4.279589
    11  O    4.768247   3.587631   2.320164   2.705743   4.992415
    12  O    4.122294   2.714696   2.319353   3.549540   4.938459
    13  C    2.486114   2.837240   2.449573   1.469656   1.472614
    14  H    3.324903   3.754379   3.290289   2.157764   2.165286
    15  Br   3.727252   4.110867   3.702891   2.756973   2.757100
                    6          7          8          9         10
     6  H    0.000000
     7  H    2.503108   0.000000
     8  H    5.019802   4.273425   0.000000
     9  H    2.486588   4.304945   4.388479   0.000000
    10  N    4.640790   2.652397   2.661486   5.364313   0.000000
    11  O    5.712624   3.885809   2.387560   6.052233   1.244373
    12  O    4.756638   2.356750   3.893289   6.002923   1.245428
    13  C    3.473180   3.923079   2.218790   2.195425   3.806210
    14  H    4.231175   4.827242   2.552506   2.528663   4.540772
    15  Br   4.548146   5.101303   3.087568   3.055498   4.845862
                   11         12         13         14         15
    11  O    0.000000
    12  O    2.223602   0.000000
    13  C    4.175117   4.768865   0.000000
    14  H    4.737193   5.566358   1.093770   0.000000
    15  Br   5.031700   5.817075   2.028436   2.531646   0.000000
 Symmetry turned off by external request.
 Stoichiometry    C6H5BrNO2(1+)
 Framework group  C1[X(C6H5BrNO2)]
 Deg. of freedom    39
 Full point group                 C1      NOp   1
 Rotational constants (GHZ):           1.8252210           0.5518633           0.4576002
 Leave Link  202 at Wed May  1 14:49:58 2024, MaxMem=  1207959552 cpu:               1.3 elap:               1.3
 (Enter /software/gaussian/g16-c01/sse4/g16/l301.exe)
 Standard basis: 6-311+G(d) (5D, 7F)
 Ernie: Thresh=  0.10000D-02 Tol=  0.10000D-05 Strict=F.
 The following finite field(s) will be applied:
 An electric field of              0.0000  0.0194  0.0000
   261 basis functions,   443 primitive gaussians,   273 cartesian basis functions
    49 alpha electrons       49 beta electrons
       nuclear repulsion energy       739.2122215416 Hartrees.
 IExCor= 4639 DFT=T Ex+Corr=wB97XD ExCW=0 ScaHFX=  1.000000
 ScaDFX=  1.000000  1.000000  1.000000  1.000000 ScalE2=  1.000000  1.000000
 IRadAn=      5 IRanWt=     -1 IRanGd=            0 ICorTp=0 IEmpDi=121
 HFx  wShort=  0.000000 wLong=  0.200000 cFull=  0.222036 cShort=  0.000000 cLong=  0.777964
 DFx  wShort=  0.000000 wLong=  0.200000 cFull=  0.000000 cShort=  0.000000 cLong=  1.000000
 NAtoms=   15 NActive=   15 NUniq=   15 SFac= 1.00D+00 NAtFMM=   60 NAOKFM=F Big=F
 Integral buffers will be    131072 words long.
 Raffenetti 2 integral format.
 Two-electron integral symmetry is turned off.
 R6Disp:  Grimme-D2 Dispersion energy=       -0.0077368520 Hartrees.
 Nuclear repulsion after empirical dispersion term =      739.2044846896 Hartrees.
 Leave Link  301 at Wed May  1 14:49:59 2024, MaxMem=  1207959552 cpu:               1.0 elap:               1.0
 (Enter /software/gaussian/g16-c01/sse4/g16/l302.exe)
 NPDir=0 NMtPBC=     1 NCelOv=     1 NCel=       1 NClECP=     1 NCelD=      1
         NCelK=      1 NCelE2=     1 NClLst=     1 CellRange=     0.0.
 One-electron integrals computed using PRISM.
 NBasis=   261 RedAO= T EigKep=  2.35D-06  NBF=   261
 NBsUse=   261 1.00D-06 EigRej= -1.00D+00 NBFU=   261
 Precomputing XC quadrature grid using
 IXCGrd= 4 IRadAn=           5 IRanWt=          -1 IRanGd=           0 AccXCQ= 0.00D+00.
 Generated NRdTot=       0 NPtTot=           0 NUsed=           0 NTot=          32
 NSgBfM=   273   273   273   273   273 MxSgAt=    15 MxSgA2=    15.
 Leave Link  302 at Wed May  1 14:50:21 2024, MaxMem=  1207959552 cpu:              21.9 elap:              21.9
 (Enter /software/gaussian/g16-c01/sse4/g16/l303.exe)
 DipDrv:  MaxL=1.
 The nuclear repulsion energy is now       736.9994800221 hartrees.
 Leave Link  303 at Wed May  1 14:50:24 2024, MaxMem=  1207959552 cpu:               3.4 elap:               3.4
 (Enter /software/gaussian/g16-c01/sse4/g16/l401.exe)
 ExpMin= 3.50D-02 ExpMax= 4.40D+05 ExpMxC= 1.51D+04 IAcc=3 IRadAn=         5 AccDes= 0.00D+00
 Harris functional with IExCor= 4639 and IRadAn=       5 diagonalized for initial guess.
 HarFok:  IExCor= 4639 AccDes= 0.00D+00 IRadAn=         5 IDoV= 1 UseB2=F ITyADJ=14
 ICtDFT=  3500011 ScaDFX=  1.000000  1.000000  1.000000  1.000000
 FoFCou: FMM=F IPFlag=           0 FMFlag=      100000 FMFlg1=           0
         NFxFlg=           0 DoJE=T BraDBF=F KetDBF=T FulRan=T
         wScrn=  0.000000 ICntrl=       500 IOpCl=  0 I1Cent=   200000004 NGrid=           0
         NMat0=    1 NMatS0=      1 NMatT0=    0 NMatD0=    1 NMtDS0=    0 NMtDT0=    0
 Symmetry not used in FoFCou.
 Harris En= -2970.66275927278    
 JPrj=0 DoOrth=F DoCkMO=F.
 Leave Link  401 at Wed May  1 14:50:55 2024, MaxMem=  1207959552 cpu:              30.6 elap:              30.6
 (Enter /software/gaussian/g16-c01/sse4/g16/l502.exe)
 Two-electron integral symmetry not used.
 Closed shell SCF:
 Using DIIS extrapolation, IDIIS=  1040.
 NGot=  1207959552 LenX=  1207804877 LenY=  1207729907
 Requested convergence on RMS density matrix=1.00D-08 within 128 cycles.
 Requested convergence on MAX density matrix=1.00D-06.
 Requested convergence on             energy=1.00D-06.
 No special actions if energy rises.
 Fock matrices will be formed incrementally for  20 cycles.

 Cycle   1  Pass 1  IDiag  1:
 FoFJK:  IHMeth= 1 ICntrl=       0 DoSepK=T KAlg= 0 I1Cent=           0 FoldK=F
 IRaf=         1 NMat=       1 IRICut=       1 DoRegI=T DoRafI=F ISym2E= 0 IDoP0=0 IntGTp=1.
 FoFCou: FMM=F IPFlag=           0 FMFlag=      100000 FMFlg1=           0
         NFxFlg=           0 DoJE=T BraDBF=F KetDBF=F FulRan=T
         wScrn=  0.000000 ICntrl=       500 IOpCl=  0 I1Cent=           0 NGrid=           0
         NMat0=    1 NMatS0=      1 NMatT0=    0 NMatD0=    1 NMtDS0=    0 NMtDT0=    0
 Symmetry not used in FoFCou.
 E= -3009.57815224329    
 DIIS: error= 3.20D-01 at cycle   1 NSaved=   1.
 NSaved= 1 IEnMin= 1 EnMin= -3009.57815224329     IErMin= 1 ErrMin= 3.20D-01
 ErrMax= 3.20D-01  0.00D+00 EMaxC= 1.00D-01 BMatC= 1.21D+01 BMatP= 1.21D+01
 IDIUse=3 WtCom= 0.00D+00 WtEn= 1.00D+00
 Coeff-Com:  0.100D+01
 Coeff-En:   0.100D+01
 Coeff:      0.100D+01
 Gap=     0.677 Goal=   None    Shift=    0.000
 GapD=    0.677 DampG=2.000 DampE=0.250 DampFc=0.5000 IDamp=-1.
 Damping current iteration by 5.00D-01
 RMSDP=2.86D-01 MaxDP=2.87D+01              OVMax= 3.36D-01

 Cycle   2  Pass 1  IDiag  1:
 RMSU=  2.05D-02    CP:  5.80D-01
 E= -3010.02986703757     Delta-E=       -0.451714794288 Rises=F Damp=T
 DIIS: error= 1.43D-01 at cycle   2 NSaved=   2.
 NSaved= 2 IEnMin= 2 EnMin= -3010.02986703757     IErMin= 2 ErrMin= 1.43D-01
 ErrMax= 1.43D-01  0.00D+00 EMaxC= 1.00D-01 BMatC= 1.78D+00 BMatP= 1.21D+01
 IDIUse=3 WtCom= 0.00D+00 WtEn= 1.00D+00
 Coeff-Com: -0.380D+00 0.138D+01
 Coeff-En:   0.155D-01 0.984D+00
 Coeff:      0.155D-01 0.984D+00
 Gap=     0.352 Goal=   None    Shift=    0.000
 RMSDP=1.37D-01 MaxDP=1.33D+01 DE=-4.52D-01 OVMax= 2.78D-01

 Cycle   3  Pass 1  IDiag  1:
 RMSU=  1.44D-02    CP:  1.78D-01  1.74D+00
 E= -3010.44521891298     Delta-E=       -0.415351875406 Rises=F Damp=F
 DIIS: error= 4.11D-02 at cycle   3 NSaved=   3.
 NSaved= 3 IEnMin= 3 EnMin= -3010.44521891298     IErMin= 3 ErrMin= 4.11D-02
 ErrMax= 4.11D-02  0.00D+00 EMaxC= 1.00D-01 BMatC= 1.80D-01 BMatP= 1.78D+00
 IDIUse=3 WtCom= 5.89D-01 WtEn= 4.11D-01
 Coeff-Com: -0.627D-01 0.282D+00 0.781D+00
 Coeff-En:   0.000D+00 0.000D+00 0.100D+01
 Coeff:     -0.369D-01 0.166D+00 0.871D+00
 Gap=     0.367 Goal=   None    Shift=    0.000
 RMSDP=1.12D-02 MaxDP=7.24D-01 DE=-4.15D-01 OVMax= 3.17D-01

 Cycle   4  Pass 1  IDiag  1:
 RMSU=  8.81D-03    CP:  1.72D-01  1.98D+00  6.94D-01
 E= -3010.27217817392     Delta-E=        0.173040739064 Rises=F Damp=F
 DIIS: error= 7.38D-02 at cycle   4 NSaved=   4.
 NSaved= 4 IEnMin= 3 EnMin= -3010.44521891298     IErMin= 3 ErrMin= 4.11D-02
 ErrMax= 7.38D-02  0.00D+00 EMaxC= 1.00D-01 BMatC= 4.09D-01 BMatP= 1.80D-01
 IDIUse=2 WtCom= 0.00D+00 WtEn= 1.00D+00
 Coeff-En:   0.000D+00 0.000D+00 0.671D+00 0.329D+00
 Coeff:      0.000D+00 0.000D+00 0.671D+00 0.329D+00
 Gap=     0.258 Goal=   None    Shift=    0.000
 RMSDP=7.42D-03 MaxDP=5.47D-01 DE= 1.73D-01 OVMax= 1.97D-01

 Cycle   5  Pass 1  IDiag  1:
 RMSU=  3.14D-03    CP:  1.58D-01  1.94D+00  9.52D-01  6.45D-01
 E= -3010.55253550913     Delta-E=       -0.280357335209 Rises=F Damp=F
 DIIS: error= 1.18D-02 at cycle   5 NSaved=   5.
 NSaved= 5 IEnMin= 5 EnMin= -3010.55253550913     IErMin= 5 ErrMin= 1.18D-02
 ErrMax= 1.18D-02  0.00D+00 EMaxC= 1.00D-01 BMatC= 1.23D-02 BMatP= 1.80D-01
 IDIUse=3 WtCom= 8.82D-01 WtEn= 1.18D-01
 Coeff-Com:  0.214D-02-0.311D-03 0.189D+00-0.183D-01 0.827D+00
 Coeff-En:   0.000D+00 0.000D+00 0.412D-01 0.000D+00 0.959D+00
 Coeff:      0.189D-02-0.275D-03 0.172D+00-0.162D-01 0.843D+00
 Gap=     0.237 Goal=   None    Shift=    0.000
 RMSDP=2.77D-03 MaxDP=2.06D-01 DE=-2.80D-01 OVMax= 3.96D-02

 Cycle   6  Pass 1  IDiag  1:
 RMSU=  1.58D-03    CP:  1.54D-01  1.91D+00  1.03D+00  6.41D-01  1.33D+00
 E= -3010.56070485368     Delta-E=       -0.008169344553 Rises=F Damp=F
 DIIS: error= 1.50D-03 at cycle   6 NSaved=   6.
 NSaved= 6 IEnMin= 6 EnMin= -3010.56070485368     IErMin= 6 ErrMin= 1.50D-03
 ErrMax= 1.50D-03  0.00D+00 EMaxC= 1.00D-01 BMatC= 4.52D-04 BMatP= 1.23D-02
 IDIUse=3 WtCom= 9.85D-01 WtEn= 1.50D-02
 Coeff-Com: -0.230D-02 0.441D-02 0.599D-02-0.316D-01 0.307D+00 0.716D+00
 Coeff-En:   0.000D+00 0.000D+00 0.000D+00 0.000D+00 0.000D+00 0.100D+01
 Coeff:     -0.227D-02 0.435D-02 0.590D-02-0.311D-01 0.303D+00 0.720D+00
 Gap=     0.240 Goal=   None    Shift=    0.000
 RMSDP=9.09D-04 MaxDP=5.27D-02 DE=-8.17D-03 OVMax= 7.48D-03

 Cycle   7  Pass 1  IDiag  1:
 RMSU=  2.10D-04    CP:  1.52D-01  1.92D+00  1.03D+00  6.67D-01  1.46D+00
                    CP:  1.01D+00
 E= -3010.56114458058     Delta-E=       -0.000439726902 Rises=F Damp=F
 DIIS: error= 3.16D-04 at cycle   7 NSaved=   7.
 NSaved= 7 IEnMin= 7 EnMin= -3010.56114458058     IErMin= 7 ErrMin= 3.16D-04
 ErrMax= 3.16D-04  0.00D+00 EMaxC= 1.00D-01 BMatC= 1.28D-05 BMatP= 4.52D-04
 IDIUse=3 WtCom= 9.97D-01 WtEn= 3.16D-03
 Coeff-Com:  0.458D-05-0.476D-03-0.139D-01-0.169D-02-0.349D-01 0.117D+00
 Coeff-Com:  0.934D+00
 Coeff-En:   0.000D+00 0.000D+00 0.000D+00 0.000D+00 0.000D+00 0.000D+00
 Coeff-En:   0.100D+01
 Coeff:      0.457D-05-0.474D-03-0.139D-01-0.169D-02-0.348D-01 0.117D+00
 Coeff:      0.934D+00
 Gap=     0.240 Goal=   None    Shift=    0.000
 RMSDP=3.83D-04 MaxDP=2.79D-02 DE=-4.40D-04 OVMax= 4.43D-03

 Cycle   8  Pass 1  IDiag  1:
 RMSU=  9.55D-05    CP:  1.51D-01  1.92D+00  1.03D+00  6.80D-01  1.53D+00
                    CP:  1.10D+00  1.24D+00
 E= -3010.56118953429     Delta-E=       -0.000044953709 Rises=F Damp=F
 DIIS: error= 1.11D-04 at cycle   8 NSaved=   8.
 NSaved= 8 IEnMin= 8 EnMin= -3010.56118953429     IErMin= 8 ErrMin= 1.11D-04
 ErrMax= 1.11D-04  0.00D+00 EMaxC= 1.00D-01 BMatC= 3.75D-06 BMatP= 1.28D-05
 IDIUse=3 WtCom= 9.99D-01 WtEn= 1.11D-03
 Coeff-Com:  0.459D-03-0.113D-02-0.855D-02 0.510D-02-0.764D-01-0.859D-01
 Coeff-Com:  0.398D+00 0.769D+00
 Coeff-En:   0.000D+00 0.000D+00 0.000D+00 0.000D+00 0.000D+00 0.000D+00
 Coeff-En:   0.000D+00 0.100D+01
 Coeff:      0.459D-03-0.113D-02-0.854D-02 0.510D-02-0.763D-01-0.858D-01
 Coeff:      0.397D+00 0.769D+00
 Gap=     0.239 Goal=   None    Shift=    0.000
 RMSDP=1.73D-04 MaxDP=1.23D-02 DE=-4.50D-05 OVMax= 2.86D-03

 Cycle   9  Pass 1  IDiag  1:
 RMSU=  6.00D-05    CP:  1.51D-01  1.92D+00  1.04D+00  6.87D-01  1.55D+00
                    CP:  1.17D+00  1.36D+00  1.37D+00
 E= -3010.56120351720     Delta-E=       -0.000013982909 Rises=F Damp=F
 DIIS: error= 6.15D-05 at cycle   9 NSaved=   9.
 NSaved= 9 IEnMin= 9 EnMin= -3010.56120351720     IErMin= 9 ErrMin= 6.15D-05
 ErrMax= 6.15D-05  0.00D+00 EMaxC= 1.00D-01 BMatC= 1.08D-06 BMatP= 3.75D-06
 IDIUse=1 WtCom= 1.00D+00 WtEn= 0.00D+00
 Coeff-Com:  0.105D-03-0.195D-03-0.668D-03 0.304D-02-0.243D-01-0.522D-01
 Coeff-Com: -0.346D-01 0.331D+00 0.778D+00
 Coeff:      0.105D-03-0.195D-03-0.668D-03 0.304D-02-0.243D-01-0.522D-01
 Coeff:     -0.346D-01 0.331D+00 0.778D+00
 Gap=     0.239 Goal=   None    Shift=    0.000
 RMSDP=5.81D-05 MaxDP=5.01D-03 DE=-1.40D-05 OVMax= 1.94D-03

 Cycle  10  Pass 1  IDiag  1:
 RMSU=  1.99D-05    CP:  1.51D-01  1.92D+00  1.04D+00  6.88D-01  1.55D+00
                    CP:  1.18D+00  1.43D+00  1.68D+00  1.40D+00
 E= -3010.56120796474     Delta-E=       -0.000004447545 Rises=F Damp=F
 DIIS: error= 2.48D-05 at cycle  10 NSaved=  10.
 NSaved=10 IEnMin=10 EnMin= -3010.56120796474     IErMin=10 ErrMin= 2.48D-05
 ErrMax= 2.48D-05  0.00D+00 EMaxC= 1.00D-01 BMatC= 2.33D-07 BMatP= 1.08D-06
 IDIUse=1 WtCom= 1.00D+00 WtEn= 0.00D+00
 Coeff-Com: -0.122D-03 0.316D-03 0.237D-02-0.678D-03 0.166D-01 0.774D-02
 Coeff-Com: -0.156D+00-0.128D+00 0.279D+00 0.979D+00
 Coeff:     -0.122D-03 0.316D-03 0.237D-02-0.678D-03 0.166D-01 0.774D-02
 Coeff:     -0.156D+00-0.128D+00 0.279D+00 0.979D+00
 Gap=     0.239 Goal=   None    Shift=    0.000
 RMSDP=8.09D-05 MaxDP=5.18D-03 DE=-4.45D-06 OVMax= 1.66D-03

 Cycle  11  Pass 1  IDiag  1:
 RMSU=  1.08D-05    CP:  1.51D-01  1.92D+00  1.04D+00  6.89D-01  1.55D+00
                    CP:  1.19D+00  1.46D+00  1.90D+00  1.88D+00  1.57D+00
 E= -3010.56120982098     Delta-E=       -0.000001856238 Rises=F Damp=F
 DIIS: error= 1.15D-05 at cycle  11 NSaved=  11.
 NSaved=11 IEnMin=11 EnMin= -3010.56120982098     IErMin=11 ErrMin= 1.15D-05
 ErrMax= 1.15D-05  0.00D+00 EMaxC= 1.00D-01 BMatC= 4.77D-08 BMatP= 2.33D-07
 IDIUse=1 WtCom= 1.00D+00 WtEn= 0.00D+00
 Coeff-Com:  0.798D-05-0.549D-05 0.771D-03-0.711D-03 0.755D-02 0.117D-01
 Coeff-Com: -0.946D-02-0.101D+00-0.157D+00 0.171D+00 0.108D+01
 Coeff:      0.798D-05-0.549D-05 0.771D-03-0.711D-03 0.755D-02 0.117D-01
 Coeff:     -0.946D-02-0.101D+00-0.157D+00 0.171D+00 0.108D+01
 Gap=     0.239 Goal=   None    Shift=    0.000
 RMSDP=5.16D-05 MaxDP=3.34D-03 DE=-1.86D-06 OVMax= 8.58D-04

 Cycle  12  Pass 1  IDiag  1:
 RMSU=  4.90D-06    CP:  1.51D-01  1.92D+00  1.04D+00  6.89D-01  1.54D+00
                    CP:  1.19D+00  1.45D+00  2.02D+00  2.17D+00  2.10D+00
                    CP:  1.37D+00
 E= -3010.56121020460     Delta-E=       -0.000000383617 Rises=F Damp=F
 DIIS: error= 3.70D-06 at cycle  12 NSaved=  12.
 NSaved=12 IEnMin=12 EnMin= -3010.56121020460     IErMin=12 ErrMin= 3.70D-06
 ErrMax= 3.70D-06  0.00D+00 EMaxC= 1.00D-01 BMatC= 7.17D-09 BMatP= 4.77D-08
 IDIUse=1 WtCom= 1.00D+00 WtEn= 0.00D+00
 Coeff-Com:  0.230D-04-0.527D-04-0.180D-03-0.133D-04-0.155D-02 0.848D-05
 Coeff-Com:  0.239D-01 0.542D-02-0.626D-01-0.116D+00 0.145D+00 0.101D+01
 Coeff:      0.230D-04-0.527D-04-0.180D-03-0.133D-04-0.155D-02 0.848D-05
 Coeff:      0.239D-01 0.542D-02-0.626D-01-0.116D+00 0.145D+00 0.101D+01
 Gap=     0.239 Goal=   None    Shift=    0.000
 RMSDP=7.37D-06 MaxDP=3.27D-04 DE=-3.84D-07 OVMax= 2.30D-04

 Cycle  13  Pass 1  IDiag  1:
 RMSU=  1.98D-06    CP:  1.51D-01  1.92D+00  1.04D+00  6.89D-01  1.54D+00
                    CP:  1.19D+00  1.45D+00  2.04D+00  2.23D+00  2.26D+00
                    CP:  1.58D+00  1.37D+00
 E= -3010.56121025260     Delta-E=       -0.000000047999 Rises=F Damp=F
 DIIS: error= 2.48D-06 at cycle  13 NSaved=  13.
 NSaved=13 IEnMin=13 EnMin= -3010.56121025260     IErMin=13 ErrMin= 2.48D-06
 ErrMax= 2.48D-06  0.00D+00 EMaxC= 1.00D-01 BMatC= 1.62D-09 BMatP= 7.17D-09
 IDIUse=1 WtCom= 1.00D+00 WtEn= 0.00D+00
 Coeff-Com:  0.526D-06-0.576D-05-0.205D-03 0.821D-04-0.153D-02-0.145D-02
 Coeff-Com:  0.811D-02 0.175D-01 0.708D-02-0.724D-01-0.164D+00 0.361D+00
 Coeff-Com:  0.846D+00
 Coeff:      0.526D-06-0.576D-05-0.205D-03 0.821D-04-0.153D-02-0.145D-02
 Coeff:      0.811D-02 0.175D-01 0.708D-02-0.724D-01-0.164D+00 0.361D+00
 Coeff:      0.846D+00
 Gap=     0.239 Goal=   None    Shift=    0.000
 RMSDP=4.08D-06 MaxDP=3.34D-04 DE=-4.80D-08 OVMax= 1.04D-04

 Cycle  14  Pass 1  IDiag  1:
 RMSU=  1.18D-06    CP:  1.51D-01  1.92D+00  1.04D+00  6.89D-01  1.54D+00
                    CP:  1.19D+00  1.45D+00  2.06D+00  2.25D+00  2.35D+00
                    CP:  1.64D+00  1.57D+00  1.25D+00
 E= -3010.56121026228     Delta-E=       -0.000000009687 Rises=F Damp=F
 DIIS: error= 8.81D-07 at cycle  14 NSaved=  14.
 NSaved=14 IEnMin=14 EnMin= -3010.56121026228     IErMin=14 ErrMin= 8.81D-07
 ErrMax= 8.81D-07  0.00D+00 EMaxC= 1.00D-01 BMatC= 2.97D-10 BMatP= 1.62D-09
 IDIUse=1 WtCom= 1.00D+00 WtEn= 0.00D+00
 Coeff-Com: -0.527D-05 0.101D-04-0.330D-04 0.194D-04-0.445D-04-0.203D-03
 Coeff-Com: -0.264D-02 0.296D-02 0.150D-01 0.565D-02-0.599D-01-0.121D+00
 Coeff-Com:  0.220D+00 0.940D+00
 Coeff:     -0.527D-05 0.101D-04-0.330D-04 0.194D-04-0.445D-04-0.203D-03
 Coeff:     -0.264D-02 0.296D-02 0.150D-01 0.565D-02-0.599D-01-0.121D+00
 Coeff:      0.220D+00 0.940D+00
 Gap=     0.239 Goal=   None    Shift=    0.000
 RMSDP=1.75D-06 MaxDP=1.21D-04 DE=-9.69D-09 OVMax= 3.87D-05

 Cycle  15  Pass 1  IDiag  1:
 RMSU=  4.05D-07    CP:  1.51D-01  1.92D+00  1.04D+00  6.90D-01  1.54D+00
                    CP:  1.19D+00  1.45D+00  2.07D+00  2.26D+00  2.37D+00
                    CP:  1.65D+00  1.66D+00  1.45D+00  1.16D+00
 E= -3010.56121026375     Delta-E=       -0.000000001464 Rises=F Damp=F
 DIIS: error= 3.90D-07 at cycle  15 NSaved=  15.
 NSaved=15 IEnMin=15 EnMin= -3010.56121026375     IErMin=15 ErrMin= 3.90D-07
 ErrMax= 3.90D-07  0.00D+00 EMaxC= 1.00D-01 BMatC= 5.54D-11 BMatP= 2.97D-10
 IDIUse=1 WtCom= 1.00D+00 WtEn= 0.00D+00
 Coeff-Com: -0.132D-05 0.314D-05 0.140D-04-0.127D-05 0.159D-03 0.437D-04
 Coeff-Com: -0.202D-02-0.129D-02 0.394D-02 0.120D-01 0.417D-02-0.107D+00
 Coeff-Com: -0.442D-01 0.350D+00 0.785D+00
 Coeff:     -0.132D-05 0.314D-05 0.140D-04-0.127D-05 0.159D-03 0.437D-04
 Coeff:     -0.202D-02-0.129D-02 0.394D-02 0.120D-01 0.417D-02-0.107D+00
 Coeff:     -0.442D-01 0.350D+00 0.785D+00
 Gap=     0.239 Goal=   None    Shift=    0.000
 RMSDP=7.09D-07 MaxDP=5.27D-05 DE=-1.46D-09 OVMax= 1.81D-05

 Cycle  16  Pass 1  IDiag  1:
 RMSU=  1.05D-07    CP:  1.51D-01  1.92D+00  1.04D+00  6.90D-01  1.54D+00
                    CP:  1.19D+00  1.45D+00  2.07D+00  2.26D+00  2.38D+00
                    CP:  1.64D+00  1.68D+00  1.50D+00  1.36D+00  1.20D+00
 E= -3010.56121026400     Delta-E=       -0.000000000255 Rises=F Damp=F
 DIIS: error= 1.40D-07 at cycle  16 NSaved=  16.
 NSaved=16 IEnMin=16 EnMin= -3010.56121026400     IErMin=16 ErrMin= 1.40D-07
 ErrMax= 1.40D-07  0.00D+00 EMaxC= 1.00D-01 BMatC= 8.73D-12 BMatP= 5.54D-11
 IDIUse=1 WtCom= 1.00D+00 WtEn= 0.00D+00
 Coeff-Com:  0.604D-06-0.982D-06 0.109D-04-0.535D-05 0.456D-04 0.604D-04
 Coeff-Com:  0.159D-03-0.765D-03-0.262D-02 0.876D-03 0.119D-01 0.710D-02
 Coeff-Com: -0.463D-01-0.129D+00 0.122D+00 0.104D+01
 Coeff:      0.604D-06-0.982D-06 0.109D-04-0.535D-05 0.456D-04 0.604D-04
 Coeff:      0.159D-03-0.765D-03-0.262D-02 0.876D-03 0.119D-01 0.710D-02
 Coeff:     -0.463D-01-0.129D+00 0.122D+00 0.104D+01
 Gap=     0.239 Goal=   None    Shift=    0.000
 RMSDP=2.81D-07 MaxDP=1.68D-05 DE=-2.55D-10 OVMax= 1.12D-05

 Cycle  17  Pass 1  IDiag  1:
 RMSU=  8.88D-08    CP:  1.51D-01  1.92D+00  1.04D+00  6.90D-01  1.54D+00
                    CP:  1.19D+00  1.45D+00  2.07D+00  2.26D+00  2.38D+00
                    CP:  1.64D+00  1.69D+00  1.52D+00  1.46D+00  1.32D+00
                    CP:  1.53D+00
 E= -3010.56121026411     Delta-E=       -0.000000000104 Rises=F Damp=F
 DIIS: error= 7.45D-08 at cycle  17 NSaved=  17.
 NSaved=17 IEnMin=17 EnMin= -3010.56121026411     IErMin=17 ErrMin= 7.45D-08
 ErrMax= 7.45D-08  0.00D+00 EMaxC= 1.00D-01 BMatC= 1.96D-12 BMatP= 8.73D-12
 IDIUse=1 WtCom= 1.00D+00 WtEn= 0.00D+00
 Coeff-Com:  0.406D-06-0.866D-06-0.146D-05 0.473D-06-0.318D-04-0.132D-04
 Coeff-Com:  0.440D-03 0.301D-03-0.899D-03-0.206D-02-0.734D-04 0.219D-01
 Coeff-Com: -0.892D-03-0.785D-01-0.128D+00 0.120D+00 0.107D+01
 Coeff:      0.406D-06-0.866D-06-0.146D-05 0.473D-06-0.318D-04-0.132D-04
 Coeff:      0.440D-03 0.301D-03-0.899D-03-0.206D-02-0.734D-04 0.219D-01
 Coeff:     -0.892D-03-0.785D-01-0.128D+00 0.120D+00 0.107D+01
 Gap=     0.239 Goal=   None    Shift=    0.000
 RMSDP=1.38D-07 MaxDP=6.59D-06 DE=-1.04D-10 OVMax= 5.54D-06

 Cycle  18  Pass 1  IDiag  1:
 RMSU=  3.31D-08    CP:  1.51D-01  1.92D+00  1.04D+00  6.90D-01  1.54D+00
                    CP:  1.19D+00  1.45D+00  2.07D+00  2.26D+00  2.38D+00
                    CP:  1.64D+00  1.69D+00  1.52D+00  1.51D+00  1.38D+00
                    CP:  1.83D+00  1.58D+00
 E= -3010.56121026411     Delta-E=       -0.000000000001 Rises=F Damp=F
 DIIS: error= 5.36D-08 at cycle  18 NSaved=  18.
 NSaved=18 IEnMin=18 EnMin= -3010.56121026411     IErMin=18 ErrMin= 5.36D-08
 ErrMax= 5.36D-08  0.00D+00 EMaxC= 1.00D-01 BMatC= 9.26D-13 BMatP= 1.96D-12
 IDIUse=1 WtCom= 1.00D+00 WtEn= 0.00D+00
 Coeff-Com: -0.135D-08-0.882D-07-0.383D-05 0.190D-05-0.279D-04-0.298D-04
 Coeff-Com:  0.116D-03 0.330D-03 0.379D-03-0.121D-02-0.382D-02 0.912D-02
 Coeff-Com:  0.112D-01 0.887D-02-0.891D-01-0.280D+00 0.476D+00 0.867D+00
 Coeff:     -0.135D-08-0.882D-07-0.383D-05 0.190D-05-0.279D-04-0.298D-04
 Coeff:      0.116D-03 0.330D-03 0.379D-03-0.121D-02-0.382D-02 0.912D-02
 Coeff:      0.112D-01 0.887D-02-0.891D-01-0.280D+00 0.476D+00 0.867D+00
 Gap=     0.239 Goal=   None    Shift=    0.000
 RMSDP=1.08D-07 MaxDP=7.58D-06 DE=-9.09D-13 OVMax= 3.25D-06

 Cycle  19  Pass 1  IDiag  1:
 RMSU=  1.74D-08    CP:  1.51D-01  1.92D+00  1.04D+00  6.90D-01  1.54D+00
                    CP:  1.19D+00  1.45D+00  2.07D+00  2.26D+00  2.38D+00
                    CP:  1.64D+00  1.69D+00  1.52D+00  1.53D+00  1.38D+00
                    CP:  2.00D+00  2.03D+00  1.23D+00
 E= -3010.56121026410     Delta-E=        0.000000000012 Rises=F Damp=F
 DIIS: error= 2.22D-08 at cycle  19 NSaved=  19.
 NSaved=19 IEnMin=18 EnMin= -3010.56121026411     IErMin=19 ErrMin= 2.22D-08
 ErrMax= 2.22D-08  0.00D+00 EMaxC= 1.00D-01 BMatC= 1.18D-13 BMatP= 9.26D-13
 IDIUse=1 WtCom= 1.00D+00 WtEn= 0.00D+00
 Coeff-Com: -0.115D-06 0.223D-06-0.497D-06 0.234D-06 0.273D-05-0.456D-05
 Coeff-Com: -0.816D-04 0.190D-04 0.346D-03 0.256D-03-0.944D-03-0.308D-02
 Coeff-Com: -0.675D-03 0.238D-01 0.220D-01-0.840D-01-0.158D+00 0.659D-01
 Coeff-Com:  0.113D+01
 Coeff:     -0.115D-06 0.223D-06-0.497D-06 0.234D-06 0.273D-05-0.456D-05
 Coeff:     -0.816D-04 0.190D-04 0.346D-03 0.256D-03-0.944D-03-0.308D-02
 Coeff:     -0.675D-03 0.238D-01 0.220D-01-0.840D-01-0.158D+00 0.659D-01
 Coeff:      0.113D+01
 Gap=     0.239 Goal=   None    Shift=    0.000
 RMSDP=3.55D-08 MaxDP=2.03D-06 DE= 1.18D-11 OVMax= 1.52D-06

 Cycle  20  Pass 1  IDiag  1:
 RMSU=  7.23D-09    CP:  1.51D-01  1.92D+00  1.04D+00  6.90D-01  1.54D+00
                    CP:  1.19D+00  1.45D+00  2.07D+00  2.26D+00  2.38D+00
                    CP:  1.64D+00  1.69D+00  1.52D+00  1.54D+00  1.36D+00
                    CP:  2.06D+00  2.23D+00  1.39D+00  1.50D+00
 E= -3010.56121026413     Delta-E=       -0.000000000035 Rises=F Damp=F
 DIIS: error= 7.40D-09 at cycle  20 NSaved=  20.
 NSaved=20 IEnMin=20 EnMin= -3010.56121026413     IErMin=20 ErrMin= 7.40D-09
 ErrMax= 7.40D-09  0.00D+00 EMaxC= 1.00D-01 BMatC= 1.96D-14 BMatP= 1.18D-13
 IDIUse=1 WtCom= 1.00D+00 WtEn= 0.00D+00
 Coeff-Com:  0.510D-09 0.108D-07 0.417D-06-0.150D-06 0.249D-05-0.673D-06
 Coeff-Com: -0.171D-04-0.260D-04-0.956D-07 0.157D-03 0.287D-03-0.105D-02
 Coeff-Com: -0.225D-02 0.287D-02 0.143D-01 0.200D-01-0.722D-01-0.141D+00
 Coeff-Com:  0.186D+00 0.993D+00
 Coeff:      0.510D-09 0.108D-07 0.417D-06-0.150D-06 0.249D-05-0.673D-06
 Coeff:     -0.171D-04-0.260D-04-0.956D-07 0.157D-03 0.287D-03-0.105D-02
 Coeff:     -0.225D-02 0.287D-02 0.143D-01 0.200D-01-0.722D-01-0.141D+00
 Coeff:      0.186D+00 0.993D+00
 Gap=     0.239 Goal=   None    Shift=    0.000
 RMSDP=9.09D-09 MaxDP=4.60D-07 DE=-3.55D-11 OVMax= 3.80D-07

 SCF Done:  E(RwB97XD) =  -3010.56121026     A.U. after   20 cycles
            NFock= 20  Conv=0.91D-08     -V/T= 2.0016
 KE= 3.005808851804D+03 PE=-8.629017002648D+03 EE= 1.875647460558D+03
 Leave Link  502 at Wed May  1 15:10:25 2024, MaxMem=  1207959552 cpu:            1169.6 elap:            1169.7
 (Enter /software/gaussian/g16-c01/sse4/g16/l601.exe)
 Copying SCF densities to generalized density rwf, IOpCl= 0 IROHF=0.

 **********************************************************************

            Population analysis using the SCF Density.

 **********************************************************************

 Alpha  occ. eigenvalues -- -483.28374 -62.83353 -56.63084 -56.62463 -56.62457
 Alpha  occ. eigenvalues --  -19.45482 -19.45250 -14.84782 -10.57537 -10.56336
 Alpha  occ. eigenvalues --  -10.56242 -10.55612 -10.55517 -10.53612  -8.99125
 Alpha  occ. eigenvalues --   -6.81902  -6.79876  -6.79851  -2.91781  -2.91248
 Alpha  occ. eigenvalues --   -2.91227  -2.89608  -2.89607  -1.49108  -1.32101
 Alpha  occ. eigenvalues --   -1.21707  -1.12691  -1.11166  -1.02062  -1.00417
 Alpha  occ. eigenvalues --   -0.94440  -0.90205  -0.84966  -0.80344  -0.79838
 Alpha  occ. eigenvalues --   -0.79374  -0.77614  -0.75445  -0.74934  -0.71242
 Alpha  occ. eigenvalues --   -0.68422  -0.66797  -0.62563  -0.58838  -0.56732
 Alpha  occ. eigenvalues --   -0.55678  -0.54946  -0.52775  -0.52375
 Alpha virt. eigenvalues --   -0.28448  -0.20446  -0.16521  -0.14838  -0.12346
 Alpha virt. eigenvalues --   -0.11547  -0.07946  -0.07606  -0.06222  -0.03885
 Alpha virt. eigenvalues --   -0.03048  -0.01994  -0.01066  -0.00231  -0.00066
 Alpha virt. eigenvalues --    0.00869   0.01903   0.02947   0.03096   0.04104
 Alpha virt. eigenvalues --    0.05273   0.05672   0.05932   0.06576   0.07393
 Alpha virt. eigenvalues --    0.07938   0.08515   0.08722   0.09333   0.10011
 Alpha virt. eigenvalues --    0.11889   0.11932   0.12571   0.12944   0.13387
 Alpha virt. eigenvalues --    0.14508   0.15074   0.15332   0.15928   0.16847
 Alpha virt. eigenvalues --    0.17706   0.18398   0.19630   0.20321   0.21156
 Alpha virt. eigenvalues --    0.22291   0.23202   0.24132   0.24658   0.26633
 Alpha virt. eigenvalues --    0.27311   0.28524   0.29085   0.31313   0.32811
 Alpha virt. eigenvalues --    0.34263   0.35572   0.36063   0.37185   0.37674
 Alpha virt. eigenvalues --    0.38416   0.39250   0.40679   0.42376   0.43382
 Alpha virt. eigenvalues --    0.43719   0.44681   0.45597   0.46726   0.47976
 Alpha virt. eigenvalues --    0.48835   0.51521   0.52308   0.52523   0.54150
 Alpha virt. eigenvalues --    0.55756   0.56509   0.57302   0.59027   0.60632
 Alpha virt. eigenvalues --    0.61468   0.64112   0.66530   0.68124   0.69583
 Alpha virt. eigenvalues --    0.70757   0.70958   0.72515   0.74124   0.74928
 Alpha virt. eigenvalues --    0.76181   0.79577   0.81452   0.85373   0.86292
 Alpha virt. eigenvalues --    0.87556   0.88397   0.92781   0.94052   0.98621
 Alpha virt. eigenvalues --    1.00641   1.01239   1.05333   1.06202   1.07449
 Alpha virt. eigenvalues --    1.10326   1.10729   1.12418   1.13118   1.15362
 Alpha virt. eigenvalues --    1.22803   1.25265   1.27356   1.33420   1.37090
 Alpha virt. eigenvalues --    1.37404   1.39576   1.46387   1.55068   1.57673
 Alpha virt. eigenvalues --    1.59055   1.59697   1.61143   1.63361   1.67206
 Alpha virt. eigenvalues --    1.69731   1.70778   1.73994   1.75908   1.79538
 Alpha virt. eigenvalues --    1.81944   1.85239   1.88257   1.96065   1.98289
 Alpha virt. eigenvalues --    1.99770   2.03547   2.04598   2.08435   2.09465
 Alpha virt. eigenvalues --    2.11754   2.15399   2.20476   2.22868   2.27812
 Alpha virt. eigenvalues --    2.38067   2.42132   2.43331   2.45412   2.52844
 Alpha virt. eigenvalues --    2.57296   2.63399   2.66627   2.68891   2.71876
 Alpha virt. eigenvalues --    2.74391   2.77082   2.77742   2.81488   2.82709
 Alpha virt. eigenvalues --    2.94716   2.97542   3.01189   3.07226   3.09777
 Alpha virt. eigenvalues --    3.13384   3.14484   3.18859   3.23764   3.25313
 Alpha virt. eigenvalues --    3.27837   3.39633   3.47293   3.51679   3.55313
 Alpha virt. eigenvalues --    3.57676   3.70526   3.74649   3.82717   3.87949
 Alpha virt. eigenvalues --    4.12114   4.12313   4.19544   4.24882   4.44821
 Alpha virt. eigenvalues --    4.45626   4.58262   4.60427   4.93539   4.96419
 Alpha virt. eigenvalues --    5.04879   5.09213   5.63319   6.16245   6.67774
 Alpha virt. eigenvalues --    7.50791   7.52378   7.62011  23.21900  23.61898
 Alpha virt. eigenvalues --   23.71838  23.79652  23.96125  24.02020  35.33174
 Alpha virt. eigenvalues --   47.94121  49.86024  49.94830 289.83396 289.85062
 Alpha virt. eigenvalues --  289.974721020.94468
          Condensed to atoms (all electrons):
               1          2          3          4          5          6
     1  C   10.773979  -4.365373   1.090013  -2.684251  -0.844150   0.286254
     2  C   -4.365373  16.201207  -3.279097  -0.804414   0.938923  -0.021190
     3  C    1.090013  -3.279097  15.812031  -5.508379  -2.213793   0.012692
     4  C   -2.684251  -0.804414  -5.508379  17.041839   2.394614   0.018909
     5  C   -0.844150   0.938923  -2.213793   2.394614   8.336347   0.058932
     6  H    0.286254  -0.021190   0.012692   0.018909   0.058932   0.425825
     7  H    0.106507   0.150971   0.156172  -0.054479  -0.036003  -0.003388
     8  H    0.000755   0.007228   0.039501   0.284906  -0.013748  -0.000004
     9  H    0.009342   0.000704  -0.000395   0.015116   0.292418  -0.002783
    10  N   -0.306346   0.510773  -1.060916   0.421788   0.037218  -0.000706
    11  O   -0.016120  -0.044035  -0.277822   0.074445  -0.048146  -0.000022
    12  O    0.421963  -0.135872  -0.280130  -0.116499  -0.052825   0.000026
    13  C    2.088677  -3.723335   2.159612  -5.331606  -2.888471  -0.021451
    14  H   -0.002820  -0.032833   0.031654  -0.164641  -0.038460  -0.000097
    15  Br   0.049818  -0.040184   0.152714   0.032044   0.156640  -0.000382
               7          8          9         10         11         12
     1  C    0.106507   0.000755   0.009342  -0.306346  -0.016120   0.421963
     2  C    0.150971   0.007228   0.000704   0.510773  -0.044035  -0.135872
     3  C    0.156172   0.039501  -0.000395  -1.060916  -0.277822  -0.280130
     4  C   -0.054479   0.284906   0.015116   0.421788   0.074445  -0.116499
     5  C   -0.036003  -0.013748   0.292418   0.037218  -0.048146  -0.052825
     6  H   -0.003388  -0.000004  -0.002783  -0.000706  -0.000022   0.000026
     7  H    0.373049   0.000010  -0.000017  -0.036228  -0.002167   0.029062
     8  H    0.000010   0.248591   0.000136  -0.018179   0.017298  -0.000347
     9  H   -0.000017   0.000136   0.342006   0.000468   0.000013   0.000004
    10  N   -0.036228  -0.018179   0.000468   7.389674   0.255309   0.068663
    11  O   -0.002167   0.017298   0.000013   0.255309   7.666256  -0.000851
    12  O    0.029062  -0.000347   0.000004   0.068663  -0.000851   8.076053
    13  C    0.026264   0.001076   0.007075  -0.156608   0.244770   0.069101
    14  H   -0.000015  -0.002793  -0.006131  -0.000384  -0.000366  -0.000051
    15  Br  -0.000180   0.001393  -0.003928  -0.003042   0.000728   0.001997
              13         14         15
     1  C    2.088677  -0.002820   0.049818
     2  C   -3.723335  -0.032833  -0.040184
     3  C    2.159612   0.031654   0.152714
     4  C   -5.331606  -0.164641   0.032044
     5  C   -2.888471  -0.038460   0.156640
     6  H   -0.021451  -0.000097  -0.000382
     7  H    0.026264  -0.000015  -0.000180
     8  H    0.001076  -0.002793   0.001393
     9  H    0.007075  -0.006131  -0.003928
    10  N   -0.156608  -0.000384  -0.003042
    11  O    0.244770  -0.000366   0.000728
    12  O    0.069101  -0.000051   0.001997
    13  C   13.714965   0.496810  -0.160629
    14  H    0.496810   0.295851  -0.028092
    15  Br  -0.160629  -0.028092  34.529671
 Mulliken charges:
               1
     1  C   -0.608249
     2  C    0.636528
     3  C   -0.833859
     4  C    0.380610
     5  C   -0.079496
     6  H    0.247385
     7  H    0.290445
     8  H    0.434178
     9  H    0.345972
    10  N   -0.101484
    11  O    0.130711
    12  O   -0.080294
    13  C   -0.526251
    14  H    0.452370
    15  Br   0.311434
 Sum of Mulliken charges =   1.00000
 Mulliken charges with hydrogens summed into heavy atoms:
               1
     1  C   -0.360864
     2  C    0.926973
     3  C   -0.833859
     4  C    0.814787
     5  C    0.266477
    10  N   -0.101484
    11  O    0.130711
    12  O   -0.080294
    13  C   -0.073881
    15  Br   0.311434
 Electronic spatial extent (au):  <R**2>=           2796.4529
 Charge=              1.0000 electrons
 Dipole moment (field-independent basis, Debye):
    X=             -1.4446    Y=             -6.2135    Z=             -0.7864  Tot=              6.4275
 Quadrupole moment (field-independent basis, Debye-Ang):
   XX=            -72.2226   YY=            -49.9774   ZZ=            -61.0715
   XY=             -4.9145   XZ=              1.7492   YZ=              4.2540
 Traceless Quadrupole moment (field-independent basis, Debye-Ang):
   XX=            -11.1321   YY=             11.1131   ZZ=              0.0190
   XY=             -4.9145   XZ=              1.7492   YZ=              4.2540
 Octapole moment (field-independent basis, Debye-Ang**2):
  XXX=           -305.0780  YYY=             54.2155  ZZZ=             72.5545  XYY=            -80.5024
  XXY=              0.1595  XXZ=             31.5136  XZZ=            -79.9467  YZZ=              7.0790
  YYZ=             17.7582  XYZ=             -4.6359
 Hexadecapole moment (field-independent basis, Debye-Ang**3):
 XXXX=          -2300.8079 YYYY=           -653.9705 ZZZZ=           -335.5371 XXXY=           -172.2017
 XXXZ=            -19.2382 YYYX=            -79.3574 YYYZ=           -132.9125 ZZZX=            -14.7405
 ZZZY=           -120.6180 XXYY=           -459.9075 XXZZ=           -369.5997 YYZZ=           -147.1915
 XXYZ=            -49.9441 YYXZ=              2.7998 ZZXY=             -9.0791
 N-N= 7.369994800221D+02 E-N=-8.629017003577D+03  KE= 3.005808851804D+03
 No NMR shielding tensors so no spin-rotation constants.
 Leave Link  601 at Wed May  1 15:10:32 2024, MaxMem=  1207959552 cpu:               7.3 elap:               7.3
 (Enter /software/gaussian/g16-c01/sse4/g16/l9999.exe)
 Unable to Open any file for archive entry.
 1\1\GINC-BHX0032\SP\RwB97XD\6-311+G(d)\C6H5Br1N1O2(1+)\BWEIGHT\01-May-
 2024\0\\#P wB97XD/6-311+G* NoSymm #P Field=Y+194\\TitleMe\\1,1\C,0,0.0
 295,1.3397,0.0682\C,0,1.4348,1.2867,0.0064\C,0,2.1118,0.0511,-0.0054\C
 ,0,1.4451,-1.1372,0.0312\C,0,-0.6879,0.1682,0.11\H,0,-0.4713,2.2984,0.
 0781\H,0,2.0273,2.1965,-0.0322\H,0,1.9897,-2.0764,0.0232\H,0,-1.7716,0
 .1804,0.1582\N,0,3.5864,0.051,-0.0675\O,0,4.1471,-1.0597,-0.0881\O,0,4
 .145,1.1639,-0.0901\C,0,-0.0236,-1.1458,0.0835\H,0,-0.4367,-1.8725,0.7
 889\Br,0,-0.5359,-1.8697,-1.7408\\Version=ES64L-G16RevC.01\HF=-3010.56
 12103\RMSD=9.089e-09\Dipole=-2.4748797,-1.296492,0.8367669\Quadrupole=
 -8.2764273,8.2622946,0.0141327,-3.6537809,1.3004645,3.162726\PG=C01 [X
 (C6H5Br1N1O2)]\\@
 The archive entry for this job was punched.


 PERICLES, SOPHOCLES,
 PELOPONESIAN WAR,
 FRENCH VERBS, LATIN VERBS
 H2SO4.
 Job cpu time:       0 days  0 hours 20 minutes 40.0 seconds.
 Elapsed time:       0 days  0 hours 20 minutes 40.0 seconds.
 File lengths (MBytes):  RWF=     40 Int=      0 D2E=      0 Chk=     32 Scr=      1
 Normal termination of Gaussian 16 at Wed May  1 15:10:33 2024.
