 Entering Gaussian System, Link 0=g16
 Initial command:
 /software/gaussian/g16-c01/sse4/g16/l1.exe "/local_scratch/24665362/Gau-29776.inp" -scrdir="/local_scratch/24665362/"
 Entering Link 1 = /software/gaussian/g16-c01/sse4/g16/l1.exe PID=     29793.
  
 Copyright (c) 1988-2019, Gaussian, Inc.  All Rights Reserved.
  
 This is part of the Gaussian(R) 16 program.  It is based on
 the Gaussian(R) 09 system (copyright 2009, Gaussian, Inc.),
 the Gaussian(R) 03 system (copyright 2003, Gaussian, Inc.),
 the Gaussian(R) 98 system (copyright 1998, Gaussian, Inc.),
 the Gaussian(R) 94 system (copyright 1995, Gaussian, Inc.),
 the Gaussian 92(TM) system (copyright 1992, Gaussian, Inc.),
 the Gaussian 90(TM) system (copyright 1990, Gaussian, Inc.),
 the Gaussian 88(TM) system (copyright 1988, Gaussian, Inc.),
 the Gaussian 86(TM) system (copyright 1986, Carnegie Mellon
 University), and the Gaussian 82(TM) system (copyright 1983,
 Carnegie Mellon University). Gaussian is a federally registered
 trademark of Gaussian, Inc.
  
 This software contains proprietary and confidential information,
 including trade secrets, belonging to Gaussian, Inc.
  
 This software is provided under written license and may be
 used, copied, transmitted, or stored only in accord with that
 written license.
  
 The following legend is applicable only to US Government
 contracts under FAR:
  
                    RESTRICTED RIGHTS LEGEND
  
 Use, reproduction and disclosure by the US Government is
 subject to restrictions as set forth in subparagraphs (a)
 and (c) of the Commercial Computer Software - Restricted
 Rights clause in FAR 52.227-19.
  
 Gaussian, Inc.
 340 Quinnipiac St., Bldg. 40, Wallingford CT 06492
  
  
 ---------------------------------------------------------------
 Warning -- This program may not be used in any manner that
 competes with the business of Gaussian, Inc. or will provide
 assistance to any competitor of Gaussian, Inc.  The licensee
 of this program is prohibited from giving any competitor of
 Gaussian, Inc. access to this program.  By using this program,
 the user acknowledges that Gaussian, Inc. is engaged in the
 business of creating and licensing software in the field of
 computational chemistry and represents and warrants to the
 licensee that it is not a competitor of Gaussian, Inc. and that
 it will not use this program in any manner prohibited above.
 ---------------------------------------------------------------
  

 Cite this work as:
 Gaussian 16, Revision C.01,
 M. J. Frisch, G. W. Trucks, H. B. Schlegel, G. E. Scuseria, 
 M. A. Robb, J. R. Cheeseman, G. Scalmani, V. Barone, 
 G. A. Petersson, H. Nakatsuji, X. Li, M. Caricato, A. V. Marenich, 
 J. Bloino, B. G. Janesko, R. Gomperts, B. Mennucci, H. P. Hratchian, 
 J. V. Ortiz, A. F. Izmaylov, J. L. Sonnenberg, D. Williams-Young, 
 F. Ding, F. Lipparini, F. Egidi, J. Goings, B. Peng, A. Petrone, 
 T. Henderson, D. Ranasinghe, V. G. Zakrzewski, J. Gao, N. Rega, 
 G. Zheng, W. Liang, M. Hada, M. Ehara, K. Toyota, R. Fukuda, 
 J. Hasegawa, M. Ishida, T. Nakajima, Y. Honda, O. Kitao, H. Nakai, 
 T. Vreven, K. Throssell, J. A. Montgomery, Jr., J. E. Peralta, 
 F. Ogliaro, M. J. Bearpark, J. J. Heyd, E. N. Brothers, K. N. Kudin, 
 V. N. Staroverov, T. A. Keith, R. Kobayashi, J. Normand, 
 K. Raghavachari, A. P. Rendell, J. C. Burant, S. S. Iyengar, 
 J. Tomasi, M. Cossi, J. M. Millam, M. Klene, C. Adamo, R. Cammi, 
 J. W. Ochterski, R. L. Martin, K. Morokuma, O. Farkas, 
 J. B. Foresman, and D. J. Fox, Gaussian, Inc., Wallingford CT, 2019.
 
 ******************************************
 Gaussian 16:  ES64L-G16RevC.01  3-Jul-2019
                 2-May-2024 
 ******************************************
 %chk=geometry.chk
 %mem=1GB
 %nprocshared=12
 Will use up to   12 processors via shared memory.
 ----------------------------------------
 #P wB97XD/6-311+G* NoSymm #P Field=Z-204
 ----------------------------------------
 1/38=1,172=1/1;
 2/12=2,15=1,17=6,18=5,40=1/2;
 3/5=4,6=6,7=11,11=2,14=3,15=-204,25=1,30=1,74=-58/1,2,3;
 4//1;
 5/5=2,38=5/2;
 6/7=2,8=2,9=2,10=2,28=1/1;
 99/5=1,9=1/99;
 Leave Link    1 at Thu May  2 13:58:20 2024, MaxMem=   134217728 cpu:               1.0 elap:               1.0
 (Enter /software/gaussian/g16-c01/sse4/g16/l101.exe)
 -------
 TitleMe
 -------
 Symbolic Z-matrix:
 Charge =  1 Multiplicity = 1
 C                     0.5193    1.233    -0.0319 
 C                     1.9445    1.2692   -0.0367 
 C                     2.6204    0.0928   -0.025 
 C                    -0.196     0.0301    0.001 
 H                    -0.0207    2.1742   -0.0434 
 H                     2.4828    2.2089   -0.0361 
 H                    -1.2777    0.0399    0.0117 
 N                     4.0921    0.0959    0.0366 
 O                     4.6393   -1.0217    0.1446 
 O                     4.6649    1.1984   -0.0233 
 C                     0.4943   -1.1671    0.021 
 H                    -0.0325   -2.1149    0.0545 
 C                     1.9629   -1.2165   -0.0211 
 H                     2.4436   -1.9631    0.6151 
 Br                    2.173    -1.9491   -1.9062 
 
 ITRead=  0  0  0  0  0  0  0  0  0  0  0  0  0  0  0
 MicOpt= -1 -1 -1 -1 -1 -1 -1 -1 -1 -1 -1 -1 -1 -1 -1
 NAtoms=     15 NQM=       15 NQMF=       0 NMMI=      0 NMMIF=      0
                NMic=       0 NMicF=      0.
                    Isotopes and Nuclear Properties:
 (Nuclear quadrupole moments (NQMom) in fm**2, nuclear magnetic moments (NMagM)
  in nuclear magnetons)

  Atom         1           2           3           4           5           6           7           8           9          10
 IAtWgt=          12          12          12          12           1           1           1          14          16          16
 AtmWgt=  12.0000000  12.0000000  12.0000000  12.0000000   1.0078250   1.0078250   1.0078250  14.0030740  15.9949146  15.9949146
 NucSpn=           0           0           0           0           1           1           1           2           0           0
 AtZEff=  -0.0000000  -0.0000000  -0.0000000  -0.0000000  -0.0000000  -0.0000000  -0.0000000  -0.0000000  -0.0000000  -0.0000000
 NQMom=    0.0000000   0.0000000   0.0000000   0.0000000   0.0000000   0.0000000   0.0000000   2.0440000   0.0000000   0.0000000
 NMagM=    0.0000000   0.0000000   0.0000000   0.0000000   2.7928460   2.7928460   2.7928460   0.4037610   0.0000000   0.0000000
 AtZNuc=   6.0000000   6.0000000   6.0000000   6.0000000   1.0000000   1.0000000   1.0000000   7.0000000   8.0000000   8.0000000

  Atom        11          12          13          14          15
 IAtWgt=          12           1          12           1          79
 AtmWgt=  12.0000000   1.0078250  12.0000000   1.0078250  78.9183361
 NucSpn=           0           1           0           1           3
 AtZEff=  -0.0000000  -0.0000000  -0.0000000  -0.0000000  -0.0000000
 NQMom=    0.0000000   0.0000000   0.0000000   0.0000000  31.3000000
 NMagM=    0.0000000   2.7928460   0.0000000   2.7928460   2.1063990
 AtZNuc=   6.0000000   1.0000000   6.0000000   1.0000000  35.0000000
 Leave Link  101 at Thu May  2 13:58:22 2024, MaxMem=   134217728 cpu:               1.5 elap:               1.5
 (Enter /software/gaussian/g16-c01/sse4/g16/l202.exe)
                          Input orientation:                          
 ---------------------------------------------------------------------
 Center     Atomic      Atomic             Coordinates (Angstroms)
 Number     Number       Type             X           Y           Z
 ---------------------------------------------------------------------
      1          6           0        0.519300    1.233000   -0.031900
      2          6           0        1.944500    1.269200   -0.036700
      3          6           0        2.620400    0.092800   -0.025000
      4          6           0       -0.196000    0.030100    0.001000
      5          1           0       -0.020700    2.174200   -0.043400
      6          1           0        2.482800    2.208900   -0.036100
      7          1           0       -1.277700    0.039900    0.011700
      8          7           0        4.092100    0.095900    0.036600
      9          8           0        4.639300   -1.021700    0.144600
     10          8           0        4.664900    1.198400   -0.023300
     11          6           0        0.494300   -1.167100    0.021000
     12          1           0       -0.032500   -2.114900    0.054500
     13          6           0        1.962900   -1.216500   -0.021100
     14          1           0        2.443600   -1.963100    0.615100
     15         35           0        2.173000   -1.949100   -1.906200
 ---------------------------------------------------------------------
                    Distance matrix (angstroms):
                    1          2          3          4          5
     1  C    0.000000
     2  C    1.425668   0.000000
     3  C    2.390549   1.356796   0.000000
     4  C    1.399895   2.473566   2.817218   0.000000
     5  H    1.085168   2.163581   3.362733   2.151712   0.000000
     6  H    2.192654   1.082960   2.120598   3.453189   2.503751
     7  H    2.157452   3.449071   3.898632   1.081797   2.477564
     8  N    3.750012   2.448304   1.472992   4.288753   4.608780
     9  O    4.699917   3.541615   2.312322   4.950458   5.653735
    10  O    4.145753   2.721354   2.324292   4.999386   4.786171
    11  C    2.400813   2.835836   2.471794   1.382101   3.381369
    12  H    3.394169   3.920329   3.452266   2.151887   4.290233
    13  C    2.843264   2.485817   1.465124   2.493060   3.928360
    14  H    3.786370   3.334922   2.160489   3.364142   4.860416
    15  Br   4.046416   3.728900   2.812194   3.628609   5.028314
                    6          7          8          9         10
     6  H    0.000000
     7  H    4.341452   0.000000
     8  N    2.657047   5.370150   0.000000
     9  O    3.888434   6.012948   1.249048   0.000000
    10  O    2.404752   6.054572   1.243863   2.226587   0.000000
    11  C    3.918516   2.144043   3.813080   4.149391   4.794941
    12  H    5.003018   2.489080   4.679774   4.798846   5.748876
    13  C    3.464662   3.475788   2.501842   2.688591   3.623886
    14  H    4.222698   4.268978   2.700314   2.434893   3.916224
    15  Br   4.569706   4.420610   3.411663   3.338935   4.434144
                   11         12         13         14         15
    11  C    0.000000
    12  H    1.084880   0.000000
    13  C    1.470034   2.189625   0.000000
    14  H    2.187771   2.543302   1.092353   0.000000
    15  Br   2.672762   2.955683   2.033334   2.535818   0.000000
 Symmetry turned off by external request.
 Stoichiometry    C6H5BrNO2(1+)
 Framework group  C1[X(C6H5BrNO2)]
 Deg. of freedom    39
 Full point group                 C1      NOp   1
 Rotational constants (GHZ):           1.1632986           0.9594224           0.5957624
 Leave Link  202 at Thu May  2 13:58:23 2024, MaxMem=   134217728 cpu:               1.2 elap:               1.2
 (Enter /software/gaussian/g16-c01/sse4/g16/l301.exe)
 Standard basis: 6-311+G(d) (5D, 7F)
 Ernie: Thresh=  0.10000D-02 Tol=  0.10000D-05 Strict=F.
 The following finite field(s) will be applied:
 An electric field of              0.0000  0.0000 -0.0204
   261 basis functions,   443 primitive gaussians,   273 cartesian basis functions
    49 alpha electrons       49 beta electrons
       nuclear repulsion energy       772.8945969580 Hartrees.
 IExCor= 4639 DFT=T Ex+Corr=wB97XD ExCW=0 ScaHFX=  1.000000
 ScaDFX=  1.000000  1.000000  1.000000  1.000000 ScalE2=  1.000000  1.000000
 IRadAn=      5 IRanWt=     -1 IRanGd=            0 ICorTp=0 IEmpDi=121
 HFx  wShort=  0.000000 wLong=  0.200000 cFull=  0.222036 cShort=  0.000000 cLong=  0.777964
 DFx  wShort=  0.000000 wLong=  0.200000 cFull=  0.000000 cShort=  0.000000 cLong=  1.000000
 NAtoms=   15 NActive=   15 NUniq=   15 SFac= 1.00D+00 NAtFMM=   60 NAOKFM=F Big=F
 Integral buffers will be    131072 words long.
 Raffenetti 2 integral format.
 Two-electron integral symmetry is turned off.
 R6Disp:  Grimme-D2 Dispersion energy=       -0.0080346408 Hartrees.
 Nuclear repulsion after empirical dispersion term =      772.8865623173 Hartrees.
 Leave Link  301 at Thu May  2 13:58:25 2024, MaxMem=   134217728 cpu:               1.2 elap:               1.2
 (Enter /software/gaussian/g16-c01/sse4/g16/l302.exe)
 NPDir=0 NMtPBC=     1 NCelOv=     1 NCel=       1 NClECP=     1 NCelD=      1
         NCelK=      1 NCelE2=     1 NClLst=     1 CellRange=     0.0.
 One-electron integrals computed using PRISM.
 NBasis=   261 RedAO= T EigKep=  2.52D-06  NBF=   261
 NBsUse=   261 1.00D-06 EigRej= -1.00D+00 NBFU=   261
 Precomputing XC quadrature grid using
 IXCGrd= 4 IRadAn=           5 IRanWt=          -1 IRanGd=           0 AccXCQ= 0.00D+00.
 Generated NRdTot=       0 NPtTot=           0 NUsed=           0 NTot=          32
 NSgBfM=   273   273   273   273   273 MxSgAt=    15 MxSgA2=    15.
 Leave Link  302 at Thu May  2 13:58:47 2024, MaxMem=   134217728 cpu:              21.9 elap:              21.9
 (Enter /software/gaussian/g16-c01/sse4/g16/l303.exe)
 DipDrv:  MaxL=1.
 The nuclear repulsion energy is now       775.4094863821 hartrees.
 Leave Link  303 at Thu May  2 13:58:50 2024, MaxMem=   134217728 cpu:               3.4 elap:               3.4
 (Enter /software/gaussian/g16-c01/sse4/g16/l401.exe)
 ExpMin= 3.50D-02 ExpMax= 4.40D+05 ExpMxC= 1.51D+04 IAcc=3 IRadAn=         5 AccDes= 0.00D+00
 Harris functional with IExCor= 4639 and IRadAn=       5 diagonalized for initial guess.
 HarFok:  IExCor= 4639 AccDes= 0.00D+00 IRadAn=         5 IDoV= 1 UseB2=F ITyADJ=14
 ICtDFT=  3500011 ScaDFX=  1.000000  1.000000  1.000000  1.000000
 FoFCou: FMM=F IPFlag=           0 FMFlag=      100000 FMFlg1=           0
         NFxFlg=           0 DoJE=T BraDBF=F KetDBF=T FulRan=T
         wScrn=  0.000000 ICntrl=       500 IOpCl=  0 I1Cent=   200000004 NGrid=           0
         NMat0=    1 NMatS0=      1 NMatT0=    0 NMatD0=    1 NMtDS0=    0 NMtDT0=    0
 Symmetry not used in FoFCou.
 Harris En= -2970.65895305317    
 JPrj=0 DoOrth=F DoCkMO=F.
 Leave Link  401 at Thu May  2 13:59:22 2024, MaxMem=   134217728 cpu:              31.6 elap:              31.7
 (Enter /software/gaussian/g16-c01/sse4/g16/l502.exe)
 Two-electron integral symmetry not used.
 Closed shell SCF:
 Using DIIS extrapolation, IDIIS=  1040.
 NGot=   134217728 LenX=   134063053 LenY=   133988083
 Requested convergence on RMS density matrix=1.00D-08 within 128 cycles.
 Requested convergence on MAX density matrix=1.00D-06.
 Requested convergence on             energy=1.00D-06.
 No special actions if energy rises.
 Fock matrices will be formed incrementally for  20 cycles.

 Cycle   1  Pass 1  IDiag  1:
 FoFJK:  IHMeth= 1 ICntrl=       0 DoSepK=T KAlg= 0 I1Cent=           0 FoldK=F
 IRaf=         1 NMat=       1 IRICut=       1 DoRegI=T DoRafI=F ISym2E= 0 IDoP0=0 IntGTp=1.
 FoFCou: FMM=F IPFlag=           0 FMFlag=      100000 FMFlg1=           0
         NFxFlg=           0 DoJE=T BraDBF=F KetDBF=F FulRan=T
         wScrn=  0.000000 ICntrl=       500 IOpCl=  0 I1Cent=           0 NGrid=           0
         NMat0=    1 NMatS0=      1 NMatT0=    0 NMatD0=    1 NMtDS0=    0 NMtDT0=    0
 Symmetry not used in FoFCou.
 E= -3008.35196250721    
 DIIS: error= 2.92D-01 at cycle   1 NSaved=   1.
 NSaved= 1 IEnMin= 1 EnMin= -3008.35196250721     IErMin= 1 ErrMin= 2.92D-01
 ErrMax= 2.92D-01  0.00D+00 EMaxC= 1.00D-01 BMatC= 1.24D+01 BMatP= 1.24D+01
 IDIUse=3 WtCom= 0.00D+00 WtEn= 1.00D+00
 Coeff-Com:  0.100D+01
 Coeff-En:   0.100D+01
 Coeff:      0.100D+01
 Gap=    -0.815 Goal=   None    Shift=    0.000
 GapD=   -0.815 DampG=0.250 DampE=0.250 DampFc=0.2500 IDamp=-1.
 Damping current iteration by 2.50D-01
 RMSDP=1.99D+00 MaxDP=2.09D+02              OVMax= 7.94D-01

 Cycle   2  Pass 1  IDiag  1:
 RMSU=  3.23D-02    CP:  7.57D-01
 E= -3008.85315555685     Delta-E=       -0.501193049640 Rises=F Damp=T
 DIIS: error= 2.19D-01 at cycle   2 NSaved=   2.
 NSaved= 2 IEnMin= 2 EnMin= -3008.85315555685     IErMin= 2 ErrMin= 2.19D-01
 ErrMax= 2.19D-01  0.00D+00 EMaxC= 1.00D-01 BMatC= 5.60D+00 BMatP= 1.24D+01
 IDIUse=3 WtCom= 0.00D+00 WtEn= 1.00D+00
 Coeff-Com: -0.133D+01 0.233D+01
 Coeff-En:   0.206D+00 0.794D+00
 Coeff:      0.206D+00 0.794D+00
 Gap=     0.614 Goal=   None    Shift=    0.000
 RMSDP=1.49D+00 MaxDP=1.58D+02 DE=-5.01D-01 OVMax= 9.59D-01

 Cycle   3  Pass 1  IDiag  1:
 RMSU=  2.24D-02    CP:  2.36D-02  2.23D+00
 E= -3010.10875594243     Delta-E=       -1.255600385575 Rises=F Damp=F
 DIIS: error= 8.31D-02 at cycle   3 NSaved=   3.
 NSaved= 3 IEnMin= 3 EnMin= -3010.10875594243     IErMin= 3 ErrMin= 8.31D-02
 ErrMax= 8.31D-02  0.00D+00 EMaxC= 1.00D-01 BMatC= 1.39D+00 BMatP= 5.60D+00
 IDIUse=3 WtCom= 1.69D-01 WtEn= 8.31D-01
 Coeff-Com:  0.182D+00 0.428D-01 0.775D+00
 Coeff-En:   0.756D-01 0.000D+00 0.924D+00
 Coeff:      0.936D-01 0.722D-02 0.899D+00
 Gap=     0.320 Goal=   None    Shift=    0.000
 RMSDP=3.30D-02 MaxDP=2.73D+00 DE=-1.26D+00 OVMax= 2.72D-01

 Cycle   4  Pass 1  IDiag  1:
 RMSU=  2.61D-02    CP:  2.41D-02  1.60D+00  1.00D+00
 E= -3010.20375441407     Delta-E=       -0.094998471640 Rises=F Damp=F
 DIIS: error= 5.99D-02 at cycle   4 NSaved=   4.
 NSaved= 4 IEnMin= 4 EnMin= -3010.20375441407     IErMin= 4 ErrMin= 5.99D-02
 ErrMax= 5.99D-02  0.00D+00 EMaxC= 1.00D-01 BMatC= 8.64D-01 BMatP= 1.39D+00
 IDIUse=3 WtCom= 4.01D-01 WtEn= 5.99D-01
 Coeff-Com:  0.791D-01-0.647D-01 0.475D+00 0.510D+00
 Coeff-En:   0.000D+00 0.000D+00 0.436D+00 0.564D+00
 Coeff:      0.317D-01-0.259D-01 0.452D+00 0.542D+00
 Gap=     0.286 Goal=   None    Shift=    0.000
 RMSDP=1.76D-02 MaxDP=1.87D+00 DE=-9.50D-02 OVMax= 1.77D-01

 Cycle   5  Pass 1  IDiag  1:
 RMSU=  8.66D-03    CP:  1.97D-02  1.54D+00  9.00D-01  5.37D-01
 E= -3010.48093387622     Delta-E=       -0.277179462150 Rises=F Damp=F
 DIIS: error= 3.27D-02 at cycle   5 NSaved=   5.
 NSaved= 5 IEnMin= 5 EnMin= -3010.48093387622     IErMin= 5 ErrMin= 3.27D-02
 ErrMax= 3.27D-02  0.00D+00 EMaxC= 1.00D-01 BMatC= 8.21D-02 BMatP= 8.64D-01
 IDIUse=3 WtCom= 6.73D-01 WtEn= 3.27D-01
 Coeff-Com:  0.381D-01-0.408D-01 0.274D+00 0.344D+00 0.384D+00
 Coeff-En:   0.000D+00 0.000D+00 0.000D+00 0.114D+00 0.886D+00
 Coeff:      0.256D-01-0.275D-01 0.184D+00 0.269D+00 0.549D+00
 Gap=     0.281 Goal=   None    Shift=    0.000
 RMSDP=6.67D-03 MaxDP=5.92D-01 DE=-2.77D-01 OVMax= 1.60D-01

 Cycle   6  Pass 1  IDiag  1:
 RMSU=  3.87D-03    CP:  2.05D-02  1.40D+00  9.04D-01  6.17D-01  7.65D-01
 E= -3010.52164967553     Delta-E=       -0.040715799317 Rises=F Damp=F
 DIIS: error= 2.04D-02 at cycle   6 NSaved=   6.
 NSaved= 6 IEnMin= 6 EnMin= -3010.52164967553     IErMin= 6 ErrMin= 2.04D-02
 ErrMax= 2.04D-02  0.00D+00 EMaxC= 1.00D-01 BMatC= 2.72D-02 BMatP= 8.21D-02
 IDIUse=3 WtCom= 7.96D-01 WtEn= 2.04D-01
 Coeff-Com:  0.332D-02-0.496D-02 0.365D-01 0.651D-01 0.366D+00 0.534D+00
 Coeff-En:   0.000D+00 0.000D+00 0.000D+00 0.000D+00 0.281D+00 0.719D+00
 Coeff:      0.265D-02-0.395D-02 0.291D-01 0.518D-01 0.349D+00 0.572D+00
 Gap=     0.245 Goal=   None    Shift=    0.000
 RMSDP=2.80D-03 MaxDP=2.93D-01 DE=-4.07D-02 OVMax= 7.11D-02

 Cycle   7  Pass 1  IDiag  1:
 RMSU=  1.45D-03    CP:  2.11D-02  1.43D+00  9.16D-01  5.93D-01  8.95D-01
                    CP:  7.10D-01
 E= -3010.53948281827     Delta-E=       -0.017833142734 Rises=F Damp=F
 DIIS: error= 3.73D-03 at cycle   7 NSaved=   7.
 NSaved= 7 IEnMin= 7 EnMin= -3010.53948281827     IErMin= 7 ErrMin= 3.73D-03
 ErrMax= 3.73D-03  0.00D+00 EMaxC= 1.00D-01 BMatC= 1.30D-03 BMatP= 2.72D-02
 IDIUse=3 WtCom= 9.63D-01 WtEn= 3.73D-02
 Coeff-Com: -0.788D-03 0.557D-03-0.142D-01-0.117D-01 0.137D+00 0.331D+00
 Coeff-Com:  0.559D+00
 Coeff-En:   0.000D+00 0.000D+00 0.000D+00 0.000D+00 0.000D+00 0.000D+00
 Coeff-En:   0.100D+01
 Coeff:     -0.759D-03 0.537D-03-0.136D-01-0.113D-01 0.131D+00 0.319D+00
 Coeff:      0.575D+00
 Gap=     0.245 Goal=   None    Shift=    0.000
 RMSDP=1.01D-03 MaxDP=9.00D-02 DE=-1.78D-02 OVMax= 1.14D-02

 Cycle   8  Pass 1  IDiag  1:
 RMSU=  3.69D-04    CP:  2.10D-02  1.42D+00  9.04D-01  5.94D-01  9.17D-01
                    CP:  8.45D-01  8.29D-01
 E= -3010.54044570758     Delta-E=       -0.000962889315 Rises=F Damp=F
 DIIS: error= 6.91D-04 at cycle   8 NSaved=   8.
 NSaved= 8 IEnMin= 8 EnMin= -3010.54044570758     IErMin= 8 ErrMin= 6.91D-04
 ErrMax= 6.91D-04  0.00D+00 EMaxC= 1.00D-01 BMatC= 7.12D-05 BMatP= 1.30D-03
 IDIUse=3 WtCom= 9.93D-01 WtEn= 6.91D-03
 Coeff-Com: -0.222D-02 0.263D-02-0.938D-02-0.102D-01 0.152D-01 0.635D-01
 Coeff-Com:  0.247D+00 0.693D+00
 Coeff-En:   0.000D+00 0.000D+00 0.000D+00 0.000D+00 0.000D+00 0.000D+00
 Coeff-En:   0.000D+00 0.100D+01
 Coeff:     -0.220D-02 0.262D-02-0.932D-02-0.101D-01 0.151D-01 0.631D-01
 Coeff:      0.246D+00 0.695D+00
 Gap=     0.243 Goal=   None    Shift=    0.000
 RMSDP=2.65D-04 MaxDP=2.19D-02 DE=-9.63D-04 OVMax= 5.17D-03

 Cycle   9  Pass 1  IDiag  1:
 RMSU=  1.10D-04    CP:  2.11D-02  1.42D+00  9.03D-01  5.96D-01  9.24D-01
                    CP:  8.56D-01  8.88D-01  1.05D+00
 E= -3010.54052941156     Delta-E=       -0.000083703980 Rises=F Damp=F
 DIIS: error= 1.64D-04 at cycle   9 NSaved=   9.
 NSaved= 9 IEnMin= 9 EnMin= -3010.54052941156     IErMin= 9 ErrMin= 1.64D-04
 ErrMax= 1.64D-04  0.00D+00 EMaxC= 1.00D-01 BMatC= 7.35D-06 BMatP= 7.12D-05
 IDIUse=3 WtCom= 9.98D-01 WtEn= 1.64D-03
 Coeff-Com: -0.153D-02 0.205D-02-0.137D-02-0.148D-02-0.120D-01-0.232D-01
 Coeff-Com:  0.442D-02 0.241D+00 0.792D+00
 Coeff-En:   0.000D+00 0.000D+00 0.000D+00 0.000D+00 0.000D+00 0.000D+00
 Coeff-En:   0.000D+00 0.000D+00 0.100D+01
 Coeff:     -0.153D-02 0.204D-02-0.137D-02-0.147D-02-0.120D-01-0.232D-01
 Coeff:      0.441D-02 0.240D+00 0.793D+00
 Gap=     0.244 Goal=   None    Shift=    0.000
 RMSDP=1.61D-04 MaxDP=2.00D-02 DE=-8.37D-05 OVMax= 4.05D-03

 Cycle  10  Pass 1  IDiag  1:
 RMSU=  1.09D-04    CP:  2.10D-02  1.42D+00  9.03D-01  5.96D-01  9.17D-01
                    CP:  8.62D-01  8.75D-01  1.08D+00  1.35D+00
 E= -3010.54055208709     Delta-E=       -0.000022675523 Rises=F Damp=F
 DIIS: error= 8.68D-05 at cycle  10 NSaved=  10.
 NSaved=10 IEnMin=10 EnMin= -3010.54055208709     IErMin=10 ErrMin= 8.68D-05
 ErrMax= 8.68D-05  0.00D+00 EMaxC= 1.00D-01 BMatC= 2.24D-06 BMatP= 7.35D-06
 IDIUse=1 WtCom= 1.00D+00 WtEn= 0.00D+00
 Coeff-Com: -0.102D-02 0.145D-02 0.826D-03 0.116D-02-0.616D-02-0.172D-01
 Coeff-Com: -0.498D-01-0.870D-01 0.234D+00 0.924D+00
 Coeff:     -0.102D-02 0.145D-02 0.826D-03 0.116D-02-0.616D-02-0.172D-01
 Coeff:     -0.498D-01-0.870D-01 0.234D+00 0.924D+00
 Gap=     0.244 Goal=   None    Shift=    0.000
 RMSDP=1.03D-04 MaxDP=1.01D-02 DE=-2.27D-05 OVMax= 3.19D-03

 Cycle  11  Pass 1  IDiag  1:
 RMSU=  2.63D-05    CP:  2.10D-02  1.42D+00  9.03D-01  5.96D-01  9.12D-01
                    CP:  8.66D-01  8.69D-01  1.05D+00  1.72D+00  1.59D+00
 E= -3010.54056116240     Delta-E=       -0.000009075316 Rises=F Damp=F
 DIIS: error= 3.91D-05 at cycle  11 NSaved=  11.
 NSaved=11 IEnMin=11 EnMin= -3010.54056116240     IErMin=11 ErrMin= 3.91D-05
 ErrMax= 3.91D-05  0.00D+00 EMaxC= 1.00D-01 BMatC= 5.79D-07 BMatP= 2.24D-06
 IDIUse=1 WtCom= 1.00D+00 WtEn= 0.00D+00
 Coeff-Com: -0.518D-03 0.717D-03 0.328D-03 0.767D-03 0.161D-02 0.174D-02
 Coeff-Com: -0.158D-01-0.806D-01-0.114D+00 0.273D+00 0.933D+00
 Coeff:     -0.518D-03 0.717D-03 0.328D-03 0.767D-03 0.161D-02 0.174D-02
 Coeff:     -0.158D-01-0.806D-01-0.114D+00 0.273D+00 0.933D+00
 Gap=     0.244 Goal=   None    Shift=    0.000
 RMSDP=7.16D-05 MaxDP=7.02D-03 DE=-9.08D-06 OVMax= 1.91D-03

 Cycle  12  Pass 1  IDiag  1:
 RMSU=  1.24D-05    CP:  2.10D-02  1.42D+00  9.03D-01  5.97D-01  9.09D-01
                    CP:  8.68D-01  8.56D-01  1.05D+00  1.95D+00  1.91D+00
                    CP:  1.47D+00
 E= -3010.54056377665     Delta-E=       -0.000002614245 Rises=F Damp=F
 DIIS: error= 2.63D-05 at cycle  12 NSaved=  12.
 NSaved=12 IEnMin=12 EnMin= -3010.54056377665     IErMin=12 ErrMin= 2.63D-05
 ErrMax= 2.63D-05  0.00D+00 EMaxC= 1.00D-01 BMatC= 1.42D-07 BMatP= 5.79D-07
 IDIUse=1 WtCom= 1.00D+00 WtEn= 0.00D+00
 Coeff-Com: -0.149D-03 0.187D-03-0.167D-03 0.741D-04 0.208D-02 0.438D-02
 Coeff-Com:  0.833D-02 0.194D-02-0.906D-01-0.165D+00 0.293D+00 0.946D+00
 Coeff:     -0.149D-03 0.187D-03-0.167D-03 0.741D-04 0.208D-02 0.438D-02
 Coeff:      0.833D-02 0.194D-02-0.906D-01-0.165D+00 0.293D+00 0.946D+00
 Gap=     0.244 Goal=   None    Shift=    0.000
 RMSDP=3.50D-05 MaxDP=3.66D-03 DE=-2.61D-06 OVMax= 1.02D-03

 Cycle  13  Pass 1  IDiag  1:
 RMSU=  5.70D-06    CP:  2.10D-02  1.42D+00  9.03D-01  5.97D-01  9.07D-01
                    CP:  8.69D-01  8.52D-01  1.04D+00  2.02D+00  2.09D+00
                    CP:  1.83D+00  1.35D+00
 E= -3010.54056444659     Delta-E=       -0.000000669943 Rises=F Damp=F
 DIIS: error= 1.57D-05 at cycle  13 NSaved=  13.
 NSaved=13 IEnMin=13 EnMin= -3010.54056444659     IErMin=13 ErrMin= 1.57D-05
 ErrMax= 1.57D-05  0.00D+00 EMaxC= 1.00D-01 BMatC= 2.56D-08 BMatP= 1.42D-07
 IDIUse=1 WtCom= 1.00D+00 WtEn= 0.00D+00
 Coeff-Com:  0.197D-04-0.305D-04-0.691D-04-0.945D-04 0.194D-03 0.558D-03
 Coeff-Com:  0.655D-02 0.189D-01 0.393D-02-0.970D-01-0.150D+00 0.255D+00
 Coeff-Com:  0.962D+00
 Coeff:      0.197D-04-0.305D-04-0.691D-04-0.945D-04 0.194D-03 0.558D-03
 Coeff:      0.655D-02 0.189D-01 0.393D-02-0.970D-01-0.150D+00 0.255D+00
 Coeff:      0.962D+00
 Gap=     0.244 Goal=   None    Shift=    0.000
 RMSDP=1.22D-05 MaxDP=1.18D-03 DE=-6.70D-07 OVMax= 4.08D-04

 Cycle  14  Pass 1  IDiag  1:
 RMSU=  2.76D-06    CP:  2.10D-02  1.42D+00  9.03D-01  5.97D-01  9.07D-01
                    CP:  8.69D-01  8.52D-01  1.04D+00  2.05D+00  2.14D+00
                    CP:  1.96D+00  1.69D+00  1.37D+00
 E= -3010.54056456648     Delta-E=       -0.000000119890 Rises=F Damp=F
 DIIS: error= 5.19D-06 at cycle  14 NSaved=  14.
 NSaved=14 IEnMin=14 EnMin= -3010.54056456648     IErMin=14 ErrMin= 5.19D-06
 ErrMax= 5.19D-06  0.00D+00 EMaxC= 1.00D-01 BMatC= 3.91D-09 BMatP= 2.56D-08
 IDIUse=1 WtCom= 1.00D+00 WtEn= 0.00D+00
 Coeff-Com:  0.379D-04-0.495D-04 0.303D-05-0.589D-04-0.329D-03-0.593D-03
 Coeff-Com:  0.969D-03 0.570D-02 0.164D-01-0.284D-02-0.997D-01-0.670D-01
 Coeff-Com:  0.339D+00 0.808D+00
 Coeff:      0.379D-04-0.495D-04 0.303D-05-0.589D-04-0.329D-03-0.593D-03
 Coeff:      0.969D-03 0.570D-02 0.164D-01-0.284D-02-0.997D-01-0.670D-01
 Coeff:      0.339D+00 0.808D+00
 Gap=     0.244 Goal=   None    Shift=    0.000
 RMSDP=3.32D-06 MaxDP=2.66D-04 DE=-1.20D-07 OVMax= 1.19D-04

 Cycle  15  Pass 1  IDiag  1:
 RMSU=  1.15D-06    CP:  2.10D-02  1.42D+00  9.03D-01  5.97D-01  9.07D-01
                    CP:  8.69D-01  8.53D-01  1.04D+00  2.06D+00  2.15D+00
                    CP:  2.00D+00  1.75D+00  1.56D+00  1.25D+00
 E= -3010.54056458270     Delta-E=       -0.000000016215 Rises=F Damp=F
 DIIS: error= 3.52D-06 at cycle  15 NSaved=  15.
 NSaved=15 IEnMin=15 EnMin= -3010.54056458270     IErMin=15 ErrMin= 3.52D-06
 ErrMax= 3.52D-06  0.00D+00 EMaxC= 1.00D-01 BMatC= 8.38D-10 BMatP= 3.91D-09
 IDIUse=1 WtCom= 1.00D+00 WtEn= 0.00D+00
 Coeff-Com:  0.208D-04-0.283D-04 0.929D-05 0.787D-05-0.409D-04-0.329D-04
 Coeff-Com: -0.131D-02-0.426D-02-0.303D-02 0.193D-01 0.364D-01-0.503D-01
 Coeff-Com: -0.194D+00-0.552D-01 0.125D+01
 Coeff:      0.208D-04-0.283D-04 0.929D-05 0.787D-05-0.409D-04-0.329D-04
 Coeff:     -0.131D-02-0.426D-02-0.303D-02 0.193D-01 0.364D-01-0.503D-01
 Coeff:     -0.194D+00-0.552D-01 0.125D+01
 Gap=     0.244 Goal=   None    Shift=    0.000
 RMSDP=3.59D-06 MaxDP=2.64D-04 DE=-1.62D-08 OVMax= 7.69D-05

 Cycle  16  Pass 1  IDiag  1:
 RMSU=  4.72D-07    CP:  2.10D-02  1.42D+00  9.03D-01  5.97D-01  9.07D-01
                    CP:  8.69D-01  8.54D-01  1.05D+00  2.06D+00  2.15D+00
                    CP:  2.00D+00  1.78D+00  1.66D+00  1.61D+00  1.38D+00
 E= -3010.54056458709     Delta-E=       -0.000000004396 Rises=F Damp=F
 DIIS: error= 9.00D-07 at cycle  16 NSaved=  16.
 NSaved=16 IEnMin=16 EnMin= -3010.54056458709     IErMin=16 ErrMin= 9.00D-07
 ErrMax= 9.00D-07  0.00D+00 EMaxC= 1.00D-01 BMatC= 1.52D-10 BMatP= 8.38D-10
 IDIUse=1 WtCom= 1.00D+00 WtEn= 0.00D+00
 Coeff-Com:  0.722D-05-0.102D-04 0.673D-06 0.559D-05 0.527D-04 0.115D-03
 Coeff-Com: -0.331D-03-0.155D-02-0.358D-02 0.260D-02 0.234D-01 0.448D-02
 Coeff-Com: -0.801D-01-0.159D+00 0.204D+00 0.101D+01
 Coeff:      0.722D-05-0.102D-04 0.673D-06 0.559D-05 0.527D-04 0.115D-03
 Coeff:     -0.331D-03-0.155D-02-0.358D-02 0.260D-02 0.234D-01 0.448D-02
 Coeff:     -0.801D-01-0.159D+00 0.204D+00 0.101D+01
 Gap=     0.244 Goal=   None    Shift=    0.000
 RMSDP=8.68D-07 MaxDP=5.58D-05 DE=-4.40D-09 OVMax= 2.49D-05

 Cycle  17  Pass 1  IDiag  1:
 RMSU=  2.05D-07    CP:  2.10D-02  1.42D+00  9.03D-01  5.97D-01  9.07D-01
                    CP:  8.69D-01  8.54D-01  1.05D+00  2.06D+00  2.15D+00
                    CP:  2.01D+00  1.78D+00  1.69D+00  1.66D+00  1.60D+00
                    CP:  1.32D+00
 E= -3010.54056458761     Delta-E=       -0.000000000523 Rises=F Damp=F
 DIIS: error= 2.79D-07 at cycle  17 NSaved=  17.
 NSaved=17 IEnMin=17 EnMin= -3010.54056458761     IErMin=17 ErrMin= 2.79D-07
 ErrMax= 2.79D-07  0.00D+00 EMaxC= 1.00D-01 BMatC= 2.13D-11 BMatP= 1.52D-10
 IDIUse=1 WtCom= 1.00D+00 WtEn= 0.00D+00
 Coeff-Com:  0.204D-05-0.280D-05-0.686D-07 0.180D-07 0.258D-04 0.440D-04
 Coeff-Com:  0.908D-04 0.139D-03-0.711D-03-0.222D-02 0.223D-02 0.866D-02
 Coeff-Com:  0.500D-02-0.437D-01-0.109D+00 0.286D+00 0.853D+00
 Coeff:      0.204D-05-0.280D-05-0.686D-07 0.180D-07 0.258D-04 0.440D-04
 Coeff:      0.908D-04 0.139D-03-0.711D-03-0.222D-02 0.223D-02 0.866D-02
 Coeff:      0.500D-02-0.437D-01-0.109D+00 0.286D+00 0.853D+00
 Gap=     0.244 Goal=   None    Shift=    0.000
 RMSDP=1.55D-07 MaxDP=6.85D-06 DE=-5.23D-10 OVMax= 6.32D-06

 Cycle  18  Pass 1  IDiag  1:
 RMSU=  5.42D-08    CP:  2.10D-02  1.42D+00  9.03D-01  5.97D-01  9.07D-01
                    CP:  8.69D-01  8.54D-01  1.05D+00  2.06D+00  2.15D+00
                    CP:  2.01D+00  1.78D+00  1.70D+00  1.66D+00  1.65D+00
                    CP:  1.44D+00  1.32D+00
 E= -3010.54056458770     Delta-E=       -0.000000000088 Rises=F Damp=F
 DIIS: error= 8.77D-08 at cycle  18 NSaved=  18.
 NSaved=18 IEnMin=18 EnMin= -3010.54056458770     IErMin=18 ErrMin= 8.77D-08
 ErrMax= 8.77D-08  0.00D+00 EMaxC= 1.00D-01 BMatC= 2.45D-12 BMatP= 2.13D-11
 IDIUse=1 WtCom= 1.00D+00 WtEn= 0.00D+00
 Coeff-Com:  0.123D-06-0.112D-06 0.690D-06-0.210D-06 0.152D-05-0.249D-05
 Coeff-Com:  0.579D-04 0.202D-03 0.249D-03-0.806D-03-0.232D-02 0.130D-02
 Coeff-Com:  0.121D-01 0.121D-01-0.463D-01-0.101D+00 0.168D+00 0.956D+00
 Coeff:      0.123D-06-0.112D-06 0.690D-06-0.210D-06 0.152D-05-0.249D-05
 Coeff:      0.579D-04 0.202D-03 0.249D-03-0.806D-03-0.232D-02 0.130D-02
 Coeff:      0.121D-01 0.121D-01-0.463D-01-0.101D+00 0.168D+00 0.956D+00
 Gap=     0.244 Goal=   None    Shift=    0.000
 RMSDP=7.10D-08 MaxDP=4.83D-06 DE=-8.82D-11 OVMax= 1.89D-06

 Cycle  19  Pass 1  IDiag  1:
 RMSU=  2.58D-08    CP:  2.10D-02  1.42D+00  9.03D-01  5.97D-01  9.07D-01
                    CP:  8.69D-01  8.54D-01  1.05D+00  2.06D+00  2.15D+00
                    CP:  2.01D+00  1.78D+00  1.69D+00  1.66D+00  1.66D+00
                    CP:  1.48D+00  1.45D+00  1.28D+00
 E= -3010.54056458774     Delta-E=       -0.000000000037 Rises=F Damp=F
 DIIS: error= 2.14D-08 at cycle  19 NSaved=  19.
 NSaved=19 IEnMin=19 EnMin= -3010.54056458774     IErMin=19 ErrMin= 2.14D-08
 ErrMax= 2.14D-08  0.00D+00 EMaxC= 1.00D-01 BMatC= 2.76D-13 BMatP= 2.45D-12
 IDIUse=1 WtCom= 1.00D+00 WtEn= 0.00D+00
 Coeff-Com:  0.834D-08 0.517D-08 0.229D-06 0.328D-07-0.200D-05-0.479D-05
 Coeff-Com: -0.128D-05 0.164D-04 0.101D-03 0.524D-04-0.681D-03-0.787D-03
 Coeff-Com:  0.163D-02 0.710D-02 0.838D-02-0.568D-01-0.585D-01 0.221D+00
 Coeff-Com:  0.879D+00
 Coeff:      0.834D-08 0.517D-08 0.229D-06 0.328D-07-0.200D-05-0.479D-05
 Coeff:     -0.128D-05 0.164D-04 0.101D-03 0.524D-04-0.681D-03-0.787D-03
 Coeff:      0.163D-02 0.710D-02 0.838D-02-0.568D-01-0.585D-01 0.221D+00
 Coeff:      0.879D+00
 Gap=     0.244 Goal=   None    Shift=    0.000
 RMSDP=3.57D-08 MaxDP=3.05D-06 DE=-3.73D-11 OVMax= 5.12D-07

 Cycle  20  Pass 1  IDiag  1:
 RMSU=  1.03D-08    CP:  2.10D-02  1.42D+00  9.03D-01  5.97D-01  9.07D-01
                    CP:  8.69D-01  8.54D-01  1.05D+00  2.06D+00  2.15D+00
                    CP:  2.01D+00  1.78D+00  1.70D+00  1.66D+00  1.66D+00
                    CP:  1.48D+00  1.47D+00  1.41D+00  1.30D+00
 E= -3010.54056458777     Delta-E=       -0.000000000026 Rises=F Damp=F
 DIIS: error= 1.10D-08 at cycle  20 NSaved=  20.
 NSaved=20 IEnMin=20 EnMin= -3010.54056458777     IErMin=20 ErrMin= 1.10D-08
 ErrMax= 1.10D-08  0.00D+00 EMaxC= 1.00D-01 BMatC= 5.99D-14 BMatP= 2.76D-13
 IDIUse=1 WtCom= 1.00D+00 WtEn= 0.00D+00
 Coeff-Com: -0.856D-07 0.110D-06-0.352D-07 0.120D-06-0.670D-06-0.940D-06
 Coeff-Com: -0.117D-04-0.335D-04-0.122D-04 0.205D-03 0.262D-03-0.507D-03
 Coeff-Com: -0.185D-02-0.414D-03 0.110D-01-0.203D-02-0.455D-01-0.977D-01
 Coeff-Com:  0.276D+00 0.860D+00
 Coeff:     -0.856D-07 0.110D-06-0.352D-07 0.120D-06-0.670D-06-0.940D-06
 Coeff:     -0.117D-04-0.335D-04-0.122D-04 0.205D-03 0.262D-03-0.507D-03
 Coeff:     -0.185D-02-0.414D-03 0.110D-01-0.203D-02-0.455D-01-0.977D-01
 Coeff:      0.276D+00 0.860D+00
 Gap=     0.244 Goal=   None    Shift=    0.000
 RMSDP=1.29D-08 MaxDP=9.84D-07 DE=-2.64D-11 OVMax= 2.88D-07

 Cycle  21  Pass 1  IDiag  1:
 Restarting incremental Fock formation.
 E= -3010.54056458771     Delta-E=        0.000000000059 Rises=F Damp=F
 DIIS: error= 6.37D-09 at cycle  21 NSaved=  20.
 NSaved=20 IEnMin=19 EnMin= -3010.54056458777     IErMin=20 ErrMin= 6.37D-09
 ErrMax= 6.37D-09  0.00D+00 EMaxC= 1.00D-01 BMatC= 1.07D-14 BMatP= 5.99D-14
 IDIUse=1 WtCom= 1.00D+00 WtEn= 0.00D+00
 Coeff-Com: -0.230D-08-0.113D-07 0.392D-07 0.192D-06 0.447D-06-0.150D-05
 Coeff-Com: -0.993D-05-0.242D-04 0.304D-04 0.136D-03 0.254D-04-0.550D-03
 Coeff-Com: -0.122D-02 0.967D-03 0.885D-02 0.554D-02-0.494D-01-0.121D+00
 Coeff-Com:  0.913D-01 0.107D+01
 Coeff:     -0.230D-08-0.113D-07 0.392D-07 0.192D-06 0.447D-06-0.150D-05
 Coeff:     -0.993D-05-0.242D-04 0.304D-04 0.136D-03 0.254D-04-0.550D-03
 Coeff:     -0.122D-02 0.967D-03 0.885D-02 0.554D-02-0.494D-01-0.121D+00
 Coeff:      0.913D-01 0.107D+01
 Gap=     0.244 Goal=   None    Shift=    0.000
 RMSDP=9.14D-09 MaxDP=8.89D-07 DE= 5.91D-11 OVMax= 1.78D-07

 SCF Done:  E(RwB97XD) =  -3010.54056459     A.U. after   21 cycles
            NFock= 21  Conv=0.91D-08     -V/T= 2.0016
 KE= 3.005860083147D+03 PE=-8.702563066887D+03 EE= 1.910752932770D+03
 Leave Link  502 at Thu May  2 14:21:05 2024, MaxMem=   134217728 cpu:            1302.8 elap:            1303.2
 (Enter /software/gaussian/g16-c01/sse4/g16/l601.exe)
 Copying SCF densities to generalized density rwf, IOpCl= 0 IROHF=0.

 **********************************************************************

            Population analysis using the SCF Density.

 **********************************************************************

 Alpha  occ. eigenvalues -- -483.34711 -62.89775 -56.69409 -56.68921 -56.68917
 Alpha  occ. eigenvalues --  -19.46815 -19.46753 -14.86257 -10.60418 -10.60044
 Alpha  occ. eigenvalues --  -10.58551 -10.58416 -10.54566 -10.53867  -9.05610
 Alpha  occ. eigenvalues --   -6.88129  -6.86505  -6.86494  -2.98071  -2.97636
 Alpha  occ. eigenvalues --   -2.97626  -2.96325  -2.96325  -1.50472  -1.33417
 Alpha  occ. eigenvalues --   -1.23880  -1.14798  -1.13675  -1.07265  -1.01643
 Alpha  occ. eigenvalues --   -0.96676  -0.91744  -0.85788  -0.81853  -0.81175
 Alpha  occ. eigenvalues --   -0.80828  -0.78998  -0.76986  -0.76684  -0.73901
 Alpha  occ. eigenvalues --   -0.69787  -0.68793  -0.65286  -0.62409  -0.60380
 Alpha  occ. eigenvalues --   -0.58123  -0.57765  -0.56554  -0.56260
 Alpha virt. eigenvalues --   -0.31840  -0.21385  -0.19329  -0.16625  -0.14224
 Alpha virt. eigenvalues --   -0.12931  -0.11449  -0.09206  -0.07958  -0.07081
 Alpha virt. eigenvalues --   -0.05424  -0.05021  -0.02985  -0.02373  -0.01855
 Alpha virt. eigenvalues --   -0.01570   0.00203   0.00521   0.02161   0.02230
 Alpha virt. eigenvalues --    0.03882   0.04576   0.04861   0.05325   0.06790
 Alpha virt. eigenvalues --    0.07135   0.07595   0.08094   0.08345   0.09124
 Alpha virt. eigenvalues --    0.09802   0.10987   0.11258   0.11919   0.12907
 Alpha virt. eigenvalues --    0.13074   0.13301   0.14052   0.14617   0.15717
 Alpha virt. eigenvalues --    0.16380   0.17388   0.17952   0.18562   0.19365
 Alpha virt. eigenvalues --    0.20249   0.20709   0.21731   0.22130   0.23399
 Alpha virt. eigenvalues --    0.23993   0.25435   0.26606   0.28019   0.28630
 Alpha virt. eigenvalues --    0.30482   0.32739   0.33596   0.33656   0.35091
 Alpha virt. eigenvalues --    0.36468   0.37502   0.38396   0.39193   0.40616
 Alpha virt. eigenvalues --    0.43085   0.43788   0.44567   0.46269   0.46988
 Alpha virt. eigenvalues --    0.47645   0.49115   0.49354   0.50375   0.52803
 Alpha virt. eigenvalues --    0.53800   0.55214   0.57140   0.57501   0.59179
 Alpha virt. eigenvalues --    0.60057   0.61301   0.62840   0.65201   0.67198
 Alpha virt. eigenvalues --    0.70472   0.70677   0.72242   0.73087   0.73673
 Alpha virt. eigenvalues --    0.73938   0.76763   0.79162   0.80497   0.84283
 Alpha virt. eigenvalues --    0.85576   0.86950   0.90716   0.92895   0.98038
 Alpha virt. eigenvalues --    0.99620   1.01399   1.02932   1.04600   1.06147
 Alpha virt. eigenvalues --    1.07910   1.12134   1.12833   1.13440   1.17168
 Alpha virt. eigenvalues --    1.20540   1.22285   1.27211   1.32391   1.35348
 Alpha virt. eigenvalues --    1.35922   1.38002   1.41694   1.53732   1.55802
 Alpha virt. eigenvalues --    1.56519   1.59034   1.60292   1.63057   1.64537
 Alpha virt. eigenvalues --    1.67344   1.70307   1.73304   1.74349   1.78386
 Alpha virt. eigenvalues --    1.83004   1.84356   1.86266   1.91028   1.93167
 Alpha virt. eigenvalues --    1.96883   2.00810   2.01946   2.05936   2.07174
 Alpha virt. eigenvalues --    2.11332   2.13422   2.21433   2.22967   2.26551
 Alpha virt. eigenvalues --    2.32612   2.39156   2.40830   2.43587   2.52263
 Alpha virt. eigenvalues --    2.57215   2.62243   2.64953   2.67780   2.71186
 Alpha virt. eigenvalues --    2.72987   2.75779   2.76637   2.79856   2.80972
 Alpha virt. eigenvalues --    2.91972   2.97215   3.00572   3.04676   3.07910
 Alpha virt. eigenvalues --    3.13872   3.15425   3.16671   3.21879   3.25978
 Alpha virt. eigenvalues --    3.26986   3.37190   3.45599   3.49308   3.54056
 Alpha virt. eigenvalues --    3.56716   3.68342   3.73674   3.82564   3.86223
 Alpha virt. eigenvalues --    4.06216   4.07026   4.15993   4.19996   4.39970
 Alpha virt. eigenvalues --    4.44549   4.53490   4.59127   4.93063   4.95942
 Alpha virt. eigenvalues --    5.04745   5.09263   5.61459   6.14665   6.64340
 Alpha virt. eigenvalues --    7.44983   7.47370   7.57650  23.20964  23.60205
 Alpha virt. eigenvalues --   23.70125  23.76765  23.94616  24.01042  35.30907
 Alpha virt. eigenvalues --   47.90549  49.84682  49.93346 289.78224 289.80568
 Alpha virt. eigenvalues --  289.932321020.91789
          Condensed to atoms (all electrons):
               1          2          3          4          5          6
     1  C    8.355200  -3.175320   1.321994  -0.271086   0.308346   0.045170
     2  C   -3.175320  18.742305  -6.206505   0.771794  -0.037162   0.179222
     3  C    1.321994  -6.206505  20.220734  -1.699838   0.050007   0.131803
     4  C   -0.271086   0.771794  -1.699838   6.617816   0.002491  -0.017499
     5  H    0.308346  -0.037162   0.050007   0.002491   0.325343  -0.001486
     6  H    0.045170   0.179222   0.131803  -0.017499  -0.001486   0.306769
     7  H    0.017014  -0.020800   0.025699   0.319502  -0.002664  -0.000006
     8  N   -0.136627   0.588569  -1.725004   0.025281  -0.000844  -0.031242
     9  O   -0.048441   0.117278  -0.427242  -0.005386  -0.000044  -0.002306
    10  O    0.276663  -0.482458   0.032445  -0.036745   0.000086   0.021915
    11  C    1.030368  -1.611752   2.268320  -0.412671  -0.022174   0.010172
    12  H   -0.010308   0.010208   0.016331   0.001261   0.000008  -0.000018
    13  C   -1.591538  -2.903948  -7.650830   0.965645   0.026129   0.000718
    14  H   -0.004833   0.015924   0.025289   0.007368  -0.000021   0.000010
    15  Br  -0.059101  -0.082852  -0.284959   0.091933  -0.000167  -0.000557
               7          8          9         10         11         12
     1  C    0.017014  -0.136627  -0.048441   0.276663   1.030368  -0.010308
     2  C   -0.020800   0.588569   0.117278  -0.482458  -1.611752   0.010208
     3  C    0.025699  -1.725004  -0.427242   0.032445   2.268320   0.016331
     4  C    0.319502   0.025281  -0.005386  -0.036745  -0.412671   0.001261
     5  H   -0.002664  -0.000844  -0.000044   0.000086  -0.022174   0.000008
     6  H   -0.000006  -0.031242  -0.002306   0.021915   0.010172  -0.000018
     7  H    0.329998  -0.000001   0.000016  -0.000016   0.028385  -0.002068
     8  N   -0.000001   7.681174   0.148071   0.065187  -0.267176   0.000110
     9  O    0.000016   0.148071   7.810555   0.009581   0.215399   0.000083
    10  O   -0.000016   0.065187   0.009581   7.888998   0.040743   0.000002
    11  C    0.028385  -0.267176   0.215399   0.040743   8.601037   0.327661
    12  H   -0.002068   0.000110   0.000083   0.000002   0.327661   0.308968
    13  C   -0.034812   0.757389   0.123891   0.113010  -4.001899  -0.011210
    14  H    0.000010  -0.015494   0.001676  -0.001887  -0.020388  -0.002718
    15  Br  -0.000406   0.112932  -0.035205  -0.003117  -0.044182  -0.004153
              13         14         15
     1  C   -1.591538  -0.004833  -0.059101
     2  C   -2.903948   0.015924  -0.082852
     3  C   -7.650830   0.025289  -0.284959
     4  C    0.965645   0.007368   0.091933
     5  H    0.026129  -0.000021  -0.000167
     6  H    0.000718   0.000010  -0.000557
     7  H   -0.034812   0.000010  -0.000406
     8  N    0.757389  -0.015494   0.112932
     9  O    0.123891   0.001676  -0.035205
    10  O    0.113010  -0.001887  -0.003117
    11  C   -4.001899  -0.020388  -0.044182
    12  H   -0.011210  -0.002718  -0.004153
    13  C   19.835755   0.293959   0.353118
    14  H    0.293959   0.245854  -0.021519
    15  Br   0.353118  -0.021519  34.998488
 Mulliken charges:
               1
     1  C   -0.057502
     2  C    0.095498
     3  C   -0.098244
     4  C   -0.359867
     5  H    0.352148
     6  H    0.357334
     7  H    0.340150
     8  N   -0.202325
     9  O    0.092076
    10  O    0.075593
    11  C   -0.141843
    12  H    0.365844
    13  C   -0.275378
    14  H    0.476771
    15  Br  -0.020254
 Sum of Mulliken charges =   1.00000
 Mulliken charges with hydrogens summed into heavy atoms:
               1
     1  C    0.294646
     2  C    0.452832
     3  C   -0.098244
     4  C   -0.019717
     8  N   -0.202325
     9  O    0.092076
    10  O    0.075593
    11  C    0.224000
    13  C    0.201393
    15  Br  -0.020254
 Electronic spatial extent (au):  <R**2>=           3950.8399
 Charge=              1.0000 electrons
 Dipole moment (field-independent basis, Debye):
    X=              2.5133    Y=             -0.1108    Z=              2.9156  Tot=              3.8509
 Quadrupole moment (field-independent basis, Debye-Ang):
   XX=            -67.7798   YY=            -52.4567   ZZ=            -67.2621
   XY=             -1.3956   XZ=              4.9905   YZ=             -1.1328
 Traceless Quadrupole moment (field-independent basis, Debye-Ang):
   XX=             -5.2803   YY=             10.0428   ZZ=             -4.7625
   XY=             -1.3956   XZ=              4.9905   YZ=             -1.1328
 Octapole moment (field-independent basis, Debye-Ang**2):
  XXX=           -510.2170  YYY=             98.3728  ZZZ=            103.0547  XYY=           -140.1979
  XXY=             27.8544  XXZ=             48.9881  XZZ=           -143.6871  YZZ=             27.3897
  YYZ=             37.7260  XYZ=              0.0080
 Hexadecapole moment (field-independent basis, Debye-Ang**3):
 XXXX=          -3423.8624 YYYY=           -717.3477 ZZZZ=           -448.1895 XXXY=            186.3193
 XXXZ=            265.4739 YYYX=            198.8464 YYYZ=           -195.4221 ZZZX=            209.9902
 ZZZY=           -176.5587 XXYY=           -632.5479 XXZZ=           -554.3404 YYZZ=           -196.1018
 XXYZ=            -61.5983 YYXZ=             75.2652 ZZXY=             51.2194
 N-N= 7.754094863821D+02 E-N=-8.702563066538D+03  KE= 3.005860083147D+03
 No NMR shielding tensors so no spin-rotation constants.
 Leave Link  601 at Thu May  2 14:21:12 2024, MaxMem=   134217728 cpu:               7.3 elap:               7.3
 (Enter /software/gaussian/g16-c01/sse4/g16/l9999.exe)
 Unable to Open any file for archive entry.
 1\1\GINC-BHX0015\SP\RwB97XD\6-311+G(d)\C6H5Br1N1O2(1+)\BWEIGHT\02-May-
 2024\0\\#P wB97XD/6-311+G* NoSymm #P Field=Z-204\\TitleMe\\1,1\C,0,0.5
 193,1.233,-0.0319\C,0,1.9445,1.2692,-0.0367\C,0,2.6204,0.0928,-0.025\C
 ,0,-0.196,0.0301,0.001\H,0,-0.0207,2.1742,-0.0434\H,0,2.4828,2.2089,-0
 .0361\H,0,-1.2777,0.0399,0.0117\N,0,4.0921,0.0959,0.0366\O,0,4.6393,-1
 .0217,0.1446\O,0,4.6649,1.1984,-0.0233\C,0,0.4943,-1.1671,0.021\H,0,-0
 .0325,-2.1149,0.0545\C,0,1.9629,-1.2165,-0.0211\H,0,2.4436,-1.9631,0.6
 151\Br,0,2.173,-1.9491,-1.9062\\Version=ES64L-G16RevC.01\HF=-3010.5405
 646\RMSD=9.139e-09\Dipole=-3.3403901,1.1845348,2.3962953\Quadrupole=-3
 .9257582,7.4665775,-3.5408193,-1.0375774,3.710316,-0.8422096\PG=C01 [X
 (C6H5Br1N1O2)]\\@
 The archive entry for this job was punched.


 MY GROUP MEETINGS AREN'T VERY STRUCTURED.
     -- PROF. M. S. GORDON, OCT. 5, 1984
 Job cpu time:       0 days  0 hours 22 minutes 52.8 seconds.
 Elapsed time:       0 days  0 hours 22 minutes 53.3 seconds.
 File lengths (MBytes):  RWF=     40 Int=      0 D2E=      0 Chk=     32 Scr=      1
 Normal termination of Gaussian 16 at Thu May  2 14:21:13 2024.
