 Entering Gaussian System, Link 0=g16
 Initial command:
 /software/gaussian/g16-c01/sse4/g16/l1.exe "/local_scratch/24665317/Gau-8687.inp" -scrdir="/local_scratch/24665317/"
 Entering Link 1 = /software/gaussian/g16-c01/sse4/g16/l1.exe PID=      8691.
  
 Copyright (c) 1988-2019, Gaussian, Inc.  All Rights Reserved.
  
 This is part of the Gaussian(R) 16 program.  It is based on
 the Gaussian(R) 09 system (copyright 2009, Gaussian, Inc.),
 the Gaussian(R) 03 system (copyright 2003, Gaussian, Inc.),
 the Gaussian(R) 98 system (copyright 1998, Gaussian, Inc.),
 the Gaussian(R) 94 system (copyright 1995, Gaussian, Inc.),
 the Gaussian 92(TM) system (copyright 1992, Gaussian, Inc.),
 the Gaussian 90(TM) system (copyright 1990, Gaussian, Inc.),
 the Gaussian 88(TM) system (copyright 1988, Gaussian, Inc.),
 the Gaussian 86(TM) system (copyright 1986, Carnegie Mellon
 University), and the Gaussian 82(TM) system (copyright 1983,
 Carnegie Mellon University). Gaussian is a federally registered
 trademark of Gaussian, Inc.
  
 This software contains proprietary and confidential information,
 including trade secrets, belonging to Gaussian, Inc.
  
 This software is provided under written license and may be
 used, copied, transmitted, or stored only in accord with that
 written license.
  
 The following legend is applicable only to US Government
 contracts under FAR:
  
                    RESTRICTED RIGHTS LEGEND
  
 Use, reproduction and disclosure by the US Government is
 subject to restrictions as set forth in subparagraphs (a)
 and (c) of the Commercial Computer Software - Restricted
 Rights clause in FAR 52.227-19.
  
 Gaussian, Inc.
 340 Quinnipiac St., Bldg. 40, Wallingford CT 06492
  
  
 ---------------------------------------------------------------
 Warning -- This program may not be used in any manner that
 competes with the business of Gaussian, Inc. or will provide
 assistance to any competitor of Gaussian, Inc.  The licensee
 of this program is prohibited from giving any competitor of
 Gaussian, Inc. access to this program.  By using this program,
 the user acknowledges that Gaussian, Inc. is engaged in the
 business of creating and licensing software in the field of
 computational chemistry and represents and warrants to the
 licensee that it is not a competitor of Gaussian, Inc. and that
 it will not use this program in any manner prohibited above.
 ---------------------------------------------------------------
  

 Cite this work as:
 Gaussian 16, Revision C.01,
 M. J. Frisch, G. W. Trucks, H. B. Schlegel, G. E. Scuseria, 
 M. A. Robb, J. R. Cheeseman, G. Scalmani, V. Barone, 
 G. A. Petersson, H. Nakatsuji, X. Li, M. Caricato, A. V. Marenich, 
 J. Bloino, B. G. Janesko, R. Gomperts, B. Mennucci, H. P. Hratchian, 
 J. V. Ortiz, A. F. Izmaylov, J. L. Sonnenberg, D. Williams-Young, 
 F. Ding, F. Lipparini, F. Egidi, J. Goings, B. Peng, A. Petrone, 
 T. Henderson, D. Ranasinghe, V. G. Zakrzewski, J. Gao, N. Rega, 
 G. Zheng, W. Liang, M. Hada, M. Ehara, K. Toyota, R. Fukuda, 
 J. Hasegawa, M. Ishida, T. Nakajima, Y. Honda, O. Kitao, H. Nakai, 
 T. Vreven, K. Throssell, J. A. Montgomery, Jr., J. E. Peralta, 
 F. Ogliaro, M. J. Bearpark, J. J. Heyd, E. N. Brothers, K. N. Kudin, 
 V. N. Staroverov, T. A. Keith, R. Kobayashi, J. Normand, 
 K. Raghavachari, A. P. Rendell, J. C. Burant, S. S. Iyengar, 
 J. Tomasi, M. Cossi, J. M. Millam, M. Klene, C. Adamo, R. Cammi, 
 J. W. Ochterski, R. L. Martin, K. Morokuma, O. Farkas, 
 J. B. Foresman, and D. J. Fox, Gaussian, Inc., Wallingford CT, 2019.
 
 ******************************************
 Gaussian 16:  ES64L-G16RevC.01  3-Jul-2019
                 2-May-2024 
 ******************************************
 %chk=geometry.chk
 %mem=1GB
 %nprocshared=12
 Will use up to   12 processors via shared memory.
 ---------------------------------------
 #P wB97XD/6-311+G* NoSymm #P Field=Y-58
 ---------------------------------------
 1/38=1,172=1/1;
 2/12=2,15=1,17=6,18=5,40=1/2;
 3/5=4,6=6,7=11,11=2,14=2,15=-58,25=1,30=1,74=-58/1,2,3;
 4//1;
 5/5=2,38=5/2;
 6/7=2,8=2,9=2,10=2,28=1/1;
 99/5=1,9=1/99;
 Leave Link    1 at Thu May  2 13:57:39 2024, MaxMem=   134217728 cpu:               1.6 elap:               1.6
 (Enter /software/gaussian/g16-c01/sse4/g16/l101.exe)
 -------
 TitleMe
 -------
 Symbolic Z-matrix:
 Charge =  1 Multiplicity = 1
 C                     0.5193    1.233    -0.0319 
 C                     1.9445    1.2692   -0.0367 
 C                     2.6204    0.0928   -0.025 
 C                    -0.196     0.0301    0.001 
 H                    -0.0207    2.1742   -0.0434 
 H                     2.4828    2.2089   -0.0361 
 H                    -1.2777    0.0399    0.0117 
 N                     4.0921    0.0959    0.0366 
 O                     4.6393   -1.0217    0.1446 
 O                     4.6649    1.1984   -0.0233 
 C                     0.4943   -1.1671    0.021 
 H                    -0.0325   -2.1149    0.0545 
 C                     1.9629   -1.2165   -0.0211 
 H                     2.4436   -1.9631    0.6151 
 Br                    2.173    -1.9491   -1.9062 
 
 ITRead=  0  0  0  0  0  0  0  0  0  0  0  0  0  0  0
 MicOpt= -1 -1 -1 -1 -1 -1 -1 -1 -1 -1 -1 -1 -1 -1 -1
 NAtoms=     15 NQM=       15 NQMF=       0 NMMI=      0 NMMIF=      0
                NMic=       0 NMicF=      0.
                    Isotopes and Nuclear Properties:
 (Nuclear quadrupole moments (NQMom) in fm**2, nuclear magnetic moments (NMagM)
  in nuclear magnetons)

  Atom         1           2           3           4           5           6           7           8           9          10
 IAtWgt=          12          12          12          12           1           1           1          14          16          16
 AtmWgt=  12.0000000  12.0000000  12.0000000  12.0000000   1.0078250   1.0078250   1.0078250  14.0030740  15.9949146  15.9949146
 NucSpn=           0           0           0           0           1           1           1           2           0           0
 AtZEff=  -0.0000000  -0.0000000  -0.0000000  -0.0000000  -0.0000000  -0.0000000  -0.0000000  -0.0000000  -0.0000000  -0.0000000
 NQMom=    0.0000000   0.0000000   0.0000000   0.0000000   0.0000000   0.0000000   0.0000000   2.0440000   0.0000000   0.0000000
 NMagM=    0.0000000   0.0000000   0.0000000   0.0000000   2.7928460   2.7928460   2.7928460   0.4037610   0.0000000   0.0000000
 AtZNuc=   6.0000000   6.0000000   6.0000000   6.0000000   1.0000000   1.0000000   1.0000000   7.0000000   8.0000000   8.0000000

  Atom        11          12          13          14          15
 IAtWgt=          12           1          12           1          79
 AtmWgt=  12.0000000   1.0078250  12.0000000   1.0078250  78.9183361
 NucSpn=           0           1           0           1           3
 AtZEff=  -0.0000000  -0.0000000  -0.0000000  -0.0000000  -0.0000000
 NQMom=    0.0000000   0.0000000   0.0000000   0.0000000  31.3000000
 NMagM=    0.0000000   2.7928460   0.0000000   2.7928460   2.1063990
 AtZNuc=   6.0000000   1.0000000   6.0000000   1.0000000  35.0000000
 Leave Link  101 at Thu May  2 13:57:41 2024, MaxMem=   134217728 cpu:               1.6 elap:               1.6
 (Enter /software/gaussian/g16-c01/sse4/g16/l202.exe)
                          Input orientation:                          
 ---------------------------------------------------------------------
 Center     Atomic      Atomic             Coordinates (Angstroms)
 Number     Number       Type             X           Y           Z
 ---------------------------------------------------------------------
      1          6           0        0.519300    1.233000   -0.031900
      2          6           0        1.944500    1.269200   -0.036700
      3          6           0        2.620400    0.092800   -0.025000
      4          6           0       -0.196000    0.030100    0.001000
      5          1           0       -0.020700    2.174200   -0.043400
      6          1           0        2.482800    2.208900   -0.036100
      7          1           0       -1.277700    0.039900    0.011700
      8          7           0        4.092100    0.095900    0.036600
      9          8           0        4.639300   -1.021700    0.144600
     10          8           0        4.664900    1.198400   -0.023300
     11          6           0        0.494300   -1.167100    0.021000
     12          1           0       -0.032500   -2.114900    0.054500
     13          6           0        1.962900   -1.216500   -0.021100
     14          1           0        2.443600   -1.963100    0.615100
     15         35           0        2.173000   -1.949100   -1.906200
 ---------------------------------------------------------------------
                    Distance matrix (angstroms):
                    1          2          3          4          5
     1  C    0.000000
     2  C    1.425668   0.000000
     3  C    2.390549   1.356796   0.000000
     4  C    1.399895   2.473566   2.817218   0.000000
     5  H    1.085168   2.163581   3.362733   2.151712   0.000000
     6  H    2.192654   1.082960   2.120598   3.453189   2.503751
     7  H    2.157452   3.449071   3.898632   1.081797   2.477564
     8  N    3.750012   2.448304   1.472992   4.288753   4.608780
     9  O    4.699917   3.541615   2.312322   4.950458   5.653735
    10  O    4.145753   2.721354   2.324292   4.999386   4.786171
    11  C    2.400813   2.835836   2.471794   1.382101   3.381369
    12  H    3.394169   3.920329   3.452266   2.151887   4.290233
    13  C    2.843264   2.485817   1.465124   2.493060   3.928360
    14  H    3.786370   3.334922   2.160489   3.364142   4.860416
    15  Br   4.046416   3.728900   2.812194   3.628609   5.028314
                    6          7          8          9         10
     6  H    0.000000
     7  H    4.341452   0.000000
     8  N    2.657047   5.370150   0.000000
     9  O    3.888434   6.012948   1.249048   0.000000
    10  O    2.404752   6.054572   1.243863   2.226587   0.000000
    11  C    3.918516   2.144043   3.813080   4.149391   4.794941
    12  H    5.003018   2.489080   4.679774   4.798846   5.748876
    13  C    3.464662   3.475788   2.501842   2.688591   3.623886
    14  H    4.222698   4.268978   2.700314   2.434893   3.916224
    15  Br   4.569706   4.420610   3.411663   3.338935   4.434144
                   11         12         13         14         15
    11  C    0.000000
    12  H    1.084880   0.000000
    13  C    1.470034   2.189625   0.000000
    14  H    2.187771   2.543302   1.092353   0.000000
    15  Br   2.672762   2.955683   2.033334   2.535818   0.000000
 Symmetry turned off by external request.
 Stoichiometry    C6H5BrNO2(1+)
 Framework group  C1[X(C6H5BrNO2)]
 Deg. of freedom    39
 Full point group                 C1      NOp   1
 Rotational constants (GHZ):           1.1632986           0.9594224           0.5957624
 Leave Link  202 at Thu May  2 13:57:43 2024, MaxMem=   134217728 cpu:               1.6 elap:               1.6
 (Enter /software/gaussian/g16-c01/sse4/g16/l301.exe)
 Standard basis: 6-311+G(d) (5D, 7F)
 Ernie: Thresh=  0.10000D-02 Tol=  0.10000D-05 Strict=F.
 The following finite field(s) will be applied:
 An electric field of              0.0000 -0.0058  0.0000
   261 basis functions,   443 primitive gaussians,   273 cartesian basis functions
    49 alpha electrons       49 beta electrons
       nuclear repulsion energy       772.8945969580 Hartrees.
 IExCor= 4639 DFT=T Ex+Corr=wB97XD ExCW=0 ScaHFX=  1.000000
 ScaDFX=  1.000000  1.000000  1.000000  1.000000 ScalE2=  1.000000  1.000000
 IRadAn=      5 IRanWt=     -1 IRanGd=            0 ICorTp=0 IEmpDi=121
 HFx  wShort=  0.000000 wLong=  0.200000 cFull=  0.222036 cShort=  0.000000 cLong=  0.777964
 DFx  wShort=  0.000000 wLong=  0.200000 cFull=  0.000000 cShort=  0.000000 cLong=  1.000000
 NAtoms=   15 NActive=   15 NUniq=   15 SFac= 1.00D+00 NAtFMM=   60 NAOKFM=F Big=F
 Integral buffers will be    131072 words long.
 Raffenetti 2 integral format.
 Two-electron integral symmetry is turned off.
 R6Disp:  Grimme-D2 Dispersion energy=       -0.0080346408 Hartrees.
 Nuclear repulsion after empirical dispersion term =      772.8865623173 Hartrees.
 Leave Link  301 at Thu May  2 13:57:44 2024, MaxMem=   134217728 cpu:               1.1 elap:               1.1
 (Enter /software/gaussian/g16-c01/sse4/g16/l302.exe)
 NPDir=0 NMtPBC=     1 NCelOv=     1 NCel=       1 NClECP=     1 NCelD=      1
         NCelK=      1 NCelE2=     1 NClLst=     1 CellRange=     0.0.
 One-electron integrals computed using PRISM.
 NBasis=   261 RedAO= T EigKep=  2.52D-06  NBF=   261
 NBsUse=   261 1.00D-06 EigRej= -1.00D+00 NBFU=   261
 Precomputing XC quadrature grid using
 IXCGrd= 4 IRadAn=           5 IRanWt=          -1 IRanGd=           0 AccXCQ= 0.00D+00.
 Generated NRdTot=       0 NPtTot=           0 NUsed=           0 NTot=          32
 NSgBfM=   273   273   273   273   273 MxSgAt=    15 MxSgA2=    15.
 Leave Link  302 at Thu May  2 13:58:06 2024, MaxMem=   134217728 cpu:              22.0 elap:              22.1
 (Enter /software/gaussian/g16-c01/sse4/g16/l303.exe)
 DipDrv:  MaxL=1.
 The nuclear repulsion energy is now       773.5917508105 hartrees.
 Leave Link  303 at Thu May  2 13:58:09 2024, MaxMem=   134217728 cpu:               3.3 elap:               3.3
 (Enter /software/gaussian/g16-c01/sse4/g16/l401.exe)
 ExpMin= 3.50D-02 ExpMax= 4.40D+05 ExpMxC= 1.51D+04 IAcc=3 IRadAn=         5 AccDes= 0.00D+00
 Harris functional with IExCor= 4639 and IRadAn=       5 diagonalized for initial guess.
 HarFok:  IExCor= 4639 AccDes= 0.00D+00 IRadAn=         5 IDoV= 1 UseB2=F ITyADJ=14
 ICtDFT=  3500011 ScaDFX=  1.000000  1.000000  1.000000  1.000000
 FoFCou: FMM=F IPFlag=           0 FMFlag=      100000 FMFlg1=           0
         NFxFlg=           0 DoJE=T BraDBF=F KetDBF=T FulRan=T
         wScrn=  0.000000 ICntrl=       500 IOpCl=  0 I1Cent=   200000004 NGrid=           0
         NMat0=    1 NMatS0=      1 NMatT0=    0 NMatD0=    1 NMtDS0=    0 NMtDT0=    0
 Symmetry not used in FoFCou.
 Harris En= -2970.60282244096    
 JPrj=0 DoOrth=F DoCkMO=F.
 Leave Link  401 at Thu May  2 13:58:41 2024, MaxMem=   134217728 cpu:              31.4 elap:              31.4
 (Enter /software/gaussian/g16-c01/sse4/g16/l502.exe)
 Two-electron integral symmetry not used.
 Closed shell SCF:
 Using DIIS extrapolation, IDIIS=  1040.
 NGot=   134217728 LenX=   134063053 LenY=   133988083
 Requested convergence on RMS density matrix=1.00D-08 within 128 cycles.
 Requested convergence on MAX density matrix=1.00D-06.
 Requested convergence on             energy=1.00D-06.
 No special actions if energy rises.
 Fock matrices will be formed incrementally for  20 cycles.

 Cycle   1  Pass 1  IDiag  1:
 FoFJK:  IHMeth= 1 ICntrl=       0 DoSepK=T KAlg= 0 I1Cent=           0 FoldK=F
 IRaf=         1 NMat=       1 IRICut=       1 DoRegI=T DoRafI=F ISym2E= 0 IDoP0=0 IntGTp=1.
 FoFCou: FMM=F IPFlag=           0 FMFlag=      100000 FMFlg1=           0
         NFxFlg=           0 DoJE=T BraDBF=F KetDBF=F FulRan=T
         wScrn=  0.000000 ICntrl=       500 IOpCl=  0 I1Cent=           0 NGrid=           0
         NMat0=    1 NMatS0=      1 NMatT0=    0 NMatD0=    1 NMtDS0=    0 NMtDT0=    0
 Symmetry not used in FoFCou.
 E= -3009.69904528638    
 DIIS: error= 2.90D-01 at cycle   1 NSaved=   1.
 NSaved= 1 IEnMin= 1 EnMin= -3009.69904528638     IErMin= 1 ErrMin= 2.90D-01
 ErrMax= 2.90D-01  0.00D+00 EMaxC= 1.00D-01 BMatC= 1.19D+01 BMatP= 1.19D+01
 IDIUse=3 WtCom= 0.00D+00 WtEn= 1.00D+00
 Coeff-Com:  0.100D+01
 Coeff-En:   0.100D+01
 Coeff:      0.100D+01
 Gap=     0.340 Goal=   None    Shift=    0.000
 GapD=    0.340 DampG=1.000 DampE=0.250 DampFc=0.2500 IDamp=-1.
 Damping current iteration by 2.50D-01
 RMSDP=5.22D-02 MaxDP=5.89D+00              OVMax= 2.57D-01

 Cycle   2  Pass 1  IDiag  1:
 RMSU=  5.53D-03    CP:  9.01D-01
 E= -3009.98917240306     Delta-E=       -0.290127116675 Rises=F Damp=T
 DIIS: error= 2.19D-01 at cycle   2 NSaved=   2.
 NSaved= 2 IEnMin= 2 EnMin= -3009.98917240306     IErMin= 2 ErrMin= 2.19D-01
 ErrMax= 2.19D-01  0.00D+00 EMaxC= 1.00D-01 BMatC= 5.46D+00 BMatP= 1.19D+01
 IDIUse=3 WtCom= 0.00D+00 WtEn= 1.00D+00
 Coeff-Com: -0.183D+01 0.283D+01
 Coeff-En:   0.000D+00 0.100D+01
 Coeff:      0.000D+00 0.100D+01
 Gap=     0.265 Goal=   None    Shift=    0.000
 RMSDP=3.90D-02 MaxDP=4.57D+00 DE=-2.90D-01 OVMax= 7.04D-02

 Cycle   3  Pass 1  IDiag  1:
 RMSU=  5.28D-03    CP:  5.92D-01  3.00D+00
 E= -3010.37871997670     Delta-E=       -0.389547573640 Rises=F Damp=F
 DIIS: error= 6.57D-02 at cycle   3 NSaved=   3.
 NSaved= 3 IEnMin= 3 EnMin= -3010.37871997670     IErMin= 3 ErrMin= 6.57D-02
 ErrMax= 6.57D-02  0.00D+00 EMaxC= 1.00D-01 BMatC= 7.28D-01 BMatP= 5.46D+00
 IDIUse=3 WtCom= 3.43D-01 WtEn= 6.57D-01
 Coeff-Com:  0.256D+01-0.335D+01 0.179D+01
 Coeff-En:   0.277D-01 0.000D+00 0.972D+00
 Coeff:      0.896D+00-0.115D+01 0.125D+01
 Gap=     0.264 Goal=   None    Shift=    0.000
 RMSDP=1.17D-02 MaxDP=7.08D-01 DE=-3.90D-01 OVMax= 7.43D-02

 Cycle   4  Pass 1  IDiag  1:
 RMSU=  4.07D-03    CP:  6.29D-01  1.50D+00  2.08D+00
 E= -3010.48153683702     Delta-E=       -0.102816860322 Rises=F Damp=F
 DIIS: error= 3.85D-02 at cycle   4 NSaved=   4.
 NSaved= 4 IEnMin= 4 EnMin= -3010.48153683702     IErMin= 4 ErrMin= 3.85D-02
 ErrMax= 3.85D-02  0.00D+00 EMaxC= 1.00D-01 BMatC= 2.35D-01 BMatP= 7.28D-01
 IDIUse=3 WtCom= 6.15D-01 WtEn= 3.85D-01
 Coeff-Com:  0.168D+00-0.209D+00 0.459D+00 0.582D+00
 Coeff-En:   0.000D+00 0.000D+00 0.210D+00 0.790D+00
 Coeff:      0.103D+00-0.129D+00 0.363D+00 0.663D+00
 Gap=     0.265 Goal=   None    Shift=    0.000
 RMSDP=3.88D-03 MaxDP=2.52D-01 DE=-1.03D-01 OVMax= 5.31D-02

 Cycle   5  Pass 1  IDiag  1:
 RMSU=  1.84D-03    CP:  6.11D-01  1.81D+00  2.01D+00  5.20D-01
 E= -3010.52486804697     Delta-E=       -0.043331209949 Rises=F Damp=F
 DIIS: error= 1.12D-02 at cycle   5 NSaved=   5.
 NSaved= 5 IEnMin= 5 EnMin= -3010.52486804697     IErMin= 5 ErrMin= 1.12D-02
 ErrMax= 1.12D-02  0.00D+00 EMaxC= 1.00D-01 BMatC= 1.35D-02 BMatP= 2.35D-01
 IDIUse=3 WtCom= 8.88D-01 WtEn= 1.12D-01
 Coeff-Com: -0.654D-01 0.936D-01 0.163D+00 0.410D+00 0.399D+00
 Coeff-En:   0.000D+00 0.000D+00 0.000D+00 0.000D+00 0.100D+01
 Coeff:     -0.581D-01 0.831D-01 0.145D+00 0.364D+00 0.466D+00
 Gap=     0.261 Goal=   None    Shift=    0.000
 RMSDP=2.78D-03 MaxDP=3.62D-01 DE=-4.33D-02 OVMax= 3.27D-02

 Cycle   6  Pass 1  IDiag  1:
 RMSU=  9.01D-04    CP:  5.93D-01  1.82D+00  2.01D+00  7.61D-01  3.11D-01
 E= -3010.53079943557     Delta-E=       -0.005931388604 Rises=F Damp=F
 DIIS: error= 3.84D-03 at cycle   6 NSaved=   6.
 NSaved= 6 IEnMin= 6 EnMin= -3010.53079943557     IErMin= 6 ErrMin= 3.84D-03
 ErrMax= 3.84D-03  0.00D+00 EMaxC= 1.00D-01 BMatC= 1.33D-03 BMatP= 1.35D-02
 IDIUse=3 WtCom= 9.62D-01 WtEn= 3.84D-02
 Coeff-Com: -0.871D-01 0.117D+00 0.582D-02 0.148D+00 0.318D+00 0.497D+00
 Coeff-En:   0.000D+00 0.000D+00 0.000D+00 0.000D+00 0.128D+00 0.872D+00
 Coeff:     -0.838D-01 0.113D+00 0.560D-02 0.143D+00 0.311D+00 0.512D+00
 Gap=     0.246 Goal=   None    Shift=    0.000
 RMSDP=7.74D-04 MaxDP=1.05D-01 DE=-5.93D-03 OVMax= 8.81D-03

 Cycle   7  Pass 1  IDiag  1:
 RMSU=  2.05D-04    CP:  5.98D-01  1.82D+00  2.02D+00  7.30D-01  5.13D-01
                    CP:  6.92D-01
 E= -3010.53174716833     Delta-E=       -0.000947732756 Rises=F Damp=F
 DIIS: error= 3.16D-04 at cycle   7 NSaved=   7.
 NSaved= 7 IEnMin= 7 EnMin= -3010.53174716833     IErMin= 7 ErrMin= 3.16D-04
 ErrMax= 3.16D-04  0.00D+00 EMaxC= 1.00D-01 BMatC= 1.64D-05 BMatP= 1.33D-03
 IDIUse=3 WtCom= 9.97D-01 WtEn= 3.16D-03
 Coeff-Com: -0.302D-01 0.401D-01-0.117D-01 0.243D-01 0.744D-01 0.176D+00
 Coeff-Com:  0.727D+00
 Coeff-En:   0.000D+00 0.000D+00 0.000D+00 0.000D+00 0.000D+00 0.000D+00
 Coeff-En:   0.100D+01
 Coeff:     -0.301D-01 0.400D-01-0.116D-01 0.242D-01 0.742D-01 0.176D+00
 Coeff:      0.728D+00
 Gap=     0.247 Goal=   None    Shift=    0.000
 RMSDP=2.74D-04 MaxDP=3.47D-02 DE=-9.48D-04 OVMax= 2.28D-03

 Cycle   8  Pass 1  IDiag  1:
 RMSU=  8.04D-05    CP:  5.96D-01  1.82D+00  2.03D+00  7.46D-01  5.13D-01
                    CP:  8.13D-01  8.99D-01
 E= -3010.53177072138     Delta-E=       -0.000023553055 Rises=F Damp=F
 DIIS: error= 9.41D-05 at cycle   8 NSaved=   8.
 NSaved= 8 IEnMin= 8 EnMin= -3010.53177072138     IErMin= 8 ErrMin= 9.41D-05
 ErrMax= 9.41D-05  0.00D+00 EMaxC= 1.00D-01 BMatC= 2.53D-06 BMatP= 1.64D-05
 IDIUse=1 WtCom= 1.00D+00 WtEn= 0.00D+00
 Coeff-Com:  0.679D-02-0.931D-02-0.360D-02-0.155D-01-0.303D-01-0.423D-01
 Coeff-Com:  0.176D+00 0.918D+00
 Coeff:      0.679D-02-0.931D-02-0.360D-02-0.155D-01-0.303D-01-0.423D-01
 Coeff:      0.176D+00 0.918D+00
 Gap=     0.247 Goal=   None    Shift=    0.000
 RMSDP=6.53D-05 MaxDP=2.70D-03 DE=-2.36D-05 OVMax= 1.90D-03

 Cycle   9  Pass 1  IDiag  1:
 RMSU=  2.88D-05    CP:  5.96D-01  1.81D+00  2.03D+00  7.55D-01  5.15D-01
                    CP:  8.28D-01  1.05D+00  1.28D+00
 E= -3010.53177769026     Delta-E=       -0.000006968881 Rises=F Damp=F
 DIIS: error= 3.89D-05 at cycle   9 NSaved=   9.
 NSaved= 9 IEnMin= 9 EnMin= -3010.53177769026     IErMin= 9 ErrMin= 3.89D-05
 ErrMax= 3.89D-05  0.00D+00 EMaxC= 1.00D-01 BMatC= 3.87D-07 BMatP= 2.53D-06
 IDIUse=1 WtCom= 1.00D+00 WtEn= 0.00D+00
 Coeff-Com:  0.747D-02-0.100D-01 0.100D-02-0.864D-02-0.165D-01-0.334D-01
 Coeff-Com: -0.702D-01 0.218D+00 0.913D+00
 Coeff:      0.747D-02-0.100D-01 0.100D-02-0.864D-02-0.165D-01-0.334D-01
 Coeff:     -0.702D-01 0.218D+00 0.913D+00
 Gap=     0.247 Goal=   None    Shift=    0.000
 RMSDP=6.07D-05 MaxDP=7.49D-03 DE=-6.97D-06 OVMax= 1.12D-03

 Cycle  10  Pass 1  IDiag  1:
 RMSU=  1.11D-05    CP:  5.96D-01  1.81D+00  2.03D+00  7.56D-01  5.12D-01
                    CP:  8.43D-01  1.06D+00  1.60D+00  1.09D+00
 E= -3010.53177937276     Delta-E=       -0.000001682493 Rises=F Damp=F
 DIIS: error= 1.81D-05 at cycle  10 NSaved=  10.
 NSaved=10 IEnMin=10 EnMin= -3010.53177937276     IErMin=10 ErrMin= 1.81D-05
 ErrMax= 1.81D-05  0.00D+00 EMaxC= 1.00D-01 BMatC= 1.17D-07 BMatP= 3.87D-07
 IDIUse=1 WtCom= 1.00D+00 WtEn= 0.00D+00
 Coeff-Com:  0.372D-03-0.465D-03 0.652D-03 0.616D-03 0.518D-02 0.792D-02
 Coeff-Com: -0.465D-01-0.158D+00 0.204D+00 0.985D+00
 Coeff:      0.372D-03-0.465D-03 0.652D-03 0.616D-03 0.518D-02 0.792D-02
 Coeff:     -0.465D-01-0.158D+00 0.204D+00 0.985D+00
 Gap=     0.247 Goal=   None    Shift=    0.000
 RMSDP=2.19D-05 MaxDP=1.86D-03 DE=-1.68D-06 OVMax= 6.36D-04

 Cycle  11  Pass 1  IDiag  1:
 RMSU=  1.25D-05    CP:  5.96D-01  1.81D+00  2.03D+00  7.54D-01  5.13D-01
                    CP:  8.42D-01  1.05D+00  1.75D+00  1.31D+00  1.47D+00
 E= -3010.53177982699     Delta-E=       -0.000000454239 Rises=F Damp=F
 DIIS: error= 9.49D-06 at cycle  11 NSaved=  11.
 NSaved=11 IEnMin=11 EnMin= -3010.53177982699     IErMin=11 ErrMin= 9.49D-06
 ErrMax= 9.49D-06  0.00D+00 EMaxC= 1.00D-01 BMatC= 1.34D-08 BMatP= 1.17D-07
 IDIUse=1 WtCom= 1.00D+00 WtEn= 0.00D+00
 Coeff-Com: -0.399D-03 0.538D-03 0.104D-03 0.917D-03 0.230D-02 0.525D-02
 Coeff-Com:  0.102D-01-0.371D-01-0.130D+00 0.480D-02 0.114D+01
 Coeff:     -0.399D-03 0.538D-03 0.104D-03 0.917D-03 0.230D-02 0.525D-02
 Coeff:      0.102D-01-0.371D-01-0.130D+00 0.480D-02 0.114D+01
 Gap=     0.247 Goal=   None    Shift=    0.000
 RMSDP=1.66D-05 MaxDP=1.56D-03 DE=-4.54D-07 OVMax= 3.12D-04

 Cycle  12  Pass 1  IDiag  1:
 RMSU=  2.24D-06    CP:  5.96D-01  1.81D+00  2.03D+00  7.53D-01  5.13D-01
                    CP:  8.41D-01  1.04D+00  1.84D+00  1.35D+00  1.85D+00
                    CP:  1.53D+00
 E= -3010.53177992272     Delta-E=       -0.000000095729 Rises=F Damp=F
 DIIS: error= 6.37D-06 at cycle  12 NSaved=  12.
 NSaved=12 IEnMin=12 EnMin= -3010.53177992272     IErMin=12 ErrMin= 6.37D-06
 ErrMax= 6.37D-06  0.00D+00 EMaxC= 1.00D-01 BMatC= 5.44D-09 BMatP= 1.34D-08
 IDIUse=1 WtCom= 1.00D+00 WtEn= 0.00D+00
 Coeff-Com: -0.193D-03 0.253D-03-0.481D-04 0.303D-03-0.152D-03 0.543D-03
 Coeff-Com:  0.155D-01 0.141D-01-0.114D+00-0.230D+00 0.595D+00 0.719D+00
 Coeff:     -0.193D-03 0.253D-03-0.481D-04 0.303D-03-0.152D-03 0.543D-03
 Coeff:      0.155D-01 0.141D-01-0.114D+00-0.230D+00 0.595D+00 0.719D+00
 Gap=     0.247 Goal=   None    Shift=    0.000
 RMSDP=4.84D-06 MaxDP=4.32D-04 DE=-9.57D-08 OVMax= 1.34D-04

 Cycle  13  Pass 1  IDiag  1:
 RMSU=  1.16D-06    CP:  5.96D-01  1.81D+00  2.03D+00  7.53D-01  5.12D-01
                    CP:  8.40D-01  1.03D+00  1.86D+00  1.39D+00  1.98D+00
                    CP:  1.78D+00  1.19D+00
 E= -3010.53177994196     Delta-E=       -0.000000019237 Rises=F Damp=F
 DIIS: error= 1.98D-06 at cycle  13 NSaved=  13.
 NSaved=13 IEnMin=13 EnMin= -3010.53177994196     IErMin=13 ErrMin= 1.98D-06
 ErrMax= 1.98D-06  0.00D+00 EMaxC= 1.00D-01 BMatC= 5.02D-10 BMatP= 5.44D-09
 IDIUse=1 WtCom= 1.00D+00 WtEn= 0.00D+00
 Coeff-Com:  0.165D-04-0.226D-04-0.276D-04-0.113D-03-0.446D-03-0.103D-02
 Coeff-Com: -0.154D-02 0.559D-02 0.237D-01-0.847D-02-0.179D+00 0.674D-01
 Coeff-Com:  0.109D+01
 Coeff:      0.165D-04-0.226D-04-0.276D-04-0.113D-03-0.446D-03-0.103D-02
 Coeff:     -0.154D-02 0.559D-02 0.237D-01-0.847D-02-0.179D+00 0.674D-01
 Coeff:      0.109D+01
 Gap=     0.247 Goal=   None    Shift=    0.000
 RMSDP=1.42D-06 MaxDP=8.22D-05 DE=-1.92D-08 OVMax= 4.22D-05

 Cycle  14  Pass 1  IDiag  1:
 RMSU=  3.67D-07    CP:  5.96D-01  1.81D+00  2.03D+00  7.53D-01  5.12D-01
                    CP:  8.40D-01  1.03D+00  1.87D+00  1.39D+00  2.01D+00
                    CP:  1.83D+00  1.45D+00  1.57D+00
 E= -3010.53177994472     Delta-E=       -0.000000002754 Rises=F Damp=F
 DIIS: error= 7.83D-07 at cycle  14 NSaved=  14.
 NSaved=14 IEnMin=14 EnMin= -3010.53177994472     IErMin=14 ErrMin= 7.83D-07
 ErrMax= 7.83D-07  0.00D+00 EMaxC= 1.00D-01 BMatC= 1.16D-10 BMatP= 5.02D-10
 IDIUse=1 WtCom= 1.00D+00 WtEn= 0.00D+00
 Coeff-Com:  0.124D-04-0.159D-04-0.108D-04-0.789D-04-0.118D-03-0.414D-03
 Coeff-Com: -0.321D-02-0.339D-03 0.293D-01 0.352D-01-0.176D+00-0.920D-01
 Coeff-Com:  0.431D+00 0.777D+00
 Coeff:      0.124D-04-0.159D-04-0.108D-04-0.789D-04-0.118D-03-0.414D-03
 Coeff:     -0.321D-02-0.339D-03 0.293D-01 0.352D-01-0.176D+00-0.920D-01
 Coeff:      0.431D+00 0.777D+00
 Gap=     0.247 Goal=   None    Shift=    0.000
 RMSDP=6.05D-07 MaxDP=4.36D-05 DE=-2.75D-09 OVMax= 1.41D-05

 Cycle  15  Pass 1  IDiag  1:
 RMSU=  1.68D-07    CP:  5.96D-01  1.81D+00  2.03D+00  7.53D-01  5.12D-01
                    CP:  8.39D-01  1.03D+00  1.87D+00  1.39D+00  2.02D+00
                    CP:  1.86D+00  1.55D+00  1.77D+00  1.35D+00
 E= -3010.53177994518     Delta-E=       -0.000000000466 Rises=F Damp=F
 DIIS: error= 3.34D-07 at cycle  15 NSaved=  15.
 NSaved=15 IEnMin=15 EnMin= -3010.53177994518     IErMin=15 ErrMin= 3.34D-07
 ErrMax= 3.34D-07  0.00D+00 EMaxC= 1.00D-01 BMatC= 1.24D-11 BMatP= 1.16D-10
 IDIUse=1 WtCom= 1.00D+00 WtEn= 0.00D+00
 Coeff-Com:  0.375D-05-0.488D-05 0.441D-05 0.253D-05 0.366D-04 0.112D-03
 Coeff-Com: -0.190D-03-0.441D-03-0.505D-03 0.396D-02 0.858D-02-0.239D-01
 Coeff-Com: -0.141D+00 0.107D+00 0.105D+01
 Coeff:      0.375D-05-0.488D-05 0.441D-05 0.253D-05 0.366D-04 0.112D-03
 Coeff:     -0.190D-03-0.441D-03-0.505D-03 0.396D-02 0.858D-02-0.239D-01
 Coeff:     -0.141D+00 0.107D+00 0.105D+01
 Gap=     0.247 Goal=   None    Shift=    0.000
 RMSDP=3.44D-07 MaxDP=2.61D-05 DE=-4.66D-10 OVMax= 7.35D-06

 Cycle  16  Pass 1  IDiag  1:
 RMSU=  7.85D-08    CP:  5.96D-01  1.81D+00  2.03D+00  7.53D-01  5.12D-01
                    CP:  8.39D-01  1.03D+00  1.87D+00  1.39D+00  2.03D+00
                    CP:  1.86D+00  1.59D+00  1.83D+00  1.56D+00  1.62D+00
 E= -3010.53177994521     Delta-E=       -0.000000000032 Rises=F Damp=F
 DIIS: error= 8.61D-08 at cycle  16 NSaved=  16.
 NSaved=16 IEnMin=16 EnMin= -3010.53177994521     IErMin=16 ErrMin= 8.61D-08
 ErrMax= 8.61D-08  0.00D+00 EMaxC= 1.00D-01 BMatC= 1.37D-12 BMatP= 1.24D-11
 IDIUse=1 WtCom= 1.00D+00 WtEn= 0.00D+00
 Coeff-Com: -0.303D-06 0.392D-06 0.221D-05 0.813D-05 0.140D-04 0.545D-04
 Coeff-Com:  0.205D-03-0.983D-05-0.272D-02-0.206D-02 0.179D-01 0.300D-02
 Coeff-Com: -0.579D-01-0.621D-01 0.151D+00 0.953D+00
 Coeff:     -0.303D-06 0.392D-06 0.221D-05 0.813D-05 0.140D-04 0.545D-04
 Coeff:      0.205D-03-0.983D-05-0.272D-02-0.206D-02 0.179D-01 0.300D-02
 Coeff:     -0.579D-01-0.621D-01 0.151D+00 0.953D+00
 Gap=     0.247 Goal=   None    Shift=    0.000
 RMSDP=9.69D-08 MaxDP=7.65D-06 DE=-3.18D-11 OVMax= 1.68D-06

 Cycle  17  Pass 1  IDiag  1:
 RMSU=  2.23D-08    CP:  5.96D-01  1.81D+00  2.03D+00  7.53D-01  5.12D-01
                    CP:  8.39D-01  1.03D+00  1.87D+00  1.39D+00  2.03D+00
                    CP:  1.86D+00  1.60D+00  1.84D+00  1.61D+00  1.91D+00
                    CP:  1.27D+00
 E= -3010.53177994521     Delta-E=        0.000000000000 Rises=F Damp=F
 DIIS: error= 3.51D-08 at cycle  17 NSaved=  17.
 NSaved=17 IEnMin=16 EnMin= -3010.53177994521     IErMin=17 ErrMin= 3.51D-08
 ErrMax= 3.51D-08  0.00D+00 EMaxC= 1.00D-01 BMatC= 2.23D-13 BMatP= 1.37D-12
 IDIUse=1 WtCom= 1.00D+00 WtEn= 0.00D+00
 Coeff-Com: -0.165D-05 0.219D-05-0.205D-06 0.233D-05-0.763D-06-0.131D-06
 Coeff-Com:  0.479D-04 0.896D-04-0.564D-03-0.914D-03 0.282D-02 0.251D-02
 Coeff-Com:  0.579D-02-0.291D-01-0.990D-01 0.205D+00 0.913D+00
 Coeff:     -0.165D-05 0.219D-05-0.205D-06 0.233D-05-0.763D-06-0.131D-06
 Coeff:      0.479D-04 0.896D-04-0.564D-03-0.914D-03 0.282D-02 0.251D-02
 Coeff:      0.579D-02-0.291D-01-0.990D-01 0.205D+00 0.913D+00
 Gap=     0.247 Goal=   None    Shift=    0.000
 RMSDP=7.08D-08 MaxDP=7.00D-06 DE= 0.00D+00 OVMax= 5.91D-07

 Cycle  18  Pass 1  IDiag  1:
 RMSU=  6.00D-09    CP:  5.96D-01  1.81D+00  2.03D+00  7.53D-01  5.12D-01
                    CP:  8.39D-01  1.03D+00  1.87D+00  1.39D+00  2.03D+00
                    CP:  1.87D+00  1.60D+00  1.83D+00  1.61D+00  2.01D+00
                    CP:  1.47D+00  1.19D+00
 E= -3010.53177994522     Delta-E=       -0.000000000008 Rises=F Damp=F
 DIIS: error= 1.73D-08 at cycle  18 NSaved=  18.
 NSaved=18 IEnMin=18 EnMin= -3010.53177994522     IErMin=18 ErrMin= 1.73D-08
 ErrMax= 1.73D-08  0.00D+00 EMaxC= 1.00D-01 BMatC= 4.43D-14 BMatP= 2.23D-13
 IDIUse=1 WtCom= 1.00D+00 WtEn= 0.00D+00
 Coeff-Com: -0.406D-06 0.542D-06-0.402D-06-0.716D-06-0.371D-05-0.109D-04
 Coeff-Com: -0.194D-04 0.641D-04 0.237D-03-0.490D-04-0.181D-02 0.374D-03
 Coeff-Com:  0.126D-01 0.253D-03-0.596D-01-0.966D-01 0.308D+00 0.837D+00
 Coeff:     -0.406D-06 0.542D-06-0.402D-06-0.716D-06-0.371D-05-0.109D-04
 Coeff:     -0.194D-04 0.641D-04 0.237D-03-0.490D-04-0.181D-02 0.374D-03
 Coeff:      0.126D-01 0.253D-03-0.596D-01-0.966D-01 0.308D+00 0.837D+00
 Gap=     0.247 Goal=   None    Shift=    0.000
 RMSDP=2.76D-08 MaxDP=2.70D-06 DE=-8.19D-12 OVMax= 2.71D-07

 Cycle  19  Pass 1  IDiag  1:
 RMSU=  3.02D-09    CP:  5.96D-01  1.81D+00  2.03D+00  7.53D-01  5.12D-01
                    CP:  8.39D-01  1.03D+00  1.87D+00  1.39D+00  2.03D+00
                    CP:  1.87D+00  1.60D+00  1.83D+00  1.60D+00  2.05D+00
                    CP:  1.54D+00  1.35D+00  1.27D+00
 E= -3010.53177994521     Delta-E=        0.000000000017 Rises=F Damp=F
 DIIS: error= 9.48D-09 at cycle  19 NSaved=  19.
 NSaved=19 IEnMin=18 EnMin= -3010.53177994522     IErMin=19 ErrMin= 9.48D-09
 ErrMax= 9.48D-09  0.00D+00 EMaxC= 1.00D-01 BMatC= 3.83D-15 BMatP= 4.43D-14
 IDIUse=1 WtCom= 1.00D+00 WtEn= 0.00D+00
 Large coefficients: NSaved= 19 BigCof=    0.00 CofMax=   10.00 Det=-1.10D-14
 Inversion failed.  Reducing to 18 matrices.
 Large coefficients: NSaved= 18 BigCof=    0.00 CofMax=   10.00 Det=-7.25D-15
 Inversion failed.  Reducing to 17 matrices.
 Coeff-Com:  0.190D-07 0.409D-07 0.711D-06 0.169D-05-0.349D-05-0.229D-04
 Coeff-Com:  0.207D-04 0.110D-03-0.691D-04-0.422D-03-0.240D-02 0.353D-02
 Coeff-Com:  0.197D-01-0.166D-01-0.137D+00-0.977D-01 0.123D+01
 Coeff:      0.190D-07 0.409D-07 0.711D-06 0.169D-05-0.349D-05-0.229D-04
 Coeff:      0.207D-04 0.110D-03-0.691D-04-0.422D-03-0.240D-02 0.353D-02
 Coeff:      0.197D-01-0.166D-01-0.137D+00-0.977D-01 0.123D+01
 Gap=     0.247 Goal=   None    Shift=    0.000
 RMSDP=5.09D-09 MaxDP=4.14D-07 DE= 1.68D-11 OVMax= 1.74D-07

 SCF Done:  E(RwB97XD) =  -3010.53177995     A.U. after   19 cycles
            NFock= 19  Conv=0.51D-08     -V/T= 2.0016
 KE= 3.005860032902D+03 PE=-8.700481142394D+03 EE= 1.910497578736D+03
 Leave Link  502 at Thu May  2 14:18:36 2024, MaxMem=   134217728 cpu:            1195.3 elap:            1195.6
 (Enter /software/gaussian/g16-c01/sse4/g16/l601.exe)
 Copying SCF densities to generalized density rwf, IOpCl= 0 IROHF=0.

 **********************************************************************

            Population analysis using the SCF Density.

 **********************************************************************

 Alpha  occ. eigenvalues -- -483.31933 -62.86966 -56.66648 -56.66092 -56.66085
 Alpha  occ. eigenvalues --  -19.46285 -19.46181 -14.85665 -10.59284 -10.58745
 Alpha  occ. eigenvalues --  -10.57646 -10.56964 -10.53205 -10.52924  -9.02778
 Alpha  occ. eigenvalues --   -6.85428  -6.83602  -6.83581  -2.95339  -2.94856
 Alpha  occ. eigenvalues --   -2.94838  -2.93377  -2.93376  -1.49923  -1.32880
 Alpha  occ. eigenvalues --   -1.22686  -1.13110  -1.12673  -1.05243  -1.00541
 Alpha  occ. eigenvalues --   -0.95564  -0.90714  -0.85075  -0.80992  -0.80336
 Alpha  occ. eigenvalues --   -0.80092  -0.78108  -0.76209  -0.75771  -0.72280
 Alpha  occ. eigenvalues --   -0.68701  -0.67626  -0.63551  -0.60262  -0.57521
 Alpha  occ. eigenvalues --   -0.57247  -0.56715  -0.55917  -0.55037
 Alpha virt. eigenvalues --   -0.30373  -0.20408  -0.16243  -0.13218  -0.09962
 Alpha virt. eigenvalues --   -0.06712  -0.05888  -0.05829  -0.04276  -0.03188
 Alpha virt. eigenvalues --   -0.02847  -0.02227  -0.02194  -0.01427  -0.00605
 Alpha virt. eigenvalues --    0.00307   0.01355   0.01795   0.02499   0.03116
 Alpha virt. eigenvalues --    0.04103   0.04934   0.05641   0.05937   0.06828
 Alpha virt. eigenvalues --    0.07293   0.07428   0.08538   0.08825   0.09872
 Alpha virt. eigenvalues --    0.10302   0.10683   0.11509   0.11691   0.12726
 Alpha virt. eigenvalues --    0.13048   0.13418   0.14030   0.14664   0.15844
 Alpha virt. eigenvalues --    0.16550   0.17501   0.18012   0.18452   0.19069
 Alpha virt. eigenvalues --    0.20189   0.21383   0.21775   0.22525   0.24096
 Alpha virt. eigenvalues --    0.24786   0.26541   0.27435   0.28958   0.30851
 Alpha virt. eigenvalues --    0.31578   0.33123   0.33593   0.34643   0.36610
 Alpha virt. eigenvalues --    0.36969   0.37515   0.39726   0.40417   0.41491
 Alpha virt. eigenvalues --    0.43303   0.44135   0.45632   0.46950   0.47411
 Alpha virt. eigenvalues --    0.48485   0.50041   0.50686   0.51853   0.53780
 Alpha virt. eigenvalues --    0.54822   0.55424   0.57723   0.58592   0.60046
 Alpha virt. eigenvalues --    0.61195   0.62111   0.64054   0.66787   0.68202
 Alpha virt. eigenvalues --    0.71618   0.71900   0.72556   0.73922   0.74583
 Alpha virt. eigenvalues --    0.74974   0.77740   0.79910   0.82652   0.85392
 Alpha virt. eigenvalues --    0.86977   0.87558   0.91544   0.94125   0.98927
 Alpha virt. eigenvalues --    1.00200   1.02440   1.03951   1.05553   1.06940
 Alpha virt. eigenvalues --    1.08410   1.12615   1.13423   1.14212   1.18094
 Alpha virt. eigenvalues --    1.20720   1.22796   1.28134   1.33234   1.36289
 Alpha virt. eigenvalues --    1.36819   1.38916   1.42910   1.54698   1.56585
 Alpha virt. eigenvalues --    1.57396   1.59852   1.61127   1.63928   1.65625
 Alpha virt. eigenvalues --    1.68110   1.71415   1.73968   1.75183   1.79420
 Alpha virt. eigenvalues --    1.83714   1.85426   1.87524   1.94141   1.95706
 Alpha virt. eigenvalues --    1.97761   2.02142   2.02967   2.07124   2.08665
 Alpha virt. eigenvalues --    2.12623   2.14576   2.22321   2.23673   2.27638
 Alpha virt. eigenvalues --    2.33607   2.39653   2.41582   2.44245   2.53265
 Alpha virt. eigenvalues --    2.57881   2.63179   2.66032   2.68786   2.71708
 Alpha virt. eigenvalues --    2.73746   2.76374   2.77421   2.80616   2.81893
 Alpha virt. eigenvalues --    2.93066   2.98014   3.01359   3.05503   3.08997
 Alpha virt. eigenvalues --    3.14919   3.16449   3.17519   3.22471   3.26635
 Alpha virt. eigenvalues --    3.28042   3.37924   3.46707   3.50158   3.54754
 Alpha virt. eigenvalues --    3.57511   3.68895   3.74229   3.83595   3.87307
 Alpha virt. eigenvalues --    4.09228   4.10073   4.18722   4.22813   4.42623
 Alpha virt. eigenvalues --    4.45161   4.54556   4.59882   4.93619   4.96348
 Alpha virt. eigenvalues --    5.05371   5.09621   5.62005   6.15166   6.67242
 Alpha virt. eigenvalues --    7.48091   7.50420   7.60549  23.22123  23.61287
 Alpha virt. eigenvalues --   23.71394  23.78025  23.95636  24.02278  35.31499
 Alpha virt. eigenvalues --   47.93378  49.85228  49.93889 289.81030 289.83371
 Alpha virt. eigenvalues --  289.959991020.94576
          Condensed to atoms (all electrons):
               1          2          3          4          5          6
     1  C    7.601243  -2.063375   0.668545  -0.015458   0.296767   0.051684
     2  C   -2.063375  16.843216  -3.610164   0.401877  -0.012090   0.206912
     3  C    0.668545  -3.610164  19.406806  -1.305864   0.022575   0.100328
     4  C   -0.015458   0.401877  -1.305864   6.360157   0.017317  -0.013064
     5  H    0.296767  -0.012090   0.022575   0.017317   0.309594  -0.001336
     6  H    0.051684   0.206912   0.100328  -0.013064  -0.001336   0.293731
     7  H    0.034102  -0.026656   0.021847   0.306211  -0.002540  -0.000000
     8  N   -0.090994  -0.107297  -1.850502   0.029993  -0.000363  -0.027120
     9  O   -0.004436   0.266162  -0.030014  -0.020942  -0.000029  -0.002275
    10  O    0.253992  -0.155799  -0.253209  -0.020301  -0.000013   0.019626
    11  C    0.715905  -0.578585   2.321272  -0.258334  -0.022144   0.007542
    12  H   -0.016548   0.019416   0.009748   0.027374   0.000024  -0.000017
    13  C   -1.333854  -5.146168  -9.231615   0.825244   0.023131  -0.007505
    14  H    0.001125   0.005169   0.021438  -0.000916  -0.000030   0.000052
    15  Br   0.014211  -0.231090  -0.226370  -0.014931   0.000006  -0.000481
               7          8          9         10         11         12
     1  C    0.034102  -0.090994  -0.004436   0.253992   0.715905  -0.016548
     2  C   -0.026656  -0.107297   0.266162  -0.155799  -0.578585   0.019416
     3  C    0.021847  -1.850502  -0.030014  -0.253209   2.321272   0.009748
     4  C    0.306211   0.029993  -0.020942  -0.020301  -0.258334   0.027374
     5  H   -0.002540  -0.000363  -0.000029  -0.000013  -0.022144   0.000024
     6  H   -0.000000  -0.027120  -0.002275   0.019626   0.007542  -0.000017
     7  H    0.336722  -0.000015   0.000006  -0.000000   0.023597  -0.002534
     8  N   -0.000015   7.671914   0.021874   0.217392  -0.358756   0.000261
     9  O    0.000006   0.021874   7.944328   0.007757   0.283538   0.000145
    10  O   -0.000000   0.217392   0.007757   7.756571  -0.001305  -0.000028
    11  C    0.023597  -0.358756   0.283538  -0.001305   8.072043   0.300459
    12  H   -0.002534   0.000261   0.000145  -0.000028   0.300459   0.342023
    13  C   -0.022600   1.587968  -0.476922   0.069487  -4.362822  -0.010966
    14  H   -0.000024  -0.027072   0.011877  -0.001518   0.053883  -0.005146
    15  Br  -0.000408   0.170586  -0.057522   0.004064   0.011477   0.000409
              13         14         15
     1  C   -1.333854   0.001125   0.014211
     2  C   -5.146168   0.005169  -0.231090
     3  C   -9.231615   0.021438  -0.226370
     4  C    0.825244  -0.000916  -0.014931
     5  H    0.023131  -0.000030   0.000006
     6  H   -0.007505   0.000052  -0.000481
     7  H   -0.022600  -0.000024  -0.000408
     8  N    1.587968  -0.027072   0.170586
     9  O   -0.476922   0.011877  -0.057522
    10  O    0.069487  -0.001518   0.004064
    11  C   -4.362822   0.053883   0.011477
    12  H   -0.010966  -0.005146   0.000409
    13  C   23.710612   0.254219   0.474533
    14  H    0.254219   0.335831  -0.045970
    15  Br   0.474533  -0.045970  34.761024
 Mulliken charges:
               1
     1  C   -0.112911
     2  C    0.188471
     3  C   -0.064820
     4  C   -0.318362
     5  H    0.369128
     6  H    0.371923
     7  H    0.332294
     8  N   -0.237871
     9  O    0.056453
    10  O    0.103283
    11  C   -0.207770
    12  H    0.335380
    13  C   -0.352742
    14  H    0.397082
    15  Br   0.140461
 Sum of Mulliken charges =   1.00000
 Mulliken charges with hydrogens summed into heavy atoms:
               1
     1  C    0.256218
     2  C    0.560395
     3  C   -0.064820
     4  C    0.013931
     8  N   -0.237871
     9  O    0.056453
    10  O    0.103283
    11  C    0.127610
    13  C    0.044340
    15  Br   0.140461
 Electronic spatial extent (au):  <R**2>=           3947.3402
 Charge=              1.0000 electrons
 Dipole moment (field-independent basis, Debye):
    X=              2.6958    Y=              0.7961    Z=             -0.5207  Tot=              2.8587
 Quadrupole moment (field-independent basis, Debye-Ang):
   XX=            -67.9384   YY=            -52.0585   ZZ=            -62.7945
   XY=              0.5771   XZ=             -2.0590   YZ=              1.5597
 Traceless Quadrupole moment (field-independent basis, Debye-Ang):
   XX=             -7.0079   YY=              8.8720   ZZ=             -1.8640
   XY=              0.5771   XZ=             -2.0590   YZ=              1.5597
 Octapole moment (field-independent basis, Debye-Ang**2):
  XXX=           -512.8698  YYY=            102.3824  ZZZ=             84.7458  XYY=           -138.6024
  XXY=             37.3094  XXZ=             26.5361  XZZ=           -134.0212  YZZ=             20.2442
  YYZ=             28.2986  XYZ=              6.0204
 Hexadecapole moment (field-independent basis, Debye-Ang**3):
 XXXX=          -3444.8464 YYYY=           -713.8552 ZZZZ=           -400.6963 XXXY=            231.1383
 XXXZ=            185.6438 YYYX=            205.3093 YYYZ=           -180.4758 ZZZX=            171.6100
 ZZZY=           -150.2694 XXYY=           -628.4250 XXZZ=           -530.0818 YYZZ=           -177.8638
 XXYZ=            -46.0002 YYXZ=             55.2120 ZZXY=             35.6184
 N-N= 7.735917508105D+02 E-N=-8.700481141943D+03  KE= 3.005860032902D+03
 No NMR shielding tensors so no spin-rotation constants.
 Leave Link  601 at Thu May  2 14:18:44 2024, MaxMem=   134217728 cpu:               7.3 elap:               7.2
 (Enter /software/gaussian/g16-c01/sse4/g16/l9999.exe)
 Unable to Open any file for archive entry.
 1\1\GINC-BHX0011\SP\RwB97XD\6-311+G(d)\C6H5Br1N1O2(1+)\BWEIGHT\02-May-
 2024\0\\#P wB97XD/6-311+G* NoSymm #P Field=Y-58\\TitleMe\\1,1\C,0,0.51
 93,1.233,-0.0319\C,0,1.9445,1.2692,-0.0367\C,0,2.6204,0.0928,-0.025\C,
 0,-0.196,0.0301,0.001\H,0,-0.0207,2.1742,-0.0434\H,0,2.4828,2.2089,-0.
 0361\H,0,-1.2777,0.0399,0.0117\N,0,4.0921,0.0959,0.0366\O,0,4.6393,-1.
 0217,0.1446\O,0,4.6649,1.1984,-0.0233\C,0,0.4943,-1.1671,0.021\H,0,-0.
 0325,-2.1149,0.0545\C,0,1.9629,-1.2165,-0.0211\H,0,2.4436,-1.9631,0.61
 51\Br,0,2.173,-1.9491,-1.9062\\Version=ES64L-G16RevC.01\HF=-3010.53177
 99\RMSD=5.093e-09\Dipole=-3.2686037,1.5413452,1.0443539\Quadrupole=-5.
 2102223,6.5960931,-1.3858708,0.4290665,-1.5308335,1.159583\PG=C01 [X(C
 6H5Br1N1O2)]\\@
 The archive entry for this job was punched.


 BE LIKE A POSTAGE STAMP.  STICK TO ONE THING UNTIL
 YOU GET THERE -- JOSH BILLINGS
 Job cpu time:       0 days  0 hours 21 minutes  6.0 seconds.
 Elapsed time:       0 days  0 hours 21 minutes  6.3 seconds.
 File lengths (MBytes):  RWF=     40 Int=      0 D2E=      0 Chk=     32 Scr=      1
 Normal termination of Gaussian 16 at Thu May  2 14:18:44 2024.
