 Entering Gaussian System, Link 0=g16
 Initial command:
 /software/gaussian/g16-c01/sse4/g16/l1.exe "/local_scratch/24665397/Gau-7766.inp" -scrdir="/local_scratch/24665397/"
 Entering Link 1 = /software/gaussian/g16-c01/sse4/g16/l1.exe PID=      7809.
  
 Copyright (c) 1988-2019, Gaussian, Inc.  All Rights Reserved.
  
 This is part of the Gaussian(R) 16 program.  It is based on
 the Gaussian(R) 09 system (copyright 2009, Gaussian, Inc.),
 the Gaussian(R) 03 system (copyright 2003, Gaussian, Inc.),
 the Gaussian(R) 98 system (copyright 1998, Gaussian, Inc.),
 the Gaussian(R) 94 system (copyright 1995, Gaussian, Inc.),
 the Gaussian 92(TM) system (copyright 1992, Gaussian, Inc.),
 the Gaussian 90(TM) system (copyright 1990, Gaussian, Inc.),
 the Gaussian 88(TM) system (copyright 1988, Gaussian, Inc.),
 the Gaussian 86(TM) system (copyright 1986, Carnegie Mellon
 University), and the Gaussian 82(TM) system (copyright 1983,
 Carnegie Mellon University). Gaussian is a federally registered
 trademark of Gaussian, Inc.
  
 This software contains proprietary and confidential information,
 including trade secrets, belonging to Gaussian, Inc.
  
 This software is provided under written license and may be
 used, copied, transmitted, or stored only in accord with that
 written license.
  
 The following legend is applicable only to US Government
 contracts under FAR:
  
                    RESTRICTED RIGHTS LEGEND
  
 Use, reproduction and disclosure by the US Government is
 subject to restrictions as set forth in subparagraphs (a)
 and (c) of the Commercial Computer Software - Restricted
 Rights clause in FAR 52.227-19.
  
 Gaussian, Inc.
 340 Quinnipiac St., Bldg. 40, Wallingford CT 06492
  
  
 ---------------------------------------------------------------
 Warning -- This program may not be used in any manner that
 competes with the business of Gaussian, Inc. or will provide
 assistance to any competitor of Gaussian, Inc.  The licensee
 of this program is prohibited from giving any competitor of
 Gaussian, Inc. access to this program.  By using this program,
 the user acknowledges that Gaussian, Inc. is engaged in the
 business of creating and licensing software in the field of
 computational chemistry and represents and warrants to the
 licensee that it is not a competitor of Gaussian, Inc. and that
 it will not use this program in any manner prohibited above.
 ---------------------------------------------------------------
  

 Cite this work as:
 Gaussian 16, Revision C.01,
 M. J. Frisch, G. W. Trucks, H. B. Schlegel, G. E. Scuseria, 
 M. A. Robb, J. R. Cheeseman, G. Scalmani, V. Barone, 
 G. A. Petersson, H. Nakatsuji, X. Li, M. Caricato, A. V. Marenich, 
 J. Bloino, B. G. Janesko, R. Gomperts, B. Mennucci, H. P. Hratchian, 
 J. V. Ortiz, A. F. Izmaylov, J. L. Sonnenberg, D. Williams-Young, 
 F. Ding, F. Lipparini, F. Egidi, J. Goings, B. Peng, A. Petrone, 
 T. Henderson, D. Ranasinghe, V. G. Zakrzewski, J. Gao, N. Rega, 
 G. Zheng, W. Liang, M. Hada, M. Ehara, K. Toyota, R. Fukuda, 
 J. Hasegawa, M. Ishida, T. Nakajima, Y. Honda, O. Kitao, H. Nakai, 
 T. Vreven, K. Throssell, J. A. Montgomery, Jr., J. E. Peralta, 
 F. Ogliaro, M. J. Bearpark, J. J. Heyd, E. N. Brothers, K. N. Kudin, 
 V. N. Staroverov, T. A. Keith, R. Kobayashi, J. Normand, 
 K. Raghavachari, A. P. Rendell, J. C. Burant, S. S. Iyengar, 
 J. Tomasi, M. Cossi, J. M. Millam, M. Klene, C. Adamo, R. Cammi, 
 J. W. Ochterski, R. L. Martin, K. Morokuma, O. Farkas, 
 J. B. Foresman, and D. J. Fox, Gaussian, Inc., Wallingford CT, 2019.
 
 ******************************************
 Gaussian 16:  ES64L-G16RevC.01  3-Jul-2019
                 2-May-2024 
 ******************************************
 %chk=geometry.chk
 %mem=1GB
 %nprocshared=12
 Will use up to   12 processors via shared memory.
 ----------------------------------------
 #P wB97XD/6-311+G* NoSymm #P Field=Z+136
 ----------------------------------------
 1/38=1,172=1/1;
 2/12=2,15=1,17=6,18=5,40=1/2;
 3/5=4,6=6,7=11,11=2,14=3,15=136,25=1,30=1,74=-58/1,2,3;
 4//1;
 5/5=2,38=5/2;
 6/7=2,8=2,9=2,10=2,28=1/1;
 99/5=1,9=1/99;
 Leave Link    1 at Thu May  2 13:58:20 2024, MaxMem=   134217728 cpu:               2.7 elap:               2.7
 (Enter /software/gaussian/g16-c01/sse4/g16/l101.exe)
 -------
 TitleMe
 -------
 Symbolic Z-matrix:
 Charge =  1 Multiplicity = 1
 C                     0.5193    1.233    -0.0319 
 C                     1.9445    1.2692   -0.0367 
 C                     2.6204    0.0928   -0.025 
 C                    -0.196     0.0301    0.001 
 H                    -0.0207    2.1742   -0.0434 
 H                     2.4828    2.2089   -0.0361 
 H                    -1.2777    0.0399    0.0117 
 N                     4.0921    0.0959    0.0366 
 O                     4.6393   -1.0217    0.1446 
 O                     4.6649    1.1984   -0.0233 
 C                     0.4943   -1.1671    0.021 
 H                    -0.0325   -2.1149    0.0545 
 C                     1.9629   -1.2165   -0.0211 
 H                     2.4436   -1.9631    0.6151 
 Br                    2.173    -1.9491   -1.9062 
 
 ITRead=  0  0  0  0  0  0  0  0  0  0  0  0  0  0  0
 MicOpt= -1 -1 -1 -1 -1 -1 -1 -1 -1 -1 -1 -1 -1 -1 -1
 NAtoms=     15 NQM=       15 NQMF=       0 NMMI=      0 NMMIF=      0
                NMic=       0 NMicF=      0.
                    Isotopes and Nuclear Properties:
 (Nuclear quadrupole moments (NQMom) in fm**2, nuclear magnetic moments (NMagM)
  in nuclear magnetons)

  Atom         1           2           3           4           5           6           7           8           9          10
 IAtWgt=          12          12          12          12           1           1           1          14          16          16
 AtmWgt=  12.0000000  12.0000000  12.0000000  12.0000000   1.0078250   1.0078250   1.0078250  14.0030740  15.9949146  15.9949146
 NucSpn=           0           0           0           0           1           1           1           2           0           0
 AtZEff=  -0.0000000  -0.0000000  -0.0000000  -0.0000000  -0.0000000  -0.0000000  -0.0000000  -0.0000000  -0.0000000  -0.0000000
 NQMom=    0.0000000   0.0000000   0.0000000   0.0000000   0.0000000   0.0000000   0.0000000   2.0440000   0.0000000   0.0000000
 NMagM=    0.0000000   0.0000000   0.0000000   0.0000000   2.7928460   2.7928460   2.7928460   0.4037610   0.0000000   0.0000000
 AtZNuc=   6.0000000   6.0000000   6.0000000   6.0000000   1.0000000   1.0000000   1.0000000   7.0000000   8.0000000   8.0000000

  Atom        11          12          13          14          15
 IAtWgt=          12           1          12           1          79
 AtmWgt=  12.0000000   1.0078250  12.0000000   1.0078250  78.9183361
 NucSpn=           0           1           0           1           3
 AtZEff=  -0.0000000  -0.0000000  -0.0000000  -0.0000000  -0.0000000
 NQMom=    0.0000000   0.0000000   0.0000000   0.0000000  31.3000000
 NMagM=    0.0000000   2.7928460   0.0000000   2.7928460   2.1063990
 AtZNuc=   6.0000000   1.0000000   6.0000000   1.0000000  35.0000000
 Leave Link  101 at Thu May  2 13:58:22 2024, MaxMem=   134217728 cpu:               1.5 elap:               1.6
 (Enter /software/gaussian/g16-c01/sse4/g16/l202.exe)
                          Input orientation:                          
 ---------------------------------------------------------------------
 Center     Atomic      Atomic             Coordinates (Angstroms)
 Number     Number       Type             X           Y           Z
 ---------------------------------------------------------------------
      1          6           0        0.519300    1.233000   -0.031900
      2          6           0        1.944500    1.269200   -0.036700
      3          6           0        2.620400    0.092800   -0.025000
      4          6           0       -0.196000    0.030100    0.001000
      5          1           0       -0.020700    2.174200   -0.043400
      6          1           0        2.482800    2.208900   -0.036100
      7          1           0       -1.277700    0.039900    0.011700
      8          7           0        4.092100    0.095900    0.036600
      9          8           0        4.639300   -1.021700    0.144600
     10          8           0        4.664900    1.198400   -0.023300
     11          6           0        0.494300   -1.167100    0.021000
     12          1           0       -0.032500   -2.114900    0.054500
     13          6           0        1.962900   -1.216500   -0.021100
     14          1           0        2.443600   -1.963100    0.615100
     15         35           0        2.173000   -1.949100   -1.906200
 ---------------------------------------------------------------------
                    Distance matrix (angstroms):
                    1          2          3          4          5
     1  C    0.000000
     2  C    1.425668   0.000000
     3  C    2.390549   1.356796   0.000000
     4  C    1.399895   2.473566   2.817218   0.000000
     5  H    1.085168   2.163581   3.362733   2.151712   0.000000
     6  H    2.192654   1.082960   2.120598   3.453189   2.503751
     7  H    2.157452   3.449071   3.898632   1.081797   2.477564
     8  N    3.750012   2.448304   1.472992   4.288753   4.608780
     9  O    4.699917   3.541615   2.312322   4.950458   5.653735
    10  O    4.145753   2.721354   2.324292   4.999386   4.786171
    11  C    2.400813   2.835836   2.471794   1.382101   3.381369
    12  H    3.394169   3.920329   3.452266   2.151887   4.290233
    13  C    2.843264   2.485817   1.465124   2.493060   3.928360
    14  H    3.786370   3.334922   2.160489   3.364142   4.860416
    15  Br   4.046416   3.728900   2.812194   3.628609   5.028314
                    6          7          8          9         10
     6  H    0.000000
     7  H    4.341452   0.000000
     8  N    2.657047   5.370150   0.000000
     9  O    3.888434   6.012948   1.249048   0.000000
    10  O    2.404752   6.054572   1.243863   2.226587   0.000000
    11  C    3.918516   2.144043   3.813080   4.149391   4.794941
    12  H    5.003018   2.489080   4.679774   4.798846   5.748876
    13  C    3.464662   3.475788   2.501842   2.688591   3.623886
    14  H    4.222698   4.268978   2.700314   2.434893   3.916224
    15  Br   4.569706   4.420610   3.411663   3.338935   4.434144
                   11         12         13         14         15
    11  C    0.000000
    12  H    1.084880   0.000000
    13  C    1.470034   2.189625   0.000000
    14  H    2.187771   2.543302   1.092353   0.000000
    15  Br   2.672762   2.955683   2.033334   2.535818   0.000000
 Symmetry turned off by external request.
 Stoichiometry    C6H5BrNO2(1+)
 Framework group  C1[X(C6H5BrNO2)]
 Deg. of freedom    39
 Full point group                 C1      NOp   1
 Rotational constants (GHZ):           1.1632986           0.9594224           0.5957624
 Leave Link  202 at Thu May  2 13:58:24 2024, MaxMem=   134217728 cpu:               1.3 elap:               1.3
 (Enter /software/gaussian/g16-c01/sse4/g16/l301.exe)
 Standard basis: 6-311+G(d) (5D, 7F)
 Ernie: Thresh=  0.10000D-02 Tol=  0.10000D-05 Strict=F.
 The following finite field(s) will be applied:
 An electric field of              0.0000  0.0000  0.0136
   261 basis functions,   443 primitive gaussians,   273 cartesian basis functions
    49 alpha electrons       49 beta electrons
       nuclear repulsion energy       772.8945969580 Hartrees.
 IExCor= 4639 DFT=T Ex+Corr=wB97XD ExCW=0 ScaHFX=  1.000000
 ScaDFX=  1.000000  1.000000  1.000000  1.000000 ScalE2=  1.000000  1.000000
 IRadAn=      5 IRanWt=     -1 IRanGd=            0 ICorTp=0 IEmpDi=121
 HFx  wShort=  0.000000 wLong=  0.200000 cFull=  0.222036 cShort=  0.000000 cLong=  0.777964
 DFx  wShort=  0.000000 wLong=  0.200000 cFull=  0.000000 cShort=  0.000000 cLong=  1.000000
 NAtoms=   15 NActive=   15 NUniq=   15 SFac= 1.00D+00 NAtFMM=   60 NAOKFM=F Big=F
 Integral buffers will be    131072 words long.
 Raffenetti 2 integral format.
 Two-electron integral symmetry is turned off.
 R6Disp:  Grimme-D2 Dispersion energy=       -0.0080346408 Hartrees.
 Nuclear repulsion after empirical dispersion term =      772.8865623173 Hartrees.
 Leave Link  301 at Thu May  2 13:58:25 2024, MaxMem=   134217728 cpu:               1.1 elap:               1.1
 (Enter /software/gaussian/g16-c01/sse4/g16/l302.exe)
 NPDir=0 NMtPBC=     1 NCelOv=     1 NCel=       1 NClECP=     1 NCelD=      1
         NCelK=      1 NCelE2=     1 NClLst=     1 CellRange=     0.0.
 One-electron integrals computed using PRISM.
 NBasis=   261 RedAO= T EigKep=  2.52D-06  NBF=   261
 NBsUse=   261 1.00D-06 EigRej= -1.00D+00 NBFU=   261
 Precomputing XC quadrature grid using
 IXCGrd= 4 IRadAn=           5 IRanWt=          -1 IRanGd=           0 AccXCQ= 0.00D+00.
 Generated NRdTot=       0 NPtTot=           0 NUsed=           0 NTot=          32
 NSgBfM=   273   273   273   273   273 MxSgAt=    15 MxSgA2=    15.
 Leave Link  302 at Thu May  2 13:58:46 2024, MaxMem=   134217728 cpu:              21.6 elap:              21.6
 (Enter /software/gaussian/g16-c01/sse4/g16/l303.exe)
 DipDrv:  MaxL=1.
 The nuclear repulsion energy is now       771.2046129407 hartrees.
 Leave Link  303 at Thu May  2 13:58:50 2024, MaxMem=   134217728 cpu:               3.3 elap:               3.3
 (Enter /software/gaussian/g16-c01/sse4/g16/l401.exe)
 ExpMin= 3.50D-02 ExpMax= 4.40D+05 ExpMxC= 1.51D+04 IAcc=3 IRadAn=         5 AccDes= 0.00D+00
 Harris functional with IExCor= 4639 and IRadAn=       5 diagonalized for initial guess.
 HarFok:  IExCor= 4639 AccDes= 0.00D+00 IRadAn=         5 IDoV= 1 UseB2=F ITyADJ=14
 ICtDFT=  3500011 ScaDFX=  1.000000  1.000000  1.000000  1.000000
 FoFCou: FMM=F IPFlag=           0 FMFlag=      100000 FMFlg1=           0
         NFxFlg=           0 DoJE=T BraDBF=F KetDBF=T FulRan=T
         wScrn=  0.000000 ICntrl=       500 IOpCl=  0 I1Cent=   200000004 NGrid=           0
         NMat0=    1 NMatS0=      1 NMatT0=    0 NMatD0=    1 NMtDS0=    0 NMtDT0=    0
 Symmetry not used in FoFCou.
 Harris En= -2970.61506239535    
 JPrj=0 DoOrth=F DoCkMO=F.
 Leave Link  401 at Thu May  2 13:59:21 2024, MaxMem=   134217728 cpu:              31.2 elap:              31.2
 (Enter /software/gaussian/g16-c01/sse4/g16/l502.exe)
 Two-electron integral symmetry not used.
 Closed shell SCF:
 Using DIIS extrapolation, IDIIS=  1040.
 NGot=   134217728 LenX=   134063053 LenY=   133988083
 Requested convergence on RMS density matrix=1.00D-08 within 128 cycles.
 Requested convergence on MAX density matrix=1.00D-06.
 Requested convergence on             energy=1.00D-06.
 No special actions if energy rises.
 Fock matrices will be formed incrementally for  20 cycles.

 Cycle   1  Pass 1  IDiag  1:
 FoFJK:  IHMeth= 1 ICntrl=       0 DoSepK=T KAlg= 0 I1Cent=           0 FoldK=F
 IRaf=         1 NMat=       1 IRICut=       1 DoRegI=T DoRafI=F ISym2E= 0 IDoP0=0 IntGTp=1.
 FoFCou: FMM=F IPFlag=           0 FMFlag=      100000 FMFlg1=           0
         NFxFlg=           0 DoJE=T BraDBF=F KetDBF=F FulRan=T
         wScrn=  0.000000 ICntrl=       500 IOpCl=  0 I1Cent=           0 NGrid=           0
         NMat0=    1 NMatS0=      1 NMatT0=    0 NMatD0=    1 NMtDS0=    0 NMtDT0=    0
 Symmetry not used in FoFCou.
 E= -3009.68102621185    
 DIIS: error= 2.91D-01 at cycle   1 NSaved=   1.
 NSaved= 1 IEnMin= 1 EnMin= -3009.68102621185     IErMin= 1 ErrMin= 2.91D-01
 ErrMax= 2.91D-01  0.00D+00 EMaxC= 1.00D-01 BMatC= 1.20D+01 BMatP= 1.20D+01
 IDIUse=3 WtCom= 0.00D+00 WtEn= 1.00D+00
 Coeff-Com:  0.100D+01
 Coeff-En:   0.100D+01
 Coeff:      0.100D+01
 Gap=     0.316 Goal=   None    Shift=    0.000
 GapD=    0.316 DampG=1.000 DampE=0.250 DampFc=0.2500 IDamp=-1.
 Damping current iteration by 2.50D-01
 RMSDP=1.15D-01 MaxDP=1.39D+01              OVMax= 2.61D-01

 Cycle   2  Pass 1  IDiag  1:
 RMSU=  7.94D-03    CP:  8.55D-01
 E= -3009.98437163014     Delta-E=       -0.303345418296 Rises=F Damp=T
 DIIS: error= 2.19D-01 at cycle   2 NSaved=   2.
 NSaved= 2 IEnMin= 2 EnMin= -3009.98437163014     IErMin= 2 ErrMin= 2.19D-01
 ErrMax= 2.19D-01  0.00D+00 EMaxC= 1.00D-01 BMatC= 5.46D+00 BMatP= 1.20D+01
 IDIUse=3 WtCom= 0.00D+00 WtEn= 1.00D+00
 Coeff-Com: -0.180D+01 0.280D+01
 Coeff-En:   0.000D+00 0.100D+01
 Coeff:      0.000D+00 0.100D+01
 Gap=     0.268 Goal=   None    Shift=    0.000
 RMSDP=8.25D-02 MaxDP=1.05D+01 DE=-3.03D-01 OVMax= 7.66D-02

 Cycle   3  Pass 1  IDiag  1:
 RMSU=  5.02D-03    CP:  4.32D-01  3.00D+00
 E= -3010.37443545223     Delta-E=       -0.390063822090 Rises=F Damp=F
 DIIS: error= 6.67D-02 at cycle   3 NSaved=   3.
 NSaved= 3 IEnMin= 3 EnMin= -3010.37443545223     IErMin= 3 ErrMin= 6.67D-02
 ErrMax= 6.67D-02  0.00D+00 EMaxC= 1.00D-01 BMatC= 7.66D-01 BMatP= 5.46D+00
 IDIUse=3 WtCom= 3.33D-01 WtEn= 6.67D-01
 Coeff-Com:  0.258D+01-0.338D+01 0.180D+01
 Coeff-En:   0.560D-01 0.000D+00 0.944D+00
 Coeff:      0.894D+00-0.112D+01 0.123D+01
 Gap=     0.270 Goal=   None    Shift=    0.000
 RMSDP=1.89D-02 MaxDP=2.00D+00 DE=-3.90D-01 OVMax= 1.01D-01

 Cycle   4  Pass 1  IDiag  1:
 RMSU=  5.18D-03    CP:  5.16D-01  2.19D+00  1.86D+00
 E= -3010.49558144511     Delta-E=       -0.121145992873 Rises=F Damp=F
 DIIS: error= 3.67D-02 at cycle   4 NSaved=   4.
 NSaved= 4 IEnMin= 4 EnMin= -3010.49558144511     IErMin= 4 ErrMin= 3.67D-02
 ErrMax= 3.67D-02  0.00D+00 EMaxC= 1.00D-01 BMatC= 2.14D-01 BMatP= 7.66D-01
 IDIUse=3 WtCom= 6.33D-01 WtEn= 3.67D-01
 Coeff-Com: -0.138D+00 0.198D+00 0.280D+00 0.661D+00
 Coeff-En:   0.000D+00 0.000D+00 0.180D+00 0.820D+00
 Coeff:     -0.876D-01 0.125D+00 0.243D+00 0.719D+00
 Gap=     0.247 Goal=   None    Shift=    0.000
 RMSDP=1.19D-02 MaxDP=1.65D+00 DE=-1.21D-01 OVMax= 3.88D-02

 Cycle   5  Pass 1  IDiag  1:
 RMSU=  2.23D-03    CP:  4.57D-01  2.46D+00  1.79D+00  6.10D-01
 E= -3010.53987262978     Delta-E=       -0.044291184674 Rises=F Damp=F
 DIIS: error= 6.74D-03 at cycle   5 NSaved=   5.
 NSaved= 5 IEnMin= 5 EnMin= -3010.53987262978     IErMin= 5 ErrMin= 6.74D-03
 ErrMax= 6.74D-03  0.00D+00 EMaxC= 1.00D-01 BMatC= 8.48D-03 BMatP= 2.14D-01
 IDIUse=3 WtCom= 9.33D-01 WtEn= 6.74D-02
 Coeff-Com: -0.149D+00 0.203D+00 0.642D-01 0.379D+00 0.502D+00
 Coeff-En:   0.000D+00 0.000D+00 0.000D+00 0.000D+00 0.100D+01
 Coeff:     -0.139D+00 0.190D+00 0.598D-01 0.354D+00 0.536D+00
 Gap=     0.234 Goal=   None    Shift=    0.000
 RMSDP=2.55D-03 MaxDP=3.42D-01 DE=-4.43D-02 OVMax= 1.99D-02

 Cycle   6  Pass 1  IDiag  1:
 RMSU=  5.65D-04    CP:  4.69D-01  2.41D+00  1.83D+00  7.13D-01  7.21D-01
 E= -3010.54207224091     Delta-E=       -0.002199611124 Rises=F Damp=F
 DIIS: error= 2.59D-03 at cycle   6 NSaved=   6.
 NSaved= 6 IEnMin= 6 EnMin= -3010.54207224091     IErMin= 6 ErrMin= 2.59D-03
 ErrMax= 2.59D-03  0.00D+00 EMaxC= 1.00D-01 BMatC= 5.17D-04 BMatP= 8.48D-03
 IDIUse=3 WtCom= 9.74D-01 WtEn= 2.59D-02
 Coeff-Com: -0.107D+00 0.144D+00-0.378D-02 0.179D+00 0.358D+00 0.429D+00
 Coeff-En:   0.000D+00 0.000D+00 0.000D+00 0.000D+00 0.586D-01 0.941D+00
 Coeff:     -0.104D+00 0.140D+00-0.368D-02 0.175D+00 0.351D+00 0.443D+00
 Gap=     0.234 Goal=   None    Shift=    0.000
 RMSDP=8.54D-04 MaxDP=1.11D-01 DE=-2.20D-03 OVMax= 8.71D-03

 Cycle   7  Pass 1  IDiag  1:
 RMSU=  2.59D-04    CP:  4.65D-01  2.43D+00  1.84D+00  7.02D-01  8.68D-01
                    CP:  7.64D-01
 E= -3010.54244453699     Delta-E=       -0.000372296082 Rises=F Damp=F
 DIIS: error= 4.37D-04 at cycle   7 NSaved=   7.
 NSaved= 7 IEnMin= 7 EnMin= -3010.54244453699     IErMin= 7 ErrMin= 4.37D-04
 ErrMax= 4.37D-04  0.00D+00 EMaxC= 1.00D-01 BMatC= 2.18D-05 BMatP= 5.17D-04
 IDIUse=3 WtCom= 9.96D-01 WtEn= 4.37D-03
 Coeff-Com: -0.396D-01 0.528D-01-0.133D-01 0.398D-01 0.894D-01 0.195D+00
 Coeff-Com:  0.676D+00
 Coeff-En:   0.000D+00 0.000D+00 0.000D+00 0.000D+00 0.000D+00 0.000D+00
 Coeff-En:   0.100D+01
 Coeff:     -0.394D-01 0.526D-01-0.132D-01 0.396D-01 0.890D-01 0.194D+00
 Coeff:      0.677D+00
 Gap=     0.235 Goal=   None    Shift=    0.000
 RMSDP=2.34D-04 MaxDP=3.19D-02 DE=-3.72D-04 OVMax= 2.30D-03

 Cycle   8  Pass 1  IDiag  1:
 RMSU=  8.28D-05    CP:  4.64D-01  2.42D+00  1.85D+00  7.05D-01  8.99D-01
                    CP:  7.65D-01  9.97D-01
 E= -3010.54247010153     Delta-E=       -0.000025564539 Rises=F Damp=F
 DIIS: error= 1.41D-04 at cycle   8 NSaved=   8.
 NSaved= 8 IEnMin= 8 EnMin= -3010.54247010153     IErMin= 8 ErrMin= 1.41D-04
 ErrMax= 1.41D-04  0.00D+00 EMaxC= 1.00D-01 BMatC= 3.41D-06 BMatP= 2.18D-05
 IDIUse=3 WtCom= 9.99D-01 WtEn= 1.41D-03
 Coeff-Com:  0.382D-02-0.536D-02-0.425D-02-0.152D-01-0.352D-01-0.274D-01
 Coeff-Com:  0.208D+00 0.875D+00
 Coeff-En:   0.000D+00 0.000D+00 0.000D+00 0.000D+00 0.000D+00 0.000D+00
 Coeff-En:   0.000D+00 0.100D+01
 Coeff:      0.381D-02-0.535D-02-0.425D-02-0.152D-01-0.351D-01-0.274D-01
 Coeff:      0.208D+00 0.875D+00
 Gap=     0.235 Goal=   None    Shift=    0.000
 RMSDP=1.03D-04 MaxDP=9.92D-03 DE=-2.56D-05 OVMax= 1.63D-03

 Cycle   9  Pass 1  IDiag  1:
 RMSU=  3.10D-05    CP:  4.64D-01  2.43D+00  1.85D+00  7.10D-01  9.22D-01
                    CP:  7.89D-01  1.25D+00  1.30D+00
 E= -3010.54247840572     Delta-E=       -0.000008304195 Rises=F Damp=F
 DIIS: error= 2.65D-05 at cycle   9 NSaved=   9.
 NSaved= 9 IEnMin= 9 EnMin= -3010.54247840572     IErMin= 9 ErrMin= 2.65D-05
 ErrMax= 2.65D-05  0.00D+00 EMaxC= 1.00D-01 BMatC= 3.52D-07 BMatP= 3.41D-06
 IDIUse=1 WtCom= 1.00D+00 WtEn= 0.00D+00
 Coeff-Com:  0.706D-02-0.948D-02 0.882D-03-0.104D-01-0.222D-01-0.365D-01
 Coeff-Com: -0.636D-01 0.194D+00 0.940D+00
 Coeff:      0.706D-02-0.948D-02 0.882D-03-0.104D-01-0.222D-01-0.365D-01
 Coeff:     -0.636D-01 0.194D+00 0.940D+00
 Gap=     0.235 Goal=   None    Shift=    0.000
 RMSDP=9.05D-05 MaxDP=1.16D-02 DE=-8.30D-06 OVMax= 1.29D-03

 Cycle  10  Pass 1  IDiag  1:
 RMSU=  2.00D-05    CP:  4.64D-01  2.43D+00  1.86D+00  7.09D-01  9.37D-01
                    CP:  7.87D-01  1.34D+00  1.57D+00  1.23D+00
 E= -3010.54248066604     Delta-E=       -0.000002260317 Rises=F Damp=F
 DIIS: error= 1.68D-05 at cycle  10 NSaved=  10.
 NSaved=10 IEnMin=10 EnMin= -3010.54248066604     IErMin=10 ErrMin= 1.68D-05
 ErrMax= 1.68D-05  0.00D+00 EMaxC= 1.00D-01 BMatC= 1.13D-07 BMatP= 3.52D-07
 IDIUse=1 WtCom= 1.00D+00 WtEn= 0.00D+00
 Coeff-Com: -0.214D-03 0.327D-03 0.487D-03 0.881D-03 0.374D-02 0.352D-02
 Coeff-Com: -0.439D-01-0.127D+00 0.212D+00 0.950D+00
 Coeff:     -0.214D-03 0.327D-03 0.487D-03 0.881D-03 0.374D-02 0.352D-02
 Coeff:     -0.439D-01-0.127D+00 0.212D+00 0.950D+00
 Gap=     0.235 Goal=   None    Shift=    0.000
 RMSDP=1.87D-05 MaxDP=9.66D-04 DE=-2.26D-06 OVMax= 7.65D-04

 Cycle  11  Pass 1  IDiag  1:
 RMSU=  9.86D-06    CP:  4.64D-01  2.43D+00  1.86D+00  7.09D-01  9.38D-01
                    CP:  7.90D-01  1.35D+00  1.65D+00  1.43D+00  1.52D+00
 E= -3010.54248131832     Delta-E=       -0.000000652283 Rises=F Damp=F
 DIIS: error= 8.73D-06 at cycle  11 NSaved=  11.
 NSaved=11 IEnMin=11 EnMin= -3010.54248131832     IErMin=11 ErrMin= 8.73D-06
 ErrMax= 8.73D-06  0.00D+00 EMaxC= 1.00D-01 BMatC= 2.17D-08 BMatP= 1.13D-07
 IDIUse=1 WtCom= 1.00D+00 WtEn= 0.00D+00
 Coeff-Com: -0.105D-02 0.141D-02-0.261D-04 0.193D-02 0.423D-02 0.753D-02
 Coeff-Com:  0.179D-01-0.441D-01-0.239D+00 0.467D-01 0.120D+01
 Coeff:     -0.105D-02 0.141D-02-0.261D-04 0.193D-02 0.423D-02 0.753D-02
 Coeff:      0.179D-01-0.441D-01-0.239D+00 0.467D-01 0.120D+01
 Gap=     0.235 Goal=   None    Shift=    0.000
 RMSDP=1.67D-05 MaxDP=1.07D-03 DE=-6.52D-07 OVMax= 5.69D-04

 Cycle  12  Pass 1  IDiag  1:
 RMSU=  3.13D-06    CP:  4.64D-01  2.43D+00  1.86D+00  7.08D-01  9.41D-01
                    CP:  7.90D-01  1.36D+00  1.70D+00  1.52D+00  2.04D+00
                    CP:  1.52D+00
 E= -3010.54248154467     Delta-E=       -0.000000226352 Rises=F Damp=F
 DIIS: error= 5.09D-06 at cycle  12 NSaved=  12.
 NSaved=12 IEnMin=12 EnMin= -3010.54248154467     IErMin=12 ErrMin= 5.09D-06
 ErrMax= 5.09D-06  0.00D+00 EMaxC= 1.00D-01 BMatC= 8.61D-09 BMatP= 2.17D-08
 IDIUse=1 WtCom= 1.00D+00 WtEn= 0.00D+00
 Coeff-Com: -0.468D-03 0.619D-03-0.106D-03 0.787D-03 0.946D-03 0.236D-02
 Coeff-Com:  0.204D-01 0.544D-02-0.177D+00-0.193D+00 0.602D+00 0.738D+00
 Coeff:     -0.468D-03 0.619D-03-0.106D-03 0.787D-03 0.946D-03 0.236D-02
 Coeff:      0.204D-01 0.544D-02-0.177D+00-0.193D+00 0.602D+00 0.738D+00
 Gap=     0.235 Goal=   None    Shift=    0.000
 RMSDP=8.14D-06 MaxDP=5.54D-04 DE=-2.26D-07 OVMax= 2.35D-04

 Cycle  13  Pass 1  IDiag  1:
 RMSU=  1.66D-06    CP:  4.64D-01  2.42D+00  1.86D+00  7.07D-01  9.42D-01
                    CP:  7.93D-01  1.37D+00  1.70D+00  1.57D+00  2.22D+00
                    CP:  1.75D+00  1.52D+00
 E= -3010.54248158195     Delta-E=       -0.000000037274 Rises=F Damp=F
 DIIS: error= 1.75D-06 at cycle  13 NSaved=  13.
 NSaved=13 IEnMin=13 EnMin= -3010.54248158195     IErMin=13 ErrMin= 1.75D-06
 ErrMax= 1.75D-06  0.00D+00 EMaxC= 1.00D-01 BMatC= 1.06D-09 BMatP= 8.61D-09
 IDIUse=1 WtCom= 1.00D+00 WtEn= 0.00D+00
 Coeff-Com: -0.947D-05 0.125D-04-0.360D-04-0.173D-03-0.806D-03-0.165D-02
 Coeff-Com: -0.248D-02 0.481D-02 0.410D-01-0.786D-02-0.216D+00 0.794D-01
 Coeff-Com:  0.110D+01
 Coeff:     -0.947D-05 0.125D-04-0.360D-04-0.173D-03-0.806D-03-0.165D-02
 Coeff:     -0.248D-02 0.481D-02 0.410D-01-0.786D-02-0.216D+00 0.794D-01
 Coeff:      0.110D+01
 Gap=     0.235 Goal=   None    Shift=    0.000
 RMSDP=5.31D-06 MaxDP=4.73D-04 DE=-3.73D-08 OVMax= 7.50D-05

 Cycle  14  Pass 1  IDiag  1:
 RMSU=  5.91D-07    CP:  4.64D-01  2.42D+00  1.86D+00  7.07D-01  9.43D-01
                    CP:  7.95D-01  1.38D+00  1.70D+00  1.57D+00  2.28D+00
                    CP:  1.78D+00  2.02D+00  1.59D+00
 E= -3010.54248158650     Delta-E=       -0.000000004551 Rises=F Damp=F
 DIIS: error= 5.13D-07 at cycle  14 NSaved=  14.
 NSaved=14 IEnMin=14 EnMin= -3010.54248158650     IErMin=14 ErrMin= 5.13D-07
 ErrMax= 5.13D-07  0.00D+00 EMaxC= 1.00D-01 BMatC= 1.15D-10 BMatP= 1.06D-09
 IDIUse=1 WtCom= 1.00D+00 WtEn= 0.00D+00
 Coeff-Com:  0.215D-04-0.281D-04-0.720D-05-0.116D-03-0.294D-03-0.692D-03
 Coeff-Com: -0.274D-02 0.231D-03 0.327D-01 0.210D-01-0.141D+00-0.560D-01
 Coeff-Com:  0.339D+00 0.808D+00
 Coeff:      0.215D-04-0.281D-04-0.720D-05-0.116D-03-0.294D-03-0.692D-03
 Coeff:     -0.274D-02 0.231D-03 0.327D-01 0.210D-01-0.141D+00-0.560D-01
 Coeff:      0.339D+00 0.808D+00
 Gap=     0.235 Goal=   None    Shift=    0.000
 RMSDP=1.73D-06 MaxDP=1.65D-04 DE=-4.55D-09 OVMax= 1.99D-05

 Cycle  15  Pass 1  IDiag  1:
 RMSU=  2.26D-07    CP:  4.64D-01  2.42D+00  1.86D+00  7.07D-01  9.43D-01
                    CP:  7.95D-01  1.38D+00  1.70D+00  1.57D+00  2.29D+00
                    CP:  1.77D+00  2.17D+00  1.79D+00  1.30D+00
 E= -3010.54248158691     Delta-E=       -0.000000000409 Rises=F Damp=F
 DIIS: error= 2.89D-07 at cycle  15 NSaved=  15.
 NSaved=15 IEnMin=15 EnMin= -3010.54248158691     IErMin=15 ErrMin= 2.89D-07
 ErrMax= 2.89D-07  0.00D+00 EMaxC= 1.00D-01 BMatC= 2.16D-11 BMatP= 1.15D-10
 IDIUse=1 WtCom= 1.00D+00 WtEn= 0.00D+00
 Coeff-Com:  0.367D-05-0.480D-05 0.337D-05 0.907D-05 0.987D-04 0.158D-03
 Coeff-Com:  0.731D-04-0.869D-03-0.563D-03 0.658D-02 0.506D-02-0.260D-01
 Coeff-Com: -0.119D+00 0.227D+00 0.908D+00
 Coeff:      0.367D-05-0.480D-05 0.337D-05 0.907D-05 0.987D-04 0.158D-03
 Coeff:      0.731D-04-0.869D-03-0.563D-03 0.658D-02 0.506D-02-0.260D-01
 Coeff:     -0.119D+00 0.227D+00 0.908D+00
 Gap=     0.235 Goal=   None    Shift=    0.000
 RMSDP=7.06D-07 MaxDP=7.01D-05 DE=-4.09D-10 OVMax= 9.13D-06

 Cycle  16  Pass 1  IDiag  1:
 RMSU=  6.88D-08    CP:  4.64D-01  2.42D+00  1.86D+00  7.07D-01  9.43D-01
                    CP:  7.95D-01  1.38D+00  1.70D+00  1.57D+00  2.30D+00
                    CP:  1.77D+00  2.23D+00  1.88D+00  1.50D+00  1.30D+00
 E= -3010.54248158701     Delta-E=       -0.000000000102 Rises=F Damp=F
 DIIS: error= 9.72D-08 at cycle  16 NSaved=  16.
 NSaved=16 IEnMin=16 EnMin= -3010.54248158701     IErMin=16 ErrMin= 9.72D-08
 ErrMax= 9.72D-08  0.00D+00 EMaxC= 1.00D-01 BMatC= 2.84D-12 BMatP= 2.16D-11
 IDIUse=1 WtCom= 1.00D+00 WtEn= 0.00D+00
 Coeff-Com: -0.854D-05 0.114D-04-0.448D-07 0.219D-04 0.499D-04 0.975D-04
 Coeff-Com:  0.407D-03-0.187D-03-0.468D-02-0.117D-02 0.185D-01 0.468D-02
 Coeff-Com: -0.496D-01-0.107D+00 0.313D-01 0.111D+01
 Coeff:     -0.854D-05 0.114D-04-0.448D-07 0.219D-04 0.499D-04 0.975D-04
 Coeff:      0.407D-03-0.187D-03-0.468D-02-0.117D-02 0.185D-01 0.468D-02
 Coeff:     -0.496D-01-0.107D+00 0.313D-01 0.111D+01
 Gap=     0.235 Goal=   None    Shift=    0.000
 RMSDP=2.71D-07 MaxDP=2.69D-05 DE=-1.02D-10 OVMax= 4.79D-06

 Cycle  17  Pass 1  IDiag  1:
 RMSU=  3.60D-08    CP:  4.64D-01  2.42D+00  1.86D+00  7.07D-01  9.43D-01
                    CP:  7.95D-01  1.38D+00  1.70D+00  1.57D+00  2.30D+00
                    CP:  1.77D+00  2.25D+00  1.91D+00  1.56D+00  1.50D+00
                    CP:  1.54D+00
 E= -3010.54248158700     Delta-E=        0.000000000005 Rises=F Damp=F
 DIIS: error= 5.36D-08 at cycle  17 NSaved=  17.
 NSaved=17 IEnMin=16 EnMin= -3010.54248158701     IErMin=17 ErrMin= 5.36D-08
 ErrMax= 5.36D-08  0.00D+00 EMaxC= 1.00D-01 BMatC= 5.44D-13 BMatP= 2.84D-12
 IDIUse=1 WtCom= 1.00D+00 WtEn= 0.00D+00
 Coeff-Com: -0.436D-05 0.583D-05-0.122D-05 0.199D-05-0.148D-04-0.292D-04
 Coeff-Com: -0.958D-06 0.172D-03-0.874D-04-0.102D-02-0.640D-03 0.432D-02
 Coeff-Com:  0.214D-01-0.410D-01-0.153D+00-0.493D-01 0.122D+01
 Coeff:     -0.436D-05 0.583D-05-0.122D-05 0.199D-05-0.148D-04-0.292D-04
 Coeff:     -0.958D-06 0.172D-03-0.874D-04-0.102D-02-0.640D-03 0.432D-02
 Coeff:      0.214D-01-0.410D-01-0.153D+00-0.493D-01 0.122D+01
 Gap=     0.235 Goal=   None    Shift=    0.000
 RMSDP=7.93D-08 MaxDP=5.83D-06 DE= 5.46D-12 OVMax= 2.80D-06

 Cycle  18  Pass 1  IDiag  1:
 RMSU=  1.96D-08    CP:  4.64D-01  2.42D+00  1.86D+00  7.07D-01  9.43D-01
                    CP:  7.95D-01  1.38D+00  1.70D+00  1.57D+00  2.30D+00
                    CP:  1.77D+00  2.25D+00  1.92D+00  1.56D+00  1.53D+00
                    CP:  2.01D+00  1.76D+00
 E= -3010.54248158704     Delta-E=       -0.000000000035 Rises=F Damp=F
 DIIS: error= 2.07D-08 at cycle  18 NSaved=  18.
 NSaved=18 IEnMin=18 EnMin= -3010.54248158704     IErMin=18 ErrMin= 2.07D-08
 ErrMax= 2.07D-08  0.00D+00 EMaxC= 1.00D-01 BMatC= 1.36D-13 BMatP= 5.44D-13
 IDIUse=1 WtCom= 1.00D+00 WtEn= 0.00D+00
 Coeff-Com:  0.211D-06-0.280D-06-0.370D-06-0.348D-05-0.159D-04-0.308D-04
 Coeff-Com: -0.681D-04 0.112D-03 0.725D-03-0.187D-03-0.328D-02 0.642D-03
 Coeff-Com:  0.161D-01 0.646D-02-0.498D-01-0.213D+00 0.377D+00 0.866D+00
 Coeff:      0.211D-06-0.280D-06-0.370D-06-0.348D-05-0.159D-04-0.308D-04
 Coeff:     -0.681D-04 0.112D-03 0.725D-03-0.187D-03-0.328D-02 0.642D-03
 Coeff:      0.161D-01 0.646D-02-0.498D-01-0.213D+00 0.377D+00 0.866D+00
 Gap=     0.235 Goal=   None    Shift=    0.000
 RMSDP=4.15D-08 MaxDP=4.61D-06 DE=-3.50D-11 OVMax= 1.11D-06

 Cycle  19  Pass 1  IDiag  1:
 RMSU=  5.59D-09    CP:  4.64D-01  2.42D+00  1.86D+00  7.07D-01  9.43D-01
                    CP:  7.96D-01  1.38D+00  1.70D+00  1.58D+00  2.30D+00
                    CP:  1.77D+00  2.25D+00  1.92D+00  1.56D+00  1.53D+00
                    CP:  2.16D+00  2.16D+00  1.46D+00
 E= -3010.54248158704     Delta-E=        0.000000000002 Rises=F Damp=F
 DIIS: error= 8.98D-09 at cycle  19 NSaved=  19.
 NSaved=19 IEnMin=18 EnMin= -3010.54248158704     IErMin=19 ErrMin= 8.98D-09
 ErrMax= 8.98D-09  0.00D+00 EMaxC= 1.00D-01 BMatC= 3.32D-14 BMatP= 1.36D-13
 IDIUse=1 WtCom= 1.00D+00 WtEn= 0.00D+00
 Coeff-Com:  0.141D-06-0.185D-06 0.968D-07 0.417D-06 0.461D-05 0.838D-05
 Coeff-Com: -0.885D-06-0.493D-04 0.338D-04 0.261D-03 0.486D-04-0.117D-02
 Coeff-Com: -0.513D-02 0.113D-01 0.374D-01-0.183D-01-0.313D+00 0.135D+00
 Coeff-Com:  0.115D+01
 Coeff:      0.141D-06-0.185D-06 0.968D-07 0.417D-06 0.461D-05 0.838D-05
 Coeff:     -0.885D-06-0.493D-04 0.338D-04 0.261D-03 0.486D-04-0.117D-02
 Coeff:     -0.513D-02 0.113D-01 0.374D-01-0.183D-01-0.313D+00 0.135D+00
 Coeff:      0.115D+01
 Gap=     0.235 Goal=   None    Shift=    0.000
 RMSDP=3.53D-08 MaxDP=2.64D-06 DE= 1.82D-12 OVMax= 8.36D-07

 Cycle  20  Pass 1  IDiag  1:
 RMSU=  3.45D-09    CP:  4.64D-01  2.42D+00  1.86D+00  7.07D-01  9.43D-01
                    CP:  7.96D-01  1.38D+00  1.70D+00  1.58D+00  2.30D+00
                    CP:  1.77D+00  2.25D+00  1.93D+00  1.56D+00  1.50D+00
                    CP:  2.26D+00  2.46D+00  2.00D+00  1.57D+00
 E= -3010.54248158703     Delta-E=        0.000000000010 Rises=F Damp=F
 DIIS: error= 2.52D-09 at cycle  20 NSaved=  20.
 NSaved=20 IEnMin=18 EnMin= -3010.54248158704     IErMin=20 ErrMin= 2.52D-09
 ErrMax= 2.52D-09  0.00D+00 EMaxC= 1.00D-01 BMatC= 3.89D-15 BMatP= 3.32D-14
 IDIUse=1 WtCom= 1.00D+00 WtEn= 0.00D+00
 Large coefficients: NSaved= 20 BigCof=    0.00 CofMax=   10.00 Det=-9.29D-15
 Inversion failed.  Reducing to 19 matrices.
 Large coefficients: NSaved= 19 BigCof=    0.00 CofMax=   10.00 Det=-9.40D-15
 Inversion failed.  Reducing to 18 matrices.
 Large coefficients: NSaved= 18 BigCof=    0.00 CofMax=   10.00 Det=-9.38D-15
 Inversion failed.  Reducing to 17 matrices.
 Large coefficients: NSaved= 17 BigCof=    0.00 CofMax=   10.00 Det=-9.41D-15
 Inversion failed.  Reducing to 16 matrices.
 Coeff-Com:  0.840D-06 0.176D-05-0.219D-05-0.145D-04 0.306D-04 0.968D-04
 Coeff-Com: -0.912D-04-0.284D-03-0.114D-02 0.238D-02 0.973D-02 0.140D-01
 Coeff-Com: -0.779D-01-0.580D-01 0.184D+00 0.927D+00
 Coeff:      0.840D-06 0.176D-05-0.219D-05-0.145D-04 0.306D-04 0.968D-04
 Coeff:     -0.912D-04-0.284D-03-0.114D-02 0.238D-02 0.973D-02 0.140D-01
 Coeff:     -0.779D-01-0.580D-01 0.184D+00 0.927D+00
 Gap=     0.235 Goal=   None    Shift=    0.000
 RMSDP=6.41D-09 MaxDP=5.20D-07 DE= 1.00D-11 OVMax= 1.43D-07

 SCF Done:  E(RwB97XD) =  -3010.54248159     A.U. after   20 cycles
            NFock= 20  Conv=0.64D-08     -V/T= 2.0016
 KE= 3.005827645731D+03 PE=-8.697311472214D+03 EE= 1.909736731955D+03
 Leave Link  502 at Thu May  2 14:19:42 2024, MaxMem=   134217728 cpu:            1221.5 elap:            1221.7
 (Enter /software/gaussian/g16-c01/sse4/g16/l601.exe)
 Copying SCF densities to generalized density rwf, IOpCl= 0 IROHF=0.

 **********************************************************************

            Population analysis using the SCF Density.

 **********************************************************************

 Alpha  occ. eigenvalues -- -483.28945 -62.83927 -56.63663 -56.63039 -56.63021
 Alpha  occ. eigenvalues --  -19.45875 -19.45871 -14.85262 -10.58364 -10.56722
 Alpha  occ. eigenvalues --  -10.56391 -10.55907 -10.52558 -10.51961  -8.99703
 Alpha  occ. eigenvalues --   -6.82494  -6.80461  -6.80405  -2.92370  -2.91844
 Alpha  occ. eigenvalues --   -2.91799  -2.90174  -2.90173  -1.49549  -1.32520
 Alpha  occ. eigenvalues --   -1.21450  -1.11974  -1.11257  -1.03183  -0.99225
 Alpha  occ. eigenvalues --   -0.94382  -0.89747  -0.84386  -0.80300  -0.79567
 Alpha  occ. eigenvalues --   -0.79390  -0.77144  -0.75700  -0.74736  -0.70757
 Alpha  occ. eigenvalues --   -0.67653  -0.66713  -0.61940  -0.58571  -0.57020
 Alpha  occ. eigenvalues --   -0.56251  -0.55561  -0.53503  -0.52459
 Alpha virt. eigenvalues --   -0.28931  -0.19822  -0.14141  -0.12427  -0.10316
 Alpha virt. eigenvalues --   -0.07453  -0.07163  -0.05555  -0.03756  -0.03356
 Alpha virt. eigenvalues --   -0.02078  -0.00913   0.00335   0.00552   0.01369
 Alpha virt. eigenvalues --    0.01972   0.02908   0.04289   0.04751   0.05019
 Alpha virt. eigenvalues --    0.05811   0.06254   0.06576   0.07393   0.07914
 Alpha virt. eigenvalues --    0.08560   0.08654   0.09396   0.09949   0.10079
 Alpha virt. eigenvalues --    0.10973   0.11794   0.12539   0.13151   0.13215
 Alpha virt. eigenvalues --    0.13497   0.14216   0.15477   0.15870   0.16259
 Alpha virt. eigenvalues --    0.17178   0.17710   0.18422   0.19056   0.19374
 Alpha virt. eigenvalues --    0.21295   0.21537   0.22175   0.22932   0.25228
 Alpha virt. eigenvalues --    0.25554   0.26288   0.29132   0.30857   0.33149
 Alpha virt. eigenvalues --    0.33897   0.34868   0.35659   0.36072   0.37716
 Alpha virt. eigenvalues --    0.38622   0.39490   0.40211   0.41536   0.43024
 Alpha virt. eigenvalues --    0.44434   0.44846   0.46375   0.47892   0.48121
 Alpha virt. eigenvalues --    0.49560   0.51316   0.52162   0.53741   0.54365
 Alpha virt. eigenvalues --    0.55955   0.56931   0.58838   0.59067   0.61054
 Alpha virt. eigenvalues --    0.62196   0.63305   0.65946   0.69018   0.69519
 Alpha virt. eigenvalues --    0.72132   0.72484   0.73586   0.74988   0.75649
 Alpha virt. eigenvalues --    0.76029   0.77990   0.80310   0.85229   0.86565
 Alpha virt. eigenvalues --    0.87973   0.88828   0.92193   0.95300   0.99389
 Alpha virt. eigenvalues --    1.00972   1.03536   1.04703   1.06551   1.07675
 Alpha virt. eigenvalues --    1.09561   1.12994   1.13853   1.14654   1.18634
 Alpha virt. eigenvalues --    1.21458   1.23365   1.28928   1.34360   1.37145
 Alpha virt. eigenvalues --    1.37797   1.39874   1.44393   1.55921   1.57491
 Alpha virt. eigenvalues --    1.58012   1.60538   1.62088   1.64772   1.66842
 Alpha virt. eigenvalues --    1.68836   1.72455   1.74516   1.76147   1.80415
 Alpha virt. eigenvalues --    1.84816   1.86225   1.88152   1.97568   1.97983
 Alpha virt. eigenvalues --    1.98995   2.03681   2.04245   2.08269   2.10353
 Alpha virt. eigenvalues --    2.14225   2.15781   2.23146   2.24351   2.28204
 Alpha virt. eigenvalues --    2.34385   2.40558   2.42177   2.45090   2.54195
 Alpha virt. eigenvalues --    2.58882   2.64016   2.66888   2.69630   2.72090
 Alpha virt. eigenvalues --    2.74270   2.76839   2.78181   2.81109   2.83090
 Alpha virt. eigenvalues --    2.94290   2.98903   3.02129   3.06807   3.09946
 Alpha virt. eigenvalues --    3.15746   3.17230   3.18391   3.22993   3.26984
 Alpha virt. eigenvalues --    3.28593   3.38567   3.47550   3.50918   3.55204
 Alpha virt. eigenvalues --    3.58369   3.69288   3.74627   3.84633   3.88369
 Alpha virt. eigenvalues --    4.12553   4.13451   4.21746   4.25969   4.44871
 Alpha virt. eigenvalues --    4.46339   4.55653   4.60432   4.93903   4.96685
 Alpha virt. eigenvalues --    5.05604   5.10031   5.62385   6.15487   6.70522
 Alpha virt. eigenvalues --    7.51525   7.53794   7.63801  23.23209  23.62270
 Alpha virt. eigenvalues --   23.73229  23.79124  23.96642  24.03082  35.31903
 Alpha virt. eigenvalues --   47.96456  49.85583  49.94245 289.84057 289.86392
 Alpha virt. eigenvalues --  289.989851020.97578
          Condensed to atoms (all electrons):
               1          2          3          4          5          6
     1  C    7.769767  -1.875192   0.501192   0.050387   0.294601   0.058608
     2  C   -1.875192  18.884483  -3.056625   0.390176  -0.002353   0.196702
     3  C    0.501192  -3.056625  21.294055  -1.389630   0.006541   0.111385
     4  C    0.050387   0.390176  -1.389630   6.427900   0.028929  -0.013881
     5  H    0.294601  -0.002353   0.006541   0.028929   0.333279  -0.001727
     6  H    0.058608   0.196702   0.111385  -0.013881  -0.001727   0.313795
     7  H    0.023965  -0.027426   0.015879   0.310090  -0.002637   0.000000
     8  N   -0.106818  -0.438789  -2.320797   0.025811  -0.000112  -0.031297
     9  O    0.016834   0.518101   0.281608  -0.019654  -0.000028  -0.002576
    10  O    0.249904  -0.188107  -0.327932  -0.013982  -0.000016   0.021292
    11  C    0.802553  -0.279502   2.701709  -0.351764  -0.029475   0.008661
    12  H   -0.016241   0.025571  -0.000503   0.027033   0.000053  -0.000022
    13  C   -1.634143  -8.112342 -11.581343   0.891439   0.028683  -0.009280
    14  H    0.005915   0.022437   0.082503  -0.006614  -0.000055   0.000105
    15  Br   0.004426  -0.284388  -0.273090  -0.022583   0.000459  -0.000627
               7          8          9         10         11         12
     1  C    0.023965  -0.106818   0.016834   0.249904   0.802553  -0.016241
     2  C   -0.027426  -0.438789   0.518101  -0.188107  -0.279502   0.025571
     3  C    0.015879  -2.320797   0.281608  -0.327932   2.701709  -0.000503
     4  C    0.310090   0.025811  -0.019654  -0.013982  -0.351764   0.027033
     5  H   -0.002637  -0.000112  -0.000028  -0.000016  -0.029475   0.000053
     6  H    0.000000  -0.031297  -0.002576   0.021292   0.008661  -0.000022
     7  H    0.341240   0.000105  -0.000014   0.000010   0.019152  -0.002289
     8  N    0.000105   7.845606  -0.074152   0.244524  -0.343786   0.000730
     9  O   -0.000014  -0.074152   7.989687  -0.012745   0.278684   0.000154
    10  O    0.000010   0.244524  -0.012745   7.805308  -0.016618  -0.000042
    11  C    0.019152  -0.343786   0.278684  -0.016618   8.257156   0.294754
    12  H   -0.002289   0.000730   0.000154  -0.000042   0.294754   0.330341
    13  C   -0.005714   2.315331  -1.015944   0.161161  -5.179050  -0.008813
    14  H   -0.000043  -0.047353   0.020635  -0.001694   0.057444  -0.006768
    15  Br  -0.000154   0.200434  -0.068845   0.009314   0.016707   0.003075
              13         14         15
     1  C   -1.634143   0.005915   0.004426
     2  C   -8.112342   0.022437  -0.284388
     3  C  -11.581343   0.082503  -0.273090
     4  C    0.891439  -0.006614  -0.022583
     5  H    0.028683  -0.000055   0.000459
     6  H   -0.009280   0.000105  -0.000627
     7  H   -0.005714  -0.000043  -0.000154
     8  N    2.315331  -0.047353   0.200434
     9  O   -1.015944   0.020635  -0.068845
    10  O    0.161161  -0.001694   0.009314
    11  C   -5.179050   0.057444   0.016707
    12  H   -0.008813  -0.006768   0.003075
    13  C   29.795215   0.164355   0.602242
    14  H    0.164355   0.393916  -0.052068
    15  Br   0.602242  -0.052068  34.548807
 Mulliken charges:
               1
     1  C   -0.145758
     2  C    0.227253
     3  C   -0.044951
     4  C   -0.333658
     5  H    0.343858
     6  H    0.348861
     7  H    0.327835
     8  N   -0.269436
     9  O    0.088255
    10  O    0.069624
    11  C   -0.236627
    12  H    0.352967
    13  C   -0.411797
    14  H    0.367284
    15  Br   0.316291
 Sum of Mulliken charges =   1.00000
 Mulliken charges with hydrogens summed into heavy atoms:
               1
     1  C    0.198101
     2  C    0.576114
     3  C   -0.044951
     4  C   -0.005823
     8  N   -0.269436
     9  O    0.088255
    10  O    0.069624
    11  C    0.116339
    13  C   -0.044513
    15  Br   0.316291
 Electronic spatial extent (au):  <R**2>=           3943.2953
 Charge=              1.0000 electrons
 Dipole moment (field-independent basis, Debye):
    X=              2.9902    Y=             -1.4642    Z=             -3.2102  Tot=              4.6250
 Quadrupole moment (field-independent basis, Debye-Ang):
   XX=            -67.8850   YY=            -50.2802   ZZ=            -59.1856
   XY=             -4.1050   XZ=             -7.6307   YZ=              4.8532
 Traceless Quadrupole moment (field-independent basis, Debye-Ang):
   XX=             -8.7681   YY=              8.8367   ZZ=             -0.0687
   XY=             -4.1050   XZ=             -7.6307   YZ=              4.8532
 Octapole moment (field-independent basis, Debye-Ang**2):
  XXX=           -515.2867  YYY=             87.9056  ZZZ=             70.3735  XYY=           -133.9804
  XXY=             21.9053  XXZ=              9.6642  XZZ=           -125.6999  YZZ=             10.5456
  YYZ=             17.6177  XYZ=             13.3896
 Hexadecapole moment (field-independent basis, Debye-Ang**3):
 XXXX=          -3468.6652 YYYY=           -692.6796 ZZZZ=           -365.8270 XXXY=            174.2080
 XXXZ=            128.7127 YYYX=            175.8707 YYYZ=           -156.7462 ZZZX=            140.8554
 ZZZY=           -124.5001 XXYY=           -618.1983 XXZZ=           -509.5461 YYZZ=           -156.3588
 XXYZ=            -27.2968 YYXZ=             32.0054 ZZXY=             14.3699
 N-N= 7.712046129407D+02 E-N=-8.697311472159D+03  KE= 3.005827645731D+03
 No NMR shielding tensors so no spin-rotation constants.
 Leave Link  601 at Thu May  2 14:19:50 2024, MaxMem=   134217728 cpu:               7.2 elap:               7.2
 (Enter /software/gaussian/g16-c01/sse4/g16/l9999.exe)
 Unable to Open any file for archive entry.
 1\1\GINC-BHX0018\SP\RwB97XD\6-311+G(d)\C6H5Br1N1O2(1+)\BWEIGHT\02-May-
 2024\0\\#P wB97XD/6-311+G* NoSymm #P Field=Z+136\\TitleMe\\1,1\C,0,0.5
 193,1.233,-0.0319\C,0,1.9445,1.2692,-0.0367\C,0,2.6204,0.0928,-0.025\C
 ,0,-0.196,0.0301,0.001\H,0,-0.0207,2.1742,-0.0434\H,0,2.4828,2.2089,-0
 .0361\H,0,-1.2777,0.0399,0.0117\N,0,4.0921,0.0959,0.0366\O,0,4.6393,-1
 .0217,0.1446\O,0,4.6649,1.1984,-0.0233\C,0,0.4943,-1.1671,0.021\H,0,-0
 .0325,-2.1149,0.0545\C,0,1.9629,-1.2165,-0.0211\H,0,2.4436,-1.9631,0.6
 151\Br,0,2.173,-1.9491,-1.9062\\Version=ES64L-G16RevC.01\HF=-3010.5424
 816\RMSD=6.413e-09\Dipole=-3.1527768,0.652054,-0.0137836\Quadrupole=-6
 .5188402,6.5698996,-0.0510593,-3.0519323,-5.673218,3.6082525\PG=C01 [X
 (C6H5Br1N1O2)]\\@
 The archive entry for this job was punched.


 IF IT HAPPENS, IT MUST BE POSSIBLE.

 -- THE UNNAMED LAW FROM PAUL DICKSON'S 
    "THE OFFICIAL RULES"
 Job cpu time:       0 days  0 hours 21 minutes 32.2 seconds.
 Elapsed time:       0 days  0 hours 21 minutes 32.4 seconds.
 File lengths (MBytes):  RWF=     40 Int=      0 D2E=      0 Chk=     32 Scr=      1
 Normal termination of Gaussian 16 at Thu May  2 14:19:51 2024.
