 Entering Gaussian System, Link 0=g16
 Initial command:
 /software/gaussian/g16-c01/sse4/g16/l1.exe "/local_scratch/24657422/Gau-4867.inp" -scrdir="/local_scratch/24657422/"
 Entering Link 1 = /software/gaussian/g16-c01/sse4/g16/l1.exe PID=      4883.
  
 Copyright (c) 1988-2019, Gaussian, Inc.  All Rights Reserved.
  
 This is part of the Gaussian(R) 16 program.  It is based on
 the Gaussian(R) 09 system (copyright 2009, Gaussian, Inc.),
 the Gaussian(R) 03 system (copyright 2003, Gaussian, Inc.),
 the Gaussian(R) 98 system (copyright 1998, Gaussian, Inc.),
 the Gaussian(R) 94 system (copyright 1995, Gaussian, Inc.),
 the Gaussian 92(TM) system (copyright 1992, Gaussian, Inc.),
 the Gaussian 90(TM) system (copyright 1990, Gaussian, Inc.),
 the Gaussian 88(TM) system (copyright 1988, Gaussian, Inc.),
 the Gaussian 86(TM) system (copyright 1986, Carnegie Mellon
 University), and the Gaussian 82(TM) system (copyright 1983,
 Carnegie Mellon University). Gaussian is a federally registered
 trademark of Gaussian, Inc.
  
 This software contains proprietary and confidential information,
 including trade secrets, belonging to Gaussian, Inc.
  
 This software is provided under written license and may be
 used, copied, transmitted, or stored only in accord with that
 written license.
  
 The following legend is applicable only to US Government
 contracts under FAR:
  
                    RESTRICTED RIGHTS LEGEND
  
 Use, reproduction and disclosure by the US Government is
 subject to restrictions as set forth in subparagraphs (a)
 and (c) of the Commercial Computer Software - Restricted
 Rights clause in FAR 52.227-19.
  
 Gaussian, Inc.
 340 Quinnipiac St., Bldg. 40, Wallingford CT 06492
  
  
 ---------------------------------------------------------------
 Warning -- This program may not be used in any manner that
 competes with the business of Gaussian, Inc. or will provide
 assistance to any competitor of Gaussian, Inc.  The licensee
 of this program is prohibited from giving any competitor of
 Gaussian, Inc. access to this program.  By using this program,
 the user acknowledges that Gaussian, Inc. is engaged in the
 business of creating and licensing software in the field of
 computational chemistry and represents and warrants to the
 licensee that it is not a competitor of Gaussian, Inc. and that
 it will not use this program in any manner prohibited above.
 ---------------------------------------------------------------
  

 Cite this work as:
 Gaussian 16, Revision C.01,
 M. J. Frisch, G. W. Trucks, H. B. Schlegel, G. E. Scuseria, 
 M. A. Robb, J. R. Cheeseman, G. Scalmani, V. Barone, 
 G. A. Petersson, H. Nakatsuji, X. Li, M. Caricato, A. V. Marenich, 
 J. Bloino, B. G. Janesko, R. Gomperts, B. Mennucci, H. P. Hratchian, 
 J. V. Ortiz, A. F. Izmaylov, J. L. Sonnenberg, D. Williams-Young, 
 F. Ding, F. Lipparini, F. Egidi, J. Goings, B. Peng, A. Petrone, 
 T. Henderson, D. Ranasinghe, V. G. Zakrzewski, J. Gao, N. Rega, 
 G. Zheng, W. Liang, M. Hada, M. Ehara, K. Toyota, R. Fukuda, 
 J. Hasegawa, M. Ishida, T. Nakajima, Y. Honda, O. Kitao, H. Nakai, 
 T. Vreven, K. Throssell, J. A. Montgomery, Jr., J. E. Peralta, 
 F. Ogliaro, M. J. Bearpark, J. J. Heyd, E. N. Brothers, K. N. Kudin, 
 V. N. Staroverov, T. A. Keith, R. Kobayashi, J. Normand, 
 K. Raghavachari, A. P. Rendell, J. C. Burant, S. S. Iyengar, 
 J. Tomasi, M. Cossi, J. M. Millam, M. Klene, C. Adamo, R. Cammi, 
 J. W. Ochterski, R. L. Martin, K. Morokuma, O. Farkas, 
 J. B. Foresman, and D. J. Fox, Gaussian, Inc., Wallingford CT, 2019.
 
 ******************************************
 Gaussian 16:  ES64L-G16RevC.01  3-Jul-2019
                 1-May-2024 
 ******************************************
 %chk=geometry.chk
 %mem=9GB
 %nprocshared=12
 Will use up to   12 processors via shared memory.
 ----------------------------------------
 #P wB97XD/6-311+G* NoSymm #P Field=X-184
 ----------------------------------------
 1/38=1,172=1/1;
 2/12=2,15=1,17=6,18=5,40=1/2;
 3/5=4,6=6,7=11,11=2,14=1,15=-184,25=1,30=1,74=-58/1,2,3;
 4//1;
 5/5=2,38=5/2;
 6/7=2,8=2,9=2,10=2,28=1/1;
 99/5=1,9=1/99;
 Leave Link    1 at Wed May  1 14:27:44 2024, MaxMem=  1207959552 cpu:               1.6 elap:               1.6
 (Enter /software/gaussian/g16-c01/sse4/g16/l101.exe)
 -------
 TitleMe
 -------
 Symbolic Z-matrix:
 Charge =  1 Multiplicity = 1
 C                     0.0295    1.3397    0.0682 
 C                     1.4348    1.2867    0.0064 
 C                     2.1118    0.0511   -0.0054 
 C                     1.4451   -1.1372    0.0312 
 C                    -0.6879    0.1682    0.11 
 H                    -0.4713    2.2984    0.0781 
 H                     2.0273    2.1965   -0.0322 
 H                     1.9897   -2.0764    0.0232 
 H                    -1.7716    0.1804    0.1582 
 N                     3.5864    0.051    -0.0675 
 O                     4.1471   -1.0597   -0.0881 
 O                     4.145     1.1639   -0.0901 
 C                    -0.0236   -1.1458    0.0835 
 H                    -0.4367   -1.8725    0.7889 
 Br                   -0.5359   -1.8697   -1.7408 
 
 ITRead=  0  0  0  0  0  0  0  0  0  0  0  0  0  0  0
 MicOpt= -1 -1 -1 -1 -1 -1 -1 -1 -1 -1 -1 -1 -1 -1 -1
 NAtoms=     15 NQM=       15 NQMF=       0 NMMI=      0 NMMIF=      0
                NMic=       0 NMicF=      0.
                    Isotopes and Nuclear Properties:
 (Nuclear quadrupole moments (NQMom) in fm**2, nuclear magnetic moments (NMagM)
  in nuclear magnetons)

  Atom         1           2           3           4           5           6           7           8           9          10
 IAtWgt=          12          12          12          12          12           1           1           1           1          14
 AtmWgt=  12.0000000  12.0000000  12.0000000  12.0000000  12.0000000   1.0078250   1.0078250   1.0078250   1.0078250  14.0030740
 NucSpn=           0           0           0           0           0           1           1           1           1           2
 AtZEff=  -0.0000000  -0.0000000  -0.0000000  -0.0000000  -0.0000000  -0.0000000  -0.0000000  -0.0000000  -0.0000000  -0.0000000
 NQMom=    0.0000000   0.0000000   0.0000000   0.0000000   0.0000000   0.0000000   0.0000000   0.0000000   0.0000000   2.0440000
 NMagM=    0.0000000   0.0000000   0.0000000   0.0000000   0.0000000   2.7928460   2.7928460   2.7928460   2.7928460   0.4037610
 AtZNuc=   6.0000000   6.0000000   6.0000000   6.0000000   6.0000000   1.0000000   1.0000000   1.0000000   1.0000000   7.0000000

  Atom        11          12          13          14          15
 IAtWgt=          16          16          12           1          79
 AtmWgt=  15.9949146  15.9949146  12.0000000   1.0078250  78.9183361
 NucSpn=           0           0           0           1           3
 AtZEff=  -0.0000000  -0.0000000  -0.0000000  -0.0000000  -0.0000000
 NQMom=    0.0000000   0.0000000   0.0000000   0.0000000  31.3000000
 NMagM=    0.0000000   0.0000000   0.0000000   2.7928460   2.1063990
 AtZNuc=   8.0000000   8.0000000   6.0000000   1.0000000  35.0000000
 Leave Link  101 at Wed May  1 14:27:46 2024, MaxMem=  1207959552 cpu:               1.4 elap:               1.4
 (Enter /software/gaussian/g16-c01/sse4/g16/l202.exe)
                          Input orientation:                          
 ---------------------------------------------------------------------
 Center     Atomic      Atomic             Coordinates (Angstroms)
 Number     Number       Type             X           Y           Z
 ---------------------------------------------------------------------
      1          6           0        0.029500    1.339700    0.068200
      2          6           0        1.434800    1.286700    0.006400
      3          6           0        2.111800    0.051100   -0.005400
      4          6           0        1.445100   -1.137200    0.031200
      5          6           0       -0.687900    0.168200    0.110000
      6          1           0       -0.471300    2.298400    0.078100
      7          1           0        2.027300    2.196500   -0.032200
      8          1           0        1.989700   -2.076400    0.023200
      9          1           0       -1.771600    0.180400    0.158200
     10          7           0        3.586400    0.051000   -0.067500
     11          8           0        4.147100   -1.059700   -0.088100
     12          8           0        4.145000    1.163900   -0.090100
     13          6           0       -0.023600   -1.145800    0.083500
     14          1           0       -0.436700   -1.872500    0.788900
     15         35           0       -0.535900   -1.869700   -1.740800
 ---------------------------------------------------------------------
                    Distance matrix (angstroms):
                    1          2          3          4          5
     1  C    0.000000
     2  C    1.407656   0.000000
     3  C    2.449874   1.408963   0.000000
     4  C    2.853126   2.424049   1.363043   0.000000
     5  C    1.374344   2.401589   2.804523   2.501993   0.000000
     6  H    1.081667   2.159142   3.424870   3.934226   2.141421
     7  H    2.176095   1.086408   2.147231   3.384750   3.392128
     8  H    3.938800   3.408612   2.131193   1.085702   3.495040
     9  H    2.143837   3.395283   3.888995   3.478413   1.084840
    10  N    3.785591   2.482297   1.475907   2.450862   4.279589
    11  O    4.768247   3.587631   2.320164   2.705743   4.992415
    12  O    4.122294   2.714696   2.319353   3.549540   4.938459
    13  C    2.486114   2.837240   2.449573   1.469656   1.472614
    14  H    3.324903   3.754379   3.290289   2.157764   2.165286
    15  Br   3.727252   4.110867   3.702891   2.756973   2.757100
                    6          7          8          9         10
     6  H    0.000000
     7  H    2.503108   0.000000
     8  H    5.019802   4.273425   0.000000
     9  H    2.486588   4.304945   4.388479   0.000000
    10  N    4.640790   2.652397   2.661486   5.364313   0.000000
    11  O    5.712624   3.885809   2.387560   6.052233   1.244373
    12  O    4.756638   2.356750   3.893289   6.002923   1.245428
    13  C    3.473180   3.923079   2.218790   2.195425   3.806210
    14  H    4.231175   4.827242   2.552506   2.528663   4.540772
    15  Br   4.548146   5.101303   3.087568   3.055498   4.845862
                   11         12         13         14         15
    11  O    0.000000
    12  O    2.223602   0.000000
    13  C    4.175117   4.768865   0.000000
    14  H    4.737193   5.566358   1.093770   0.000000
    15  Br   5.031700   5.817075   2.028436   2.531646   0.000000
 Symmetry turned off by external request.
 Stoichiometry    C6H5BrNO2(1+)
 Framework group  C1[X(C6H5BrNO2)]
 Deg. of freedom    39
 Full point group                 C1      NOp   1
 Rotational constants (GHZ):           1.8252210           0.5518633           0.4576002
 Leave Link  202 at Wed May  1 14:27:47 2024, MaxMem=  1207959552 cpu:               1.2 elap:               1.2
 (Enter /software/gaussian/g16-c01/sse4/g16/l301.exe)
 Standard basis: 6-311+G(d) (5D, 7F)
 Ernie: Thresh=  0.10000D-02 Tol=  0.10000D-05 Strict=F.
 The following finite field(s) will be applied:
 An electric field of             -0.0184  0.0000  0.0000
   261 basis functions,   443 primitive gaussians,   273 cartesian basis functions
    49 alpha electrons       49 beta electrons
       nuclear repulsion energy       739.2122215416 Hartrees.
 IExCor= 4639 DFT=T Ex+Corr=wB97XD ExCW=0 ScaHFX=  1.000000
 ScaDFX=  1.000000  1.000000  1.000000  1.000000 ScalE2=  1.000000  1.000000
 IRadAn=      5 IRanWt=     -1 IRanGd=            0 ICorTp=0 IEmpDi=121
 HFx  wShort=  0.000000 wLong=  0.200000 cFull=  0.222036 cShort=  0.000000 cLong=  0.777964
 DFx  wShort=  0.000000 wLong=  0.200000 cFull=  0.000000 cShort=  0.000000 cLong=  1.000000
 NAtoms=   15 NActive=   15 NUniq=   15 SFac= 1.00D+00 NAtFMM=   60 NAOKFM=F Big=F
 Integral buffers will be    131072 words long.
 Raffenetti 2 integral format.
 Two-electron integral symmetry is turned off.
 R6Disp:  Grimme-D2 Dispersion energy=       -0.0077368520 Hartrees.
 Nuclear repulsion after empirical dispersion term =      739.2044846896 Hartrees.
 Leave Link  301 at Wed May  1 14:27:48 2024, MaxMem=  1207959552 cpu:               1.0 elap:               1.0
 (Enter /software/gaussian/g16-c01/sse4/g16/l302.exe)
 NPDir=0 NMtPBC=     1 NCelOv=     1 NCel=       1 NClECP=     1 NCelD=      1
         NCelK=      1 NCelE2=     1 NClLst=     1 CellRange=     0.0.
 One-electron integrals computed using PRISM.
 NBasis=   261 RedAO= T EigKep=  2.35D-06  NBF=   261
 NBsUse=   261 1.00D-06 EigRej= -1.00D+00 NBFU=   261
 Precomputing XC quadrature grid using
 IXCGrd= 4 IRadAn=           5 IRanWt=          -1 IRanGd=           0 AccXCQ= 0.00D+00.
 Generated NRdTot=       0 NPtTot=           0 NUsed=           0 NTot=          32
 NSgBfM=   273   273   273   273   273 MxSgAt=    15 MxSgA2=    15.
 Leave Link  302 at Wed May  1 14:28:09 2024, MaxMem=  1207959552 cpu:              21.6 elap:              21.6
 (Enter /software/gaussian/g16-c01/sse4/g16/l303.exe)
 DipDrv:  MaxL=1.
 The nuclear repulsion energy is now       735.7315367960 hartrees.
 Leave Link  303 at Wed May  1 14:28:13 2024, MaxMem=  1207959552 cpu:               3.3 elap:               3.3
 (Enter /software/gaussian/g16-c01/sse4/g16/l401.exe)
 ExpMin= 3.50D-02 ExpMax= 4.40D+05 ExpMxC= 1.51D+04 IAcc=3 IRadAn=         5 AccDes= 0.00D+00
 Harris functional with IExCor= 4639 and IRadAn=       5 diagonalized for initial guess.
 HarFok:  IExCor= 4639 AccDes= 0.00D+00 IRadAn=         5 IDoV= 1 UseB2=F ITyADJ=14
 ICtDFT=  3500011 ScaDFX=  1.000000  1.000000  1.000000  1.000000
 FoFCou: FMM=F IPFlag=           0 FMFlag=      100000 FMFlg1=           0
         NFxFlg=           0 DoJE=T BraDBF=F KetDBF=T FulRan=T
         wScrn=  0.000000 ICntrl=       500 IOpCl=  0 I1Cent=   200000004 NGrid=           0
         NMat0=    1 NMatS0=      1 NMatT0=    0 NMatD0=    1 NMtDS0=    0 NMtDT0=    0
 Symmetry not used in FoFCou.
 Harris En= -2971.00141012327    
 JPrj=0 DoOrth=F DoCkMO=F.
 Leave Link  401 at Wed May  1 14:28:43 2024, MaxMem=  1207959552 cpu:              30.7 elap:              30.7
 (Enter /software/gaussian/g16-c01/sse4/g16/l502.exe)
 Two-electron integral symmetry not used.
 Closed shell SCF:
 Using DIIS extrapolation, IDIIS=  1040.
 NGot=  1207959552 LenX=  1207804877 LenY=  1207729907
 Requested convergence on RMS density matrix=1.00D-08 within 128 cycles.
 Requested convergence on MAX density matrix=1.00D-06.
 Requested convergence on             energy=1.00D-06.
 No special actions if energy rises.
 Fock matrices will be formed incrementally for  20 cycles.

 Cycle   1  Pass 1  IDiag  1:
 FoFJK:  IHMeth= 1 ICntrl=       0 DoSepK=T KAlg= 0 I1Cent=           0 FoldK=F
 IRaf=         1 NMat=       1 IRICut=       1 DoRegI=T DoRafI=F ISym2E= 0 IDoP0=0 IntGTp=1.
 FoFCou: FMM=F IPFlag=           0 FMFlag=      100000 FMFlg1=           0
         NFxFlg=           0 DoJE=T BraDBF=F KetDBF=F FulRan=T
         wScrn=  0.000000 ICntrl=       500 IOpCl=  0 I1Cent=           0 NGrid=           0
         NMat0=    1 NMatS0=      1 NMatT0=    0 NMatD0=    1 NMtDS0=    0 NMtDT0=    0
 Symmetry not used in FoFCou.
 E= -3001.44571844414    
 DIIS: error= 3.20D-01 at cycle   1 NSaved=   1.
 NSaved= 1 IEnMin= 1 EnMin= -3001.44571844414     IErMin= 1 ErrMin= 3.20D-01
 ErrMax= 3.20D-01  0.00D+00 EMaxC= 1.00D-01 BMatC= 1.43D+01 BMatP= 1.43D+01
 IDIUse=3 WtCom= 0.00D+00 WtEn= 1.00D+00
 Coeff-Com:  0.100D+01
 Coeff-En:   0.100D+01
 Coeff:      0.100D+01
 Gap=    -0.137 Goal=   None    Shift=    0.000
 GapD=   -0.137 DampG=0.250 DampE=0.250 DampFc=0.2500 IDamp=-1.
 Damping current iteration by 2.50D-01
 RMSDP=8.19D+00 MaxDP=7.90D+02              OVMax= 9.93D-01

 Cycle   2  Pass 1  IDiag  1:
 RMSU=  2.09D-01    CP:  7.59D-01
 E= -3002.30066266116     Delta-E=       -0.854944217016 Rises=F Damp=T
 DIIS: error= 2.23D-01 at cycle   2 NSaved=   2.
 NSaved= 2 IEnMin= 2 EnMin= -3002.30066266116     IErMin= 2 ErrMin= 2.23D-01
 ErrMax= 2.23D-01  0.00D+00 EMaxC= 1.00D-01 BMatC= 6.32D+00 BMatP= 1.43D+01
 IDIUse=3 WtCom= 0.00D+00 WtEn= 1.00D+00
 Coeff-Com: -0.326D+00 0.133D+01
 Coeff-En:   0.450D+00 0.550D+00
 Coeff:      0.450D+00 0.550D+00
 Gap=     0.665 Goal=   None    Shift=    0.000
 RMSDP=6.36D+00 MaxDP=5.97D+02 DE=-8.55D-01 OVMax= 9.83D-01

 Cycle   3  Pass 1  IDiag  1:
 RMSU=  6.40D-02    CP:  5.22D-03  2.22D-01
 E= -2998.95497823229     Delta-E=        3.345684428868 Rises=F Damp=F
 DIIS: error= 1.41D-01 at cycle   3 NSaved=   3.
 NSaved= 3 IEnMin= 2 EnMin= -3002.30066266116     IErMin= 3 ErrMin= 1.41D-01
 ErrMax= 1.41D-01  0.00D+00 EMaxC= 1.00D-01 BMatC= 8.13D+00 BMatP= 6.32D+00
 IDIUse=2 WtCom= 0.00D+00 WtEn= 1.00D+00
 EnCoef did   100 forward-backward iterations
 Coeff-En:   0.540D+00 0.808D-02 0.452D+00
 Coeff:      0.540D+00 0.808D-02 0.452D+00
 Gap=    -0.218 Goal=   None    Shift=    0.000
 RMSDP=2.82D-02 MaxDP=1.78D+00 DE= 3.35D+00 OVMax= 7.85D-01

 Cycle   4  Pass 1  IDiag  1:
 RMSU=  2.57D-02    CP:  5.36D-03  1.78D-01  8.92D-01
 E= -3009.71497557774     Delta-E=      -10.759997345452 Rises=F Damp=F
 DIIS: error= 6.00D-02 at cycle   4 NSaved=   4.
 NSaved= 4 IEnMin= 4 EnMin= -3009.71497557774     IErMin= 4 ErrMin= 6.00D-02
 ErrMax= 6.00D-02  0.00D+00 EMaxC= 1.00D-01 BMatC= 1.14D+00 BMatP= 6.32D+00
 IDIUse=3 WtCom= 4.00D-01 WtEn= 6.00D-01
 Coeff-Com:  0.136D+00 0.553D-01 0.764D-01 0.732D+00
 Coeff-En:   0.358D-01 0.000D+00 0.000D+00 0.964D+00
 Coeff:      0.761D-01 0.222D-01 0.306D-01 0.871D+00
 Gap=     0.387 Goal=   None    Shift=    0.000
 RMSDP=3.78D-02 MaxDP=2.42D+00 DE=-1.08D+01 OVMax= 6.65D-01

 Cycle   5  Pass 1  IDiag  1:
 RMSU=  3.43D-02    CP:  5.35D-03  1.66D-01  6.51D-01  9.18D-01
 E= -3008.73913742991     Delta-E=        0.975838147830 Rises=F Damp=F
 DIIS: error= 7.01D-02 at cycle   5 NSaved=   5.
 NSaved= 5 IEnMin= 4 EnMin= -3009.71497557774     IErMin= 4 ErrMin= 6.00D-02
 ErrMax= 7.01D-02  0.00D+00 EMaxC= 1.00D-01 BMatC= 1.74D+00 BMatP= 1.14D+00
 IDIUse=2 WtCom= 0.00D+00 WtEn= 1.00D+00
 Coeff-En:   0.000D+00 0.000D+00 0.000D+00 0.678D+00 0.322D+00
 Coeff:      0.000D+00 0.000D+00 0.000D+00 0.678D+00 0.322D+00
 Gap=     0.067 Goal=   None    Shift=    0.000
 RMSDP=2.49D-02 MaxDP=2.83D+00 DE= 9.76D-01 OVMax= 8.71D-01

 Cycle   6  Pass 1  IDiag  1:
 RMSU=  1.57D-02    CP:  5.40D-03  1.25D-01  5.16D-01  8.24D-01  5.69D-01
 E= -3010.42712831887     Delta-E=       -1.687990888958 Rises=F Damp=F
 DIIS: error= 2.18D-02 at cycle   6 NSaved=   6.
 NSaved= 6 IEnMin= 6 EnMin= -3010.42712831887     IErMin= 6 ErrMin= 2.18D-02
 ErrMax= 2.18D-02  0.00D+00 EMaxC= 1.00D-01 BMatC= 1.65D-01 BMatP= 1.14D+00
 IDIUse=3 WtCom= 7.82D-01 WtEn= 2.18D-01
 Coeff-Com: -0.877D-02 0.172D-01 0.369D-01 0.236D+00 0.695D-01 0.650D+00
 Coeff-En:   0.000D+00 0.000D+00 0.000D+00 0.000D+00 0.000D+00 0.100D+01
 Coeff:     -0.686D-02 0.135D-01 0.288D-01 0.184D+00 0.543D-01 0.726D+00
 Gap=     0.195 Goal=   None    Shift=    0.000
 RMSDP=1.16D-02 MaxDP=1.01D+00 DE=-1.69D+00 OVMax= 2.11D-01

 Cycle   7  Pass 1  IDiag  1:
 RMSU=  5.24D-03    CP:  4.46D-03  1.21D-01  4.92D-01  6.88D-01  4.31D-01
                    CP:  8.25D-01
 E= -3010.52358362055     Delta-E=       -0.096455301683 Rises=F Damp=F
 DIIS: error= 1.54D-02 at cycle   7 NSaved=   7.
 NSaved= 7 IEnMin= 7 EnMin= -3010.52358362055     IErMin= 7 ErrMin= 1.54D-02
 ErrMax= 1.54D-02  0.00D+00 EMaxC= 1.00D-01 BMatC= 3.06D-02 BMatP= 1.65D-01
 IDIUse=3 WtCom= 8.46D-01 WtEn= 1.54D-01
 Coeff-Com: -0.201D-01 0.231D-01 0.798D-02 0.427D-01 0.129D-01 0.347D+00
 Coeff-Com:  0.587D+00
 Coeff-En:   0.000D+00 0.000D+00 0.000D+00 0.000D+00 0.000D+00 0.000D+00
 Coeff-En:   0.100D+01
 Coeff:     -0.170D-01 0.196D-01 0.676D-02 0.362D-01 0.109D-01 0.294D+00
 Coeff:      0.650D+00
 Gap=     0.161 Goal=   None    Shift=    0.000
 RMSDP=3.53D-03 MaxDP=2.95D-01 DE=-9.65D-02 OVMax= 5.23D-02

 Cycle   8  Pass 1  IDiag  1:
 RMSU=  2.60D-03    CP:  4.64D-03  1.23D-01  5.07D-01  7.36D-01  4.37D-01
                    CP:  8.28D-01  8.24D-01
 E= -3010.53684542990     Delta-E=       -0.013261809349 Rises=F Damp=F
 DIIS: error= 8.80D-03 at cycle   8 NSaved=   8.
 NSaved= 8 IEnMin= 8 EnMin= -3010.53684542990     IErMin= 8 ErrMin= 8.80D-03
 ErrMax= 8.80D-03  0.00D+00 EMaxC= 1.00D-01 BMatC= 1.05D-02 BMatP= 3.06D-02
 IDIUse=3 WtCom= 9.12D-01 WtEn= 8.80D-02
 Coeff-Com: -0.104D-01 0.154D-01 0.254D-03-0.915D-02 0.220D-02 0.474D-01
 Coeff-Com:  0.396D+00 0.559D+00
 Coeff-En:   0.000D+00 0.000D+00 0.000D+00 0.000D+00 0.000D+00 0.000D+00
 Coeff-En:   0.263D+00 0.737D+00
 Coeff:     -0.953D-02 0.141D-01 0.232D-03-0.835D-02 0.200D-02 0.432D-01
 Coeff:      0.384D+00 0.574D+00
 Gap=     0.191 Goal=   None    Shift=    0.000
 RMSDP=2.28D-03 MaxDP=1.58D-01 DE=-1.33D-02 OVMax= 6.40D-02

 Cycle   9  Pass 1  IDiag  1:
 RMSU=  9.66D-04    CP:  4.46D-03  1.22D-01  5.11D-01  7.16D-01  4.19D-01
                    CP:  8.05D-01  9.13D-01  6.40D-01
 E= -3010.54652116945     Delta-E=       -0.009675739552 Rises=F Damp=F
 DIIS: error= 3.32D-03 at cycle   9 NSaved=   9.
 NSaved= 9 IEnMin= 9 EnMin= -3010.54652116945     IErMin= 9 ErrMin= 3.32D-03
 ErrMax= 3.32D-03  0.00D+00 EMaxC= 1.00D-01 BMatC= 1.27D-03 BMatP= 1.05D-02
 IDIUse=3 WtCom= 9.67D-01 WtEn= 3.32D-02
 Coeff-Com: -0.338D-02 0.608D-02-0.145D-02-0.109D-01-0.140D-02-0.329D-01
 Coeff-Com:  0.991D-01 0.328D+00 0.616D+00
 Coeff-En:   0.000D+00 0.000D+00 0.000D+00 0.000D+00 0.000D+00 0.000D+00
 Coeff-En:   0.000D+00 0.000D+00 0.100D+01
 Coeff:     -0.327D-02 0.588D-02-0.140D-02-0.105D-01-0.136D-02-0.318D-01
 Coeff:      0.958D-01 0.318D+00 0.629D+00
 Gap=     0.195 Goal=   None    Shift=    0.000
 RMSDP=6.48D-04 MaxDP=3.30D-02 DE=-9.68D-03 OVMax= 3.41D-02

 Cycle  10  Pass 1  IDiag  1:
 RMSU=  4.17D-04    CP:  4.43D-03  1.22D-01  5.11D-01  7.16D-01  4.14D-01
                    CP:  7.94D-01  9.45D-01  7.69D-01  9.49D-01
 E= -3010.54821579777     Delta-E=       -0.001694628318 Rises=F Damp=F
 DIIS: error= 2.02D-03 at cycle  10 NSaved=  10.
 NSaved=10 IEnMin=10 EnMin= -3010.54821579777     IErMin=10 ErrMin= 2.02D-03
 ErrMax= 2.02D-03  0.00D+00 EMaxC= 1.00D-01 BMatC= 4.48D-04 BMatP= 1.27D-03
 IDIUse=3 WtCom= 9.80D-01 WtEn= 2.02D-02
 Coeff-Com: -0.254D-03 0.309D-03-0.196D-02-0.344D-02-0.364D-03-0.320D-01
 Coeff-Com: -0.425D-01 0.733D-01 0.431D+00 0.576D+00
 Coeff-En:   0.000D+00 0.000D+00 0.000D+00 0.000D+00 0.000D+00 0.000D+00
 Coeff-En:   0.000D+00 0.000D+00 0.000D+00 0.100D+01
 Coeff:     -0.248D-03 0.303D-03-0.192D-02-0.337D-02-0.356D-03-0.313D-01
 Coeff:     -0.417D-01 0.718D-01 0.422D+00 0.585D+00
 Gap=     0.194 Goal=   None    Shift=    0.000
 RMSDP=4.10D-04 MaxDP=2.41D-02 DE=-1.69D-03 OVMax= 2.10D-02

 Cycle  11  Pass 1  IDiag  1:
 RMSU=  3.39D-04    CP:  4.43D-03  1.23D-01  5.12D-01  7.20D-01  4.15D-01
                    CP:  7.95D-01  9.45D-01  8.17D-01  1.12D+00  1.06D+00
 E= -3010.54894333568     Delta-E=       -0.000727537910 Rises=F Damp=F
 DIIS: error= 4.91D-04 at cycle  11 NSaved=  11.
 NSaved=11 IEnMin=11 EnMin= -3010.54894333568     IErMin=11 ErrMin= 4.91D-04
 ErrMax= 4.91D-04  0.00D+00 EMaxC= 1.00D-01 BMatC= 5.82D-05 BMatP= 4.48D-04
 IDIUse=3 WtCom= 9.95D-01 WtEn= 4.91D-03
 Coeff-Com:  0.147D-02-0.213D-02-0.566D-03 0.404D-03-0.164D-02-0.615D-02
 Coeff-Com: -0.248D-01 0.529D-02 0.401D-01 0.113D+00 0.875D+00
 Coeff-En:   0.000D+00 0.000D+00 0.000D+00 0.000D+00 0.000D+00 0.000D+00
 Coeff-En:   0.000D+00 0.000D+00 0.000D+00 0.000D+00 0.100D+01
 Coeff:      0.146D-02-0.211D-02-0.563D-03 0.402D-03-0.163D-02-0.612D-02
 Coeff:     -0.247D-01 0.526D-02 0.399D-01 0.112D+00 0.876D+00
 Gap=     0.193 Goal=   None    Shift=    0.000
 RMSDP=2.75D-04 MaxDP=1.45D-02 DE=-7.28D-04 OVMax= 1.67D-02

 Cycle  12  Pass 1  IDiag  1:
 RMSU=  1.18D-04    CP:  4.42D-03  1.23D-01  5.12D-01  7.21D-01  4.15D-01
                    CP:  7.91D-01  9.44D-01  8.56D-01  1.20D+00  1.32D+00
                    CP:  1.33D+00
 E= -3010.54920696116     Delta-E=       -0.000263625478 Rises=F Damp=F
 DIIS: error= 3.47D-04 at cycle  12 NSaved=  12.
 NSaved=12 IEnMin=12 EnMin= -3010.54920696116     IErMin=12 ErrMin= 3.47D-04
 ErrMax= 3.47D-04  0.00D+00 EMaxC= 1.00D-01 BMatC= 3.70D-05 BMatP= 5.82D-05
 IDIUse=3 WtCom= 9.97D-01 WtEn= 3.47D-03
 Coeff-Com:  0.842D-03-0.108D-02-0.520D-03 0.161D-02-0.694D-03 0.116D-01
 Coeff-Com:  0.262D-01 0.655D-02-0.167D+00-0.314D+00 0.161D+00 0.128D+01
 Coeff-En:   0.000D+00 0.000D+00 0.000D+00 0.000D+00 0.000D+00 0.000D+00
 Coeff-En:   0.000D+00 0.000D+00 0.000D+00 0.000D+00 0.000D+00 0.100D+01
 Coeff:      0.839D-03-0.108D-02-0.518D-03 0.160D-02-0.692D-03 0.116D-01
 Coeff:      0.261D-01 0.653D-02-0.166D+00-0.313D+00 0.161D+00 0.127D+01
 Gap=     0.190 Goal=   None    Shift=    0.000
 RMSDP=4.33D-04 MaxDP=1.78D-02 DE=-2.64D-04 OVMax= 1.85D-02

 Cycle  13  Pass 1  IDiag  1:
 RMSU=  9.41D-05    CP:  4.42D-03  1.23D-01  5.09D-01  7.22D-01  4.17D-01
                    CP:  7.92D-01  9.47D-01  9.18D-01  1.20D+00  1.56D+00
                    CP:  2.28D+00  1.85D+00
 E= -3010.54937346509     Delta-E=       -0.000166503929 Rises=F Damp=F
 DIIS: error= 2.67D-04 at cycle  13 NSaved=  13.
 NSaved=13 IEnMin=13 EnMin= -3010.54937346509     IErMin=13 ErrMin= 2.67D-04
 ErrMax= 2.67D-04  0.00D+00 EMaxC= 1.00D-01 BMatC= 8.60D-06 BMatP= 3.70D-05
 IDIUse=3 WtCom= 9.97D-01 WtEn= 2.67D-03
 Coeff-Com:  0.163D-03-0.203D-03-0.282D-03-0.589D-05-0.138D-03 0.449D-02
 Coeff-Com:  0.168D-01 0.127D-01-0.283D-01-0.830D-01-0.250D+00 0.136D+00
 Coeff-Com:  0.119D+01
 Coeff-En:   0.000D+00 0.000D+00 0.000D+00 0.000D+00 0.000D+00 0.000D+00
 Coeff-En:   0.000D+00 0.000D+00 0.000D+00 0.000D+00 0.000D+00 0.000D+00
 Coeff-En:   0.100D+01
 Coeff:      0.163D-03-0.202D-03-0.281D-03-0.588D-05-0.138D-03 0.448D-02
 Coeff:      0.168D-01 0.126D-01-0.282D-01-0.828D-01-0.250D+00 0.135D+00
 Coeff:      0.119D+01
 Gap=     0.188 Goal=   None    Shift=    0.000
 RMSDP=2.05D-04 MaxDP=8.10D-03 DE=-1.67D-04 OVMax= 9.19D-03

 Cycle  14  Pass 1  IDiag  1:
 RMSU=  3.75D-05    CP:  4.42D-03  1.23D-01  5.08D-01  7.24D-01  4.18D-01
                    CP:  7.92D-01  9.45D-01  9.53D-01  1.20D+00  1.67D+00
                    CP:  2.66D+00  2.47D+00  1.32D+00
 E= -3010.54940215307     Delta-E=       -0.000028687977 Rises=F Damp=F
 DIIS: error= 6.62D-05 at cycle  14 NSaved=  14.
 NSaved=14 IEnMin=14 EnMin= -3010.54940215307     IErMin=14 ErrMin= 6.62D-05
 ErrMax= 6.62D-05  0.00D+00 EMaxC= 1.00D-01 BMatC= 1.66D-06 BMatP= 8.60D-06
 IDIUse=1 WtCom= 1.00D+00 WtEn= 0.00D+00
 Coeff-Com:  0.283D-04-0.692D-04-0.917D-04-0.302D-03-0.619D-04-0.171D-03
 Coeff-Com:  0.308D-02 0.723D-02 0.237D-01 0.284D-01-0.119D+00-0.215D+00
 Coeff-Com:  0.572D+00 0.699D+00
 Coeff:      0.283D-04-0.692D-04-0.917D-04-0.302D-03-0.619D-04-0.171D-03
 Coeff:      0.308D-02 0.723D-02 0.237D-01 0.284D-01-0.119D+00-0.215D+00
 Coeff:      0.572D+00 0.699D+00
 Gap=     0.188 Goal=   None    Shift=    0.000
 RMSDP=3.25D-05 MaxDP=2.83D-03 DE=-2.87D-05 OVMax= 9.87D-04

 Cycle  15  Pass 1  IDiag  1:
 RMSU=  1.32D-05    CP:  4.42D-03  1.23D-01  5.08D-01  7.24D-01  4.19D-01
                    CP:  7.92D-01  9.46D-01  9.53D-01  1.21D+00  1.69D+00
                    CP:  2.70D+00  2.47D+00  1.53D+00  9.82D-01
 E= -3010.54940440024     Delta-E=       -0.000002247172 Rises=F Damp=F
 DIIS: error= 2.93D-05 at cycle  15 NSaved=  15.
 NSaved=15 IEnMin=15 EnMin= -3010.54940440024     IErMin=15 ErrMin= 2.93D-05
 ErrMax= 2.93D-05  0.00D+00 EMaxC= 1.00D-01 BMatC= 1.43D-07 BMatP= 1.66D-06
 IDIUse=1 WtCom= 1.00D+00 WtEn= 0.00D+00
 Coeff-Com:  0.129D-04-0.239D-04-0.753D-05-0.658D-04 0.100D-04-0.812D-03
 Coeff-Com: -0.637D-03 0.236D-02 0.118D-01 0.197D-01 0.537D-02-0.983D-01
 Coeff-Com:  0.773D-02 0.137D+00 0.916D+00
 Coeff:      0.129D-04-0.239D-04-0.753D-05-0.658D-04 0.100D-04-0.812D-03
 Coeff:     -0.637D-03 0.236D-02 0.118D-01 0.197D-01 0.537D-02-0.983D-01
 Coeff:      0.773D-02 0.137D+00 0.916D+00
 Gap=     0.187 Goal=   None    Shift=    0.000
 RMSDP=1.00D-05 MaxDP=6.10D-04 DE=-2.25D-06 OVMax= 2.68D-04

 Cycle  16  Pass 1  IDiag  1:
 RMSU=  7.33D-06    CP:  4.42D-03  1.23D-01  5.08D-01  7.24D-01  4.18D-01
                    CP:  7.92D-01  9.46D-01  9.54D-01  1.21D+00  1.69D+00
                    CP:  2.70D+00  2.47D+00  1.56D+00  1.02D+00  1.26D+00
 E= -3010.54940471040     Delta-E=       -0.000000310164 Rises=F Damp=F
 DIIS: error= 1.14D-05 at cycle  16 NSaved=  16.
 NSaved=16 IEnMin=16 EnMin= -3010.54940471040     IErMin=16 ErrMin= 1.14D-05
 ErrMax= 1.14D-05  0.00D+00 EMaxC= 1.00D-01 BMatC= 2.27D-08 BMatP= 1.43D-07
 IDIUse=1 WtCom= 1.00D+00 WtEn= 0.00D+00
 Coeff-Com:  0.667D-05-0.661D-05-0.402D-06-0.116D-05 0.455D-05-0.267D-03
 Coeff-Com: -0.405D-03-0.424D-04-0.518D-03 0.155D-02 0.202D-01-0.956D-02
 Coeff-Com: -0.657D-01-0.617D-01 0.310D+00 0.806D+00
 Coeff:      0.667D-05-0.661D-05-0.402D-06-0.116D-05 0.455D-05-0.267D-03
 Coeff:     -0.405D-03-0.424D-04-0.518D-03 0.155D-02 0.202D-01-0.956D-02
 Coeff:     -0.657D-01-0.617D-01 0.310D+00 0.806D+00
 Gap=     0.187 Goal=   None    Shift=    0.000
 RMSDP=5.09D-06 MaxDP=2.55D-04 DE=-3.10D-07 OVMax= 1.89D-04

 Cycle  17  Pass 1  IDiag  1:
 RMSU=  2.37D-06    CP:  4.42D-03  1.23D-01  5.08D-01  7.24D-01  4.18D-01
                    CP:  7.93D-01  9.46D-01  9.54D-01  1.21D+00  1.69D+00
                    CP:  2.71D+00  2.47D+00  1.56D+00  1.05D+00  1.40D+00
                    CP:  1.25D+00
 E= -3010.54940477669     Delta-E=       -0.000000066287 Rises=F Damp=F
 DIIS: error= 3.05D-06 at cycle  17 NSaved=  17.
 NSaved=17 IEnMin=17 EnMin= -3010.54940477669     IErMin=17 ErrMin= 3.05D-06
 ErrMax= 3.05D-06  0.00D+00 EMaxC= 1.00D-01 BMatC= 2.31D-09 BMatP= 2.27D-08
 IDIUse=1 WtCom= 1.00D+00 WtEn= 0.00D+00
 Coeff-Com: -0.723D-07 0.111D-05 0.417D-06-0.171D-05-0.172D-05 0.480D-04
 Coeff-Com: -0.443D-05-0.410D-03-0.180D-02-0.177D-02 0.404D-02 0.107D-01
 Coeff-Com: -0.115D-01-0.335D-01-0.867D-01 0.136D+00 0.985D+00
 Coeff:     -0.723D-07 0.111D-05 0.417D-06-0.171D-05-0.172D-05 0.480D-04
 Coeff:     -0.443D-05-0.410D-03-0.180D-02-0.177D-02 0.404D-02 0.107D-01
 Coeff:     -0.115D-01-0.335D-01-0.867D-01 0.136D+00 0.985D+00
 Gap=     0.187 Goal=   None    Shift=    0.000
 RMSDP=3.06D-06 MaxDP=1.17D-04 DE=-6.63D-08 OVMax= 1.41D-04

 Cycle  18  Pass 1  IDiag  1:
 RMSU=  1.24D-06    CP:  4.42D-03  1.23D-01  5.08D-01  7.24D-01  4.18D-01
                    CP:  7.93D-01  9.45D-01  9.54D-01  1.21D+00  1.69D+00
                    CP:  2.70D+00  2.47D+00  1.56D+00  1.07D+00  1.46D+00
                    CP:  1.41D+00  1.55D+00
 E= -3010.54940479561     Delta-E=       -0.000000018918 Rises=F Damp=F
 DIIS: error= 1.79D-06 at cycle  18 NSaved=  18.
 NSaved=18 IEnMin=18 EnMin= -3010.54940479561     IErMin=18 ErrMin= 1.79D-06
 ErrMax= 1.79D-06  0.00D+00 EMaxC= 1.00D-01 BMatC= 5.16D-10 BMatP= 2.31D-09
 IDIUse=1 WtCom= 1.00D+00 WtEn= 0.00D+00
 Coeff-Com: -0.867D-06 0.129D-05 0.611D-06 0.762D-05 0.947D-06 0.187D-04
 Coeff-Com: -0.142D-04-0.724D-04 0.120D-03 0.718D-04-0.227D-02 0.695D-03
 Coeff-Com:  0.701D-02 0.878D-02-0.222D-01-0.101D+00-0.782D-01 0.119D+01
 Coeff:     -0.867D-06 0.129D-05 0.611D-06 0.762D-05 0.947D-06 0.187D-04
 Coeff:     -0.142D-04-0.724D-04 0.120D-03 0.718D-04-0.227D-02 0.695D-03
 Coeff:      0.701D-02 0.878D-02-0.222D-01-0.101D+00-0.782D-01 0.119D+01
 Gap=     0.187 Goal=   None    Shift=    0.000
 RMSDP=2.20D-06 MaxDP=1.07D-04 DE=-1.89D-08 OVMax= 1.10D-04

 Cycle  19  Pass 1  IDiag  1:
 RMSU=  6.83D-07    CP:  4.42D-03  1.23D-01  5.08D-01  7.24D-01  4.18D-01
                    CP:  7.93D-01  9.45D-01  9.54D-01  1.21D+00  1.70D+00
                    CP:  2.71D+00  2.47D+00  1.55D+00  1.09D+00  1.46D+00
                    CP:  1.50D+00  2.01D+00  1.58D+00
 E= -3010.54940480341     Delta-E=       -0.000000007806 Rises=F Damp=F
 DIIS: error= 1.06D-06 at cycle  19 NSaved=  19.
 NSaved=19 IEnMin=19 EnMin= -3010.54940480341     IErMin=19 ErrMin= 1.06D-06
 ErrMax= 1.06D-06  0.00D+00 EMaxC= 1.00D-01 BMatC= 1.89D-10 BMatP= 5.16D-10
 IDIUse=1 WtCom= 1.00D+00 WtEn= 0.00D+00
 Coeff-Com: -0.357D-06 0.259D-06 0.232D-06 0.200D-05 0.143D-05-0.102D-04
 Coeff-Com: -0.392D-05 0.752D-04 0.458D-03 0.386D-03-0.147D-02-0.189D-02
 Coeff-Com:  0.365D-02 0.967D-02 0.196D-01-0.535D-01-0.295D+00 0.192D+00
 Coeff-Com:  0.113D+01
 Coeff:     -0.357D-06 0.259D-06 0.232D-06 0.200D-05 0.143D-05-0.102D-04
 Coeff:     -0.392D-05 0.752D-04 0.458D-03 0.386D-03-0.147D-02-0.189D-02
 Coeff:      0.365D-02 0.967D-02 0.196D-01-0.535D-01-0.295D+00 0.192D+00
 Coeff:      0.113D+01
 Gap=     0.187 Goal=   None    Shift=    0.000
 RMSDP=1.56D-06 MaxDP=6.31D-05 DE=-7.81D-09 OVMax= 8.78D-05

 Cycle  20  Pass 1  IDiag  1:
 RMSU=  2.21D-07    CP:  4.42D-03  1.23D-01  5.08D-01  7.24D-01  4.18D-01
                    CP:  7.93D-01  9.45D-01  9.54D-01  1.21D+00  1.70D+00
                    CP:  2.71D+00  2.47D+00  1.55D+00  1.11D+00  1.47D+00
                    CP:  1.56D+00  2.33D+00  2.10D+00  1.80D+00
 E= -3010.54940480674     Delta-E=       -0.000000003328 Rises=F Damp=F
 DIIS: error= 6.17D-07 at cycle  20 NSaved=  20.
 NSaved=20 IEnMin=20 EnMin= -3010.54940480674     IErMin=20 ErrMin= 6.17D-07
 ErrMax= 6.17D-07  0.00D+00 EMaxC= 1.00D-01 BMatC= 5.35D-11 BMatP= 1.89D-10
 IDIUse=1 WtCom= 1.00D+00 WtEn= 0.00D+00
 Coeff-Com: -0.461D-09-0.828D-07 0.188D-08-0.306D-05 0.634D-06-0.555D-05
 Coeff-Com:  0.148D-04 0.486D-04 0.281D-04-0.382D-04 0.421D-03-0.340D-03
 Coeff-Com: -0.230D-02-0.166D-02 0.112D-01 0.273D-01-0.287D-01-0.409D+00
 Coeff-Com:  0.238D+00 0.116D+01
 Coeff:     -0.461D-09-0.828D-07 0.188D-08-0.306D-05 0.634D-06-0.555D-05
 Coeff:      0.148D-04 0.486D-04 0.281D-04-0.382D-04 0.421D-03-0.340D-03
 Coeff:     -0.230D-02-0.166D-02 0.112D-01 0.273D-01-0.287D-01-0.409D+00
 Coeff:      0.238D+00 0.116D+01
 Gap=     0.187 Goal=   None    Shift=    0.000
 RMSDP=1.15D-06 MaxDP=3.95D-05 DE=-3.33D-09 OVMax= 6.41D-05

 Cycle  21  Pass 1  IDiag  1:
 Restarting incremental Fock formation.
 E= -3010.54940480776     Delta-E=       -0.000000001018 Rises=F Damp=F
 DIIS: error= 1.83D-07 at cycle  21 NSaved=  20.
 NSaved=20 IEnMin=20 EnMin= -3010.54940480776     IErMin=20 ErrMin= 1.83D-07
 ErrMax= 1.83D-07  0.00D+00 EMaxC= 1.00D-01 BMatC= 8.63D-12 BMatP= 5.35D-11
 IDIUse=1 WtCom= 1.00D+00 WtEn= 0.00D+00
 Coeff-Com:  0.134D-06-0.191D-06-0.772D-06 0.801D-07-0.241D-06 0.752D-06
 Coeff-Com:  0.300D-05-0.384D-04-0.509D-04 0.322D-03 0.220D-03-0.124D-02
 Coeff-Com: -0.165D-02-0.168D-02 0.124D-01 0.423D-01-0.992D-01-0.151D+00
 Coeff-Com:  0.209D+00 0.990D+00
 Coeff:      0.134D-06-0.191D-06-0.772D-06 0.801D-07-0.241D-06 0.752D-06
 Coeff:      0.300D-05-0.384D-04-0.509D-04 0.322D-03 0.220D-03-0.124D-02
 Coeff:     -0.165D-02-0.168D-02 0.124D-01 0.423D-01-0.992D-01-0.151D+00
 Coeff:      0.209D+00 0.990D+00
 Gap=     0.187 Goal=   None    Shift=    0.000
 RMSDP=3.33D-07 MaxDP=1.14D-05 DE=-1.02D-09 OVMax= 1.95D-05

 Cycle  22  Pass 1  IDiag  1:
 RMSU=  3.33D-07    CP:  1.00D+00
 E= -3010.54940480787     Delta-E=       -0.000000000107 Rises=F Damp=F
 DIIS: error= 7.39D-08 at cycle  22 NSaved=  20.
 NSaved=20 IEnMin=20 EnMin= -3010.54940480787     IErMin=20 ErrMin= 7.39D-08
 ErrMax= 7.39D-08  0.00D+00 EMaxC= 1.00D-01 BMatC= 1.86D-12 BMatP= 8.63D-12
 IDIUse=1 WtCom= 1.00D+00 WtEn= 0.00D+00
 Coeff-Com: -0.215D-07 0.166D-06-0.251D-06 0.236D-05-0.677D-07-0.651D-05
 Coeff-Com: -0.121D-04-0.161D-04-0.579D-04 0.695D-04 0.192D-03 0.100D-03
 Coeff-Com: -0.254D-02-0.137D-02 0.151D-01 0.339D-01-0.763D-01-0.123D+00
 Coeff-Com:  0.278D+00 0.876D+00
 Coeff:     -0.215D-07 0.166D-06-0.251D-06 0.236D-05-0.677D-07-0.651D-05
 Coeff:     -0.121D-04-0.161D-04-0.579D-04 0.695D-04 0.192D-03 0.100D-03
 Coeff:     -0.254D-02-0.137D-02 0.151D-01 0.339D-01-0.763D-01-0.123D+00
 Coeff:      0.278D+00 0.876D+00
 Gap=     0.187 Goal=   None    Shift=    0.000
 RMSDP=1.37D-07 MaxDP=5.43D-06 DE=-1.07D-10 OVMax= 6.41D-06

 Cycle  23  Pass 1  IDiag  1:
 RMSU=  7.96D-08    CP:  1.00D+00  1.33D+00
 E= -3010.54940480792     Delta-E=       -0.000000000058 Rises=F Damp=F
 DIIS: error= 4.44D-08 at cycle  23 NSaved=  20.
 NSaved=20 IEnMin=20 EnMin= -3010.54940480792     IErMin=20 ErrMin= 4.44D-08
 ErrMax= 4.44D-08  0.00D+00 EMaxC= 1.00D-01 BMatC= 5.40D-13 BMatP= 1.86D-12
 IDIUse=1 WtCom= 1.00D+00 WtEn= 0.00D+00
 Coeff-Com:  0.298D-06-0.185D-06 0.521D-06-0.126D-05-0.232D-05 0.106D-04
 Coeff-Com:  0.145D-04-0.530D-04-0.285D-04 0.259D-03 0.355D-03-0.125D-03
 Coeff-Com: -0.219D-02-0.413D-02 0.255D-01 0.502D-02-0.707D-01-0.948D-01
 Coeff-Com:  0.263D+00 0.878D+00
 Coeff:      0.298D-06-0.185D-06 0.521D-06-0.126D-05-0.232D-05 0.106D-04
 Coeff:      0.145D-04-0.530D-04-0.285D-04 0.259D-03 0.355D-03-0.125D-03
 Coeff:     -0.219D-02-0.413D-02 0.255D-01 0.502D-02-0.707D-01-0.948D-01
 Coeff:      0.263D+00 0.878D+00
 Gap=     0.187 Goal=   None    Shift=    0.000
 RMSDP=5.13D-08 MaxDP=3.08D-06 DE=-5.78D-11 OVMax= 2.05D-06

 Cycle  24  Pass 1  IDiag  1:
 RMSU=  3.37D-08    CP:  1.00D+00  1.45D+00  9.06D-01
 E= -3010.54940480791     Delta-E=        0.000000000010 Rises=F Damp=F
 DIIS: error= 2.08D-08 at cycle  24 NSaved=  20.
 NSaved=20 IEnMin=19 EnMin= -3010.54940480792     IErMin=20 ErrMin= 2.08D-08
 ErrMax= 2.08D-08  0.00D+00 EMaxC= 1.00D-01 BMatC= 9.46D-14 BMatP= 5.40D-13
 IDIUse=1 WtCom= 1.00D+00 WtEn= 0.00D+00
 Coeff-Com: -0.445D-07-0.225D-06 0.612D-06 0.689D-06-0.411D-06 0.290D-06
 Coeff-Com:  0.524D-05-0.377D-05 0.417D-05-0.639D-04 0.452D-03 0.586D-03
 Coeff-Com: -0.286D-02-0.114D-01 0.184D-01 0.378D-01-0.727D-01-0.252D+00
 Coeff-Com:  0.103D+00 0.118D+01
 Coeff:     -0.445D-07-0.225D-06 0.612D-06 0.689D-06-0.411D-06 0.290D-06
 Coeff:      0.524D-05-0.377D-05 0.417D-05-0.639D-04 0.452D-03 0.586D-03
 Coeff:     -0.286D-02-0.114D-01 0.184D-01 0.378D-01-0.727D-01-0.252D+00
 Coeff:      0.103D+00 0.118D+01
 Gap=     0.187 Goal=   None    Shift=    0.000
 RMSDP=3.06D-08 MaxDP=2.07D-06 DE= 9.55D-12 OVMax= 1.29D-06

 Cycle  25  Pass 1  IDiag  1:
 RMSU=  1.22D-08    CP:  1.00D+00  1.51D+00  9.93D-01  1.49D+00
 E= -3010.54940480788     Delta-E=        0.000000000036 Rises=F Damp=F
 DIIS: error= 9.89D-09 at cycle  25 NSaved=  20.
 NSaved=20 IEnMin=18 EnMin= -3010.54940480792     IErMin=20 ErrMin= 9.89D-09
 ErrMax= 9.89D-09  0.00D+00 EMaxC= 1.00D-01 BMatC= 1.41D-14 BMatP= 9.46D-14
 IDIUse=1 WtCom= 1.00D+00 WtEn= 0.00D+00
 Coeff-Com:  0.844D-07 0.253D-06-0.190D-06-0.259D-05-0.214D-05 0.231D-05
 Coeff-Com:  0.106D-04 0.158D-05-0.250D-04-0.115D-05-0.501D-04-0.111D-03
 Coeff-Com:  0.663D-03 0.186D-03 0.165D-02 0.131D-02-0.563D-01-0.542D-01
 Coeff-Com:  0.816D-01 0.103D+01
 Coeff:      0.844D-07 0.253D-06-0.190D-06-0.259D-05-0.214D-05 0.231D-05
 Coeff:      0.106D-04 0.158D-05-0.250D-04-0.115D-05-0.501D-04-0.111D-03
 Coeff:      0.663D-03 0.186D-03 0.165D-02 0.131D-02-0.563D-01-0.542D-01
 Coeff:      0.816D-01 0.103D+01
 Gap=     0.187 Goal=   None    Shift=    0.000
 RMSDP=1.29D-08 MaxDP=1.03D-06 DE= 3.59D-11 OVMax= 4.40D-07

 Cycle  26  Pass 1  IDiag  1:
 RMSU=  4.70D-09    CP:  1.00D+00  1.53D+00  1.01D+00  1.69D+00  1.30D+00
 E= -3010.54940480794     Delta-E=       -0.000000000059 Rises=F Damp=F
 DIIS: error= 7.01D-09 at cycle  26 NSaved=  20.
 NSaved=20 IEnMin=20 EnMin= -3010.54940480794     IErMin=20 ErrMin= 7.01D-09
 ErrMax= 7.01D-09  0.00D+00 EMaxC= 1.00D-01 BMatC= 4.28D-15 BMatP= 1.41D-14
 IDIUse=1 WtCom= 1.00D+00 WtEn= 0.00D+00
 Large coefficients: NSaved= 20 BigCof=    0.00 CofMax=   10.00 Det=-7.05D-15
 Inversion failed.  Reducing to 19 matrices.
 Large coefficients: NSaved= 19 BigCof=    0.00 CofMax=   10.00 Det=-7.05D-15
 Inversion failed.  Reducing to 18 matrices.
 Large coefficients: NSaved= 18 BigCof=    0.00 CofMax=   10.00 Det=-7.15D-15
 Inversion failed.  Reducing to 17 matrices.
 Large coefficients: NSaved= 17 BigCof=    0.00 CofMax=   10.00 Det=-7.17D-15
 Inversion failed.  Reducing to 16 matrices.
 Large coefficients: NSaved= 16 BigCof=    0.00 CofMax=   10.00 Det=-7.26D-15
 Inversion failed.  Reducing to 15 matrices.
 Coeff-Com: -0.357D-05-0.376D-05 0.853D-05 0.812D-05-0.732D-04 0.195D-03
 Coeff-Com:  0.678D-03-0.236D-02-0.285D-02 0.177D-01 0.212D-01-0.261D-01
 Coeff-Com: -0.204D+00 0.110D+00 0.109D+01
 Coeff:     -0.357D-05-0.376D-05 0.853D-05 0.812D-05-0.732D-04 0.195D-03
 Coeff:      0.678D-03-0.236D-02-0.285D-02 0.177D-01 0.212D-01-0.261D-01
 Coeff:     -0.204D+00 0.110D+00 0.109D+01
 Gap=     0.187 Goal=   None    Shift=    0.000
 RMSDP=7.46D-09 MaxDP=5.75D-07 DE=-5.91D-11 OVMax= 2.74D-07

 SCF Done:  E(RwB97XD) =  -3010.54940481     A.U. after   26 cycles
            NFock= 26  Conv=0.75D-08     -V/T= 2.0016
 KE= 3.005857286668D+03 PE=-8.628752315428D+03 EE= 1.876614087156D+03
 Leave Link  502 at Wed May  1 14:54:02 2024, MaxMem=  1207959552 cpu:            1518.4 elap:            1518.6
 (Enter /software/gaussian/g16-c01/sse4/g16/l601.exe)
 Copying SCF densities to generalized density rwf, IOpCl= 0 IROHF=0.

 **********************************************************************

            Population analysis using the SCF Density.

 **********************************************************************

 Alpha  occ. eigenvalues -- -483.30086 -62.85135 -56.64791 -56.64271 -56.64267
 Alpha  occ. eigenvalues --  -19.36620 -19.36555 -14.76197 -10.56728 -10.54690
 Alpha  occ. eigenvalues --  -10.54020 -10.53114 -10.52497 -10.51211  -9.00958
 Alpha  occ. eigenvalues --   -6.83534  -6.81822  -6.81804  -2.93462  -2.93007
 Alpha  occ. eigenvalues --   -2.92991  -2.91621  -2.91621  -1.40323  -1.23193
 Alpha  occ. eigenvalues --   -1.19718  -1.11054  -1.08647  -1.02519  -0.96026
 Alpha  occ. eigenvalues --   -0.92581  -0.87191  -0.81485  -0.77270  -0.76114
 Alpha  occ. eigenvalues --   -0.73664  -0.73063  -0.71358  -0.69294  -0.66976
 Alpha  occ. eigenvalues --   -0.66513  -0.64085  -0.60871  -0.57809  -0.55691
 Alpha  occ. eigenvalues --   -0.53268  -0.47438  -0.45976  -0.45890
 Alpha virt. eigenvalues --   -0.27147  -0.15844  -0.14665  -0.13305  -0.09986
 Alpha virt. eigenvalues --   -0.08423  -0.07947  -0.06767  -0.03664  -0.03108
 Alpha virt. eigenvalues --   -0.02194  -0.00961  -0.00354   0.00023   0.00906
 Alpha virt. eigenvalues --    0.02347   0.02922   0.03327   0.04079   0.04464
 Alpha virt. eigenvalues --    0.05103   0.07102   0.07998   0.08418   0.09142
 Alpha virt. eigenvalues --    0.09425   0.10421   0.11197   0.11753   0.12581
 Alpha virt. eigenvalues --    0.13626   0.14569   0.15120   0.15904   0.16562
 Alpha virt. eigenvalues --    0.17767   0.18296   0.19155   0.20642   0.21788
 Alpha virt. eigenvalues --    0.22224   0.23104   0.24224   0.24814   0.26502
 Alpha virt. eigenvalues --    0.27468   0.29332   0.30073   0.30201   0.30781
 Alpha virt. eigenvalues --    0.31703   0.32169   0.33943   0.35406   0.36307
 Alpha virt. eigenvalues --    0.37002   0.38292   0.38831   0.40115   0.41177
 Alpha virt. eigenvalues --    0.42529   0.43544   0.43899   0.45359   0.46193
 Alpha virt. eigenvalues --    0.47276   0.48597   0.49283   0.50008   0.51717
 Alpha virt. eigenvalues --    0.52926   0.53126   0.53431   0.55607   0.56830
 Alpha virt. eigenvalues --    0.58979   0.58998   0.60344   0.62326   0.63428
 Alpha virt. eigenvalues --    0.63945   0.65989   0.66467   0.68541   0.69924
 Alpha virt. eigenvalues --    0.72758   0.73677   0.75463   0.76153   0.77613
 Alpha virt. eigenvalues --    0.80382   0.83678   0.85654   0.87450   0.88502
 Alpha virt. eigenvalues --    0.89479   0.93627   0.96669   0.98964   1.04799
 Alpha virt. eigenvalues --    1.05276   1.07910   1.08637   1.10597   1.11555
 Alpha virt. eigenvalues --    1.14539   1.17664   1.21267   1.22171   1.24847
 Alpha virt. eigenvalues --    1.29799   1.31513   1.33310   1.36274   1.39813
 Alpha virt. eigenvalues --    1.40381   1.40943   1.48020   1.58252   1.60980
 Alpha virt. eigenvalues --    1.62425   1.62645   1.66415   1.68437   1.69439
 Alpha virt. eigenvalues --    1.73211   1.75660   1.76212   1.81519   1.82645
 Alpha virt. eigenvalues --    1.83880   1.90455   1.91741   1.94586   1.97133
 Alpha virt. eigenvalues --    2.02452   2.06777   2.08084   2.10427   2.11418
 Alpha virt. eigenvalues --    2.13081   2.17806   2.23543   2.27990   2.32256
 Alpha virt. eigenvalues --    2.41270   2.46383   2.47457   2.48930   2.55441
 Alpha virt. eigenvalues --    2.59590   2.66517   2.69476   2.71820   2.78112
 Alpha virt. eigenvalues --    2.81396   2.83205   2.84822   2.85818   2.90564
 Alpha virt. eigenvalues --    2.96162   2.99613   3.07974   3.10072   3.12980
 Alpha virt. eigenvalues --    3.16154   3.18797   3.22689   3.27568   3.32414
 Alpha virt. eigenvalues --    3.37004   3.44616   3.50418   3.56372   3.60187
 Alpha virt. eigenvalues --    3.64957   3.78892   3.83419   3.85397   3.90603
 Alpha virt. eigenvalues --    4.09808   4.10051   4.17786   4.22916   4.43815
 Alpha virt. eigenvalues --    4.54059   4.60425   4.68113   5.02990   5.05750
 Alpha virt. eigenvalues --    5.14368   5.18528   5.72158   6.25477   6.65568
 Alpha virt. eigenvalues --    7.48477   7.50054   7.59965  23.24119  23.64231
 Alpha virt. eigenvalues --   23.71436  23.82688  23.98548  24.05059  35.41743
 Alpha virt. eigenvalues --   47.92277  49.94858  50.03671 289.81631 289.83299
 Alpha virt. eigenvalues --  289.957691020.92737
          Condensed to atoms (all electrons):
               1          2          3          4          5          6
     1  C   10.611518  -3.530973   0.259658  -2.292987  -1.009574   0.301726
     2  C   -3.530973  14.723474  -2.419539  -1.527198   0.455205   0.020894
     3  C    0.259658  -2.419539  14.506394  -4.559910  -1.340064   0.028901
     4  C   -2.292987  -1.527198  -4.559910  18.127733   1.074075   0.013697
     5  C   -1.009574   0.455205  -1.340064   1.074075   9.040913  -0.019568
     6  H    0.301726   0.020894   0.028901   0.013697  -0.019568   0.374984
     7  H    0.111621   0.175391   0.074032  -0.039828  -0.016341  -0.001717
     8  H    0.012564  -0.026885   0.102042   0.160894  -0.036654  -0.000003
     9  H    0.075819  -0.055840   0.021405  -0.022900   0.231512  -0.003655
    10  N   -0.278775   0.462268  -0.993675   0.454985  -0.009821  -0.000710
    11  O   -0.004803  -0.158188  -0.256118   0.042220  -0.077869  -0.000029
    12  O    0.461290  -0.036192  -0.255022  -0.214504  -0.045338   0.000106
    13  C    1.822619  -2.574091   1.509427  -5.501188  -2.249497  -0.009340
    14  H   -0.037600   0.023593  -0.015765  -0.091489   0.094467  -0.000026
    15  Br   0.019043   0.049626  -0.030255   0.046902  -0.056878  -0.000234
               7          8          9         10         11         12
     1  C    0.111621   0.012564   0.075819  -0.278775  -0.004803   0.461290
     2  C    0.175391  -0.026885  -0.055840   0.462268  -0.158188  -0.036192
     3  C    0.074032   0.102042   0.021405  -0.993675  -0.256118  -0.255022
     4  C   -0.039828   0.160894  -0.022900   0.454985   0.042220  -0.214504
     5  C   -0.016341  -0.036654   0.231512  -0.009821  -0.077869  -0.045338
     6  H   -0.001717  -0.000003  -0.003655  -0.000710  -0.000029   0.000106
     7  H    0.274954   0.000011   0.000042  -0.028773  -0.001620   0.033677
     8  H    0.000011   0.268775   0.000106  -0.026033   0.032091  -0.000637
     9  H    0.000042   0.000106   0.420323   0.000210   0.000018   0.000013
    10  N   -0.028773  -0.026033   0.000210   7.769372   0.029425  -0.002090
    11  O   -0.001620   0.032091   0.000018   0.029425   7.845343   0.020024
    12  O    0.033677  -0.000637   0.000013  -0.002090   0.020024   7.880392
    13  C    0.020996   0.107831   0.076048  -0.268924   0.410564   0.038621
    14  H   -0.000027  -0.002660  -0.007953   0.001511  -0.000477  -0.000087
    15  Br   0.000121   0.008451   0.002245   0.010595  -0.000283   0.002202
              13         14         15
     1  C    1.822619  -0.037600   0.019043
     2  C   -2.574091   0.023593   0.049626
     3  C    1.509427  -0.015765  -0.030255
     4  C   -5.501188  -0.091489   0.046902
     5  C   -2.249497   0.094467  -0.056878
     6  H   -0.009340  -0.000026  -0.000234
     7  H    0.020996  -0.000027   0.000121
     8  H    0.107831  -0.002660   0.008451
     9  H    0.076048  -0.007953   0.002245
    10  N   -0.268924   0.001511   0.010595
    11  O    0.410564  -0.000477  -0.000283
    12  O    0.038621  -0.000087   0.002202
    13  C   12.665861   0.339266   0.096967
    14  H    0.339266   0.375289  -0.051988
    15  Br   0.096967  -0.051988  34.825827
 Mulliken charges:
               1
     1  C   -0.521148
     2  C    0.418454
     3  C   -0.631511
     4  C    0.329499
     5  C   -0.034566
     6  H    0.294975
     7  H    0.397461
     8  H    0.400105
     9  H    0.262609
    10  N   -0.119566
    11  O    0.119702
    12  O    0.117545
    13  C   -0.485162
    14  H    0.373947
    15  Br   0.077659
 Sum of Mulliken charges =   1.00000
 Mulliken charges with hydrogens summed into heavy atoms:
               1
     1  C   -0.226174
     2  C    0.815915
     3  C   -0.631511
     4  C    0.729604
     5  C    0.228042
    10  N   -0.119566
    11  O    0.119702
    12  O    0.117545
    13  C   -0.111215
    15  Br   0.077659
 Electronic spatial extent (au):  <R**2>=           2790.3711
 Charge=              1.0000 electrons
 Dipole moment (field-independent basis, Debye):
    X=              4.8021    Y=              0.0262    Z=              0.4218  Tot=              4.8207
 Quadrupole moment (field-independent basis, Debye-Ang):
   XX=            -58.3017   YY=            -52.7022   ZZ=            -64.0874
   XY=              0.3070   XZ=             -0.3479   YZ=              0.3947
 Traceless Quadrupole moment (field-independent basis, Debye-Ang):
   XX=              0.0621   YY=              5.6616   ZZ=             -5.7237
   XY=              0.3070   XZ=             -0.3479   YZ=              0.3947
 Octapole moment (field-independent basis, Debye-Ang**2):
  XXX=           -222.1581  YYY=             92.2741  ZZZ=             80.9151  XYY=            -63.0550
  XXY=             32.7586  XXZ=             32.8127  XZZ=            -71.9902  YZZ=             19.4375
  YYZ=             28.2637  XYZ=             -0.6956
 Hexadecapole moment (field-independent basis, Debye-Ang**3):
 XXXX=          -1956.7663 YYYY=           -688.6589 ZZZZ=           -359.0860 XXXY=            -69.6282
 XXXZ=            -31.3805 YYYX=            -66.5528 YYYZ=           -163.9414 ZZZX=            -25.8924
 ZZZY=           -143.5041 XXYY=           -432.8594 XXZZ=           -367.0406 YYZZ=           -170.8681
 XXYZ=            -58.3579 YYXZ=             -8.5560 ZZXY=            -14.1842
 N-N= 7.357315367960D+02 E-N=-8.628752315309D+03  KE= 3.005857286668D+03
 No NMR shielding tensors so no spin-rotation constants.
 Leave Link  601 at Wed May  1 14:54:09 2024, MaxMem=  1207959552 cpu:               7.4 elap:               7.4
 (Enter /software/gaussian/g16-c01/sse4/g16/l9999.exe)
 Unable to Open any file for archive entry.
 1\1\GINC-BHX0006\SP\RwB97XD\6-311+G(d)\C6H5Br1N1O2(1+)\BWEIGHT\01-May-
 2024\0\\#P wB97XD/6-311+G* NoSymm #P Field=X-184\\TitleMe\\1,1\C,0,0.0
 295,1.3397,0.0682\C,0,1.4348,1.2867,0.0064\C,0,2.1118,0.0511,-0.0054\C
 ,0,1.4451,-1.1372,0.0312\C,0,-0.6879,0.1682,0.11\H,0,-0.4713,2.2984,0.
 0781\H,0,2.0273,2.1965,-0.0322\H,0,1.9897,-2.0764,0.0232\H,0,-1.7716,0
 .1804,0.1582\N,0,3.5864,0.051,-0.0675\O,0,4.1471,-1.0597,-0.0881\O,0,4
 .145,1.1639,-0.0901\C,0,-0.0236,-1.1458,0.0835\H,0,-0.4367,-1.8725,0.7
 889\Br,0,-0.5359,-1.8697,-1.7408\\Version=ES64L-G16RevC.01\HF=-3010.54
 94048\RMSD=7.457e-09\Dipole=-0.0172424,1.1583921,1.312109\Quadrupole=0
 .0461616,4.2092459,-4.2554075,0.228283,-0.2586213,0.2934364\PG=C01 [X(
 C6H5Br1N1O2)]\\@
 The archive entry for this job was punched.


 PERICLES, SOPHOCLES,
 PELOPONESIAN WAR,
 FRENCH VERBS, LATIN VERBS
 H2SO4.
 Job cpu time:       0 days  0 hours 26 minutes 27.6 seconds.
 Elapsed time:       0 days  0 hours 26 minutes 27.8 seconds.
 File lengths (MBytes):  RWF=     40 Int=      0 D2E=      0 Chk=     32 Scr=      1
 Normal termination of Gaussian 16 at Wed May  1 14:54:10 2024.
