 Entering Gaussian System, Link 0=g16
 Initial command:
 /software/gaussian/g16-c01/sse4/g16/l1.exe "/local_scratch/24657562/Gau-16637.inp" -scrdir="/local_scratch/24657562/"
 Entering Link 1 = /software/gaussian/g16-c01/sse4/g16/l1.exe PID=     16648.
  
 Copyright (c) 1988-2019, Gaussian, Inc.  All Rights Reserved.
  
 This is part of the Gaussian(R) 16 program.  It is based on
 the Gaussian(R) 09 system (copyright 2009, Gaussian, Inc.),
 the Gaussian(R) 03 system (copyright 2003, Gaussian, Inc.),
 the Gaussian(R) 98 system (copyright 1998, Gaussian, Inc.),
 the Gaussian(R) 94 system (copyright 1995, Gaussian, Inc.),
 the Gaussian 92(TM) system (copyright 1992, Gaussian, Inc.),
 the Gaussian 90(TM) system (copyright 1990, Gaussian, Inc.),
 the Gaussian 88(TM) system (copyright 1988, Gaussian, Inc.),
 the Gaussian 86(TM) system (copyright 1986, Carnegie Mellon
 University), and the Gaussian 82(TM) system (copyright 1983,
 Carnegie Mellon University). Gaussian is a federally registered
 trademark of Gaussian, Inc.
  
 This software contains proprietary and confidential information,
 including trade secrets, belonging to Gaussian, Inc.
  
 This software is provided under written license and may be
 used, copied, transmitted, or stored only in accord with that
 written license.
  
 The following legend is applicable only to US Government
 contracts under FAR:
  
                    RESTRICTED RIGHTS LEGEND
  
 Use, reproduction and disclosure by the US Government is
 subject to restrictions as set forth in subparagraphs (a)
 and (c) of the Commercial Computer Software - Restricted
 Rights clause in FAR 52.227-19.
  
 Gaussian, Inc.
 340 Quinnipiac St., Bldg. 40, Wallingford CT 06492
  
  
 ---------------------------------------------------------------
 Warning -- This program may not be used in any manner that
 competes with the business of Gaussian, Inc. or will provide
 assistance to any competitor of Gaussian, Inc.  The licensee
 of this program is prohibited from giving any competitor of
 Gaussian, Inc. access to this program.  By using this program,
 the user acknowledges that Gaussian, Inc. is engaged in the
 business of creating and licensing software in the field of
 computational chemistry and represents and warrants to the
 licensee that it is not a competitor of Gaussian, Inc. and that
 it will not use this program in any manner prohibited above.
 ---------------------------------------------------------------
  

 Cite this work as:
 Gaussian 16, Revision C.01,
 M. J. Frisch, G. W. Trucks, H. B. Schlegel, G. E. Scuseria, 
 M. A. Robb, J. R. Cheeseman, G. Scalmani, V. Barone, 
 G. A. Petersson, H. Nakatsuji, X. Li, M. Caricato, A. V. Marenich, 
 J. Bloino, B. G. Janesko, R. Gomperts, B. Mennucci, H. P. Hratchian, 
 J. V. Ortiz, A. F. Izmaylov, J. L. Sonnenberg, D. Williams-Young, 
 F. Ding, F. Lipparini, F. Egidi, J. Goings, B. Peng, A. Petrone, 
 T. Henderson, D. Ranasinghe, V. G. Zakrzewski, J. Gao, N. Rega, 
 G. Zheng, W. Liang, M. Hada, M. Ehara, K. Toyota, R. Fukuda, 
 J. Hasegawa, M. Ishida, T. Nakajima, Y. Honda, O. Kitao, H. Nakai, 
 T. Vreven, K. Throssell, J. A. Montgomery, Jr., J. E. Peralta, 
 F. Ogliaro, M. J. Bearpark, J. J. Heyd, E. N. Brothers, K. N. Kudin, 
 V. N. Staroverov, T. A. Keith, R. Kobayashi, J. Normand, 
 K. Raghavachari, A. P. Rendell, J. C. Burant, S. S. Iyengar, 
 J. Tomasi, M. Cossi, J. M. Millam, M. Klene, C. Adamo, R. Cammi, 
 J. W. Ochterski, R. L. Martin, K. Morokuma, O. Farkas, 
 J. B. Foresman, and D. J. Fox, Gaussian, Inc., Wallingford CT, 2019.
 
 ******************************************
 Gaussian 16:  ES64L-G16RevC.01  3-Jul-2019
                 1-May-2024 
 ******************************************
 %chk=geometry.chk
 %mem=9GB
 %nprocshared=12
 Will use up to   12 processors via shared memory.
 --------------------------------------
 #P wB97XD/6-311+G* NoSymm #P Field=Z+9
 --------------------------------------
 1/38=1,172=1/1;
 2/12=2,15=1,17=6,18=5,40=1/2;
 3/5=4,6=6,7=11,11=2,14=3,15=9,25=1,30=1,74=-58/1,2,3;
 4//1;
 5/5=2,38=5/2;
 6/7=2,8=2,9=2,10=2,28=1/1;
 99/5=1,9=1/99;
 Leave Link    1 at Wed May  1 15:07:01 2024, MaxMem=  1207959552 cpu:               1.3 elap:               1.3
 (Enter /software/gaussian/g16-c01/sse4/g16/l101.exe)
 -------
 TitleMe
 -------
 Symbolic Z-matrix:
 Charge =  1 Multiplicity = 1
 C                     0.0295    1.3397    0.0682 
 C                     1.4348    1.2867    0.0064 
 C                     2.1118    0.0511   -0.0054 
 C                     1.4451   -1.1372    0.0312 
 C                    -0.6879    0.1682    0.11 
 H                    -0.4713    2.2984    0.0781 
 H                     2.0273    2.1965   -0.0322 
 H                     1.9897   -2.0764    0.0232 
 H                    -1.7716    0.1804    0.1582 
 N                     3.5864    0.051    -0.0675 
 O                     4.1471   -1.0597   -0.0881 
 O                     4.145     1.1639   -0.0901 
 C                    -0.0236   -1.1458    0.0835 
 H                    -0.4367   -1.8725    0.7889 
 Br                   -0.5359   -1.8697   -1.7408 
 
 ITRead=  0  0  0  0  0  0  0  0  0  0  0  0  0  0  0
 MicOpt= -1 -1 -1 -1 -1 -1 -1 -1 -1 -1 -1 -1 -1 -1 -1
 NAtoms=     15 NQM=       15 NQMF=       0 NMMI=      0 NMMIF=      0
                NMic=       0 NMicF=      0.
                    Isotopes and Nuclear Properties:
 (Nuclear quadrupole moments (NQMom) in fm**2, nuclear magnetic moments (NMagM)
  in nuclear magnetons)

  Atom         1           2           3           4           5           6           7           8           9          10
 IAtWgt=          12          12          12          12          12           1           1           1           1          14
 AtmWgt=  12.0000000  12.0000000  12.0000000  12.0000000  12.0000000   1.0078250   1.0078250   1.0078250   1.0078250  14.0030740
 NucSpn=           0           0           0           0           0           1           1           1           1           2
 AtZEff=  -0.0000000  -0.0000000  -0.0000000  -0.0000000  -0.0000000  -0.0000000  -0.0000000  -0.0000000  -0.0000000  -0.0000000
 NQMom=    0.0000000   0.0000000   0.0000000   0.0000000   0.0000000   0.0000000   0.0000000   0.0000000   0.0000000   2.0440000
 NMagM=    0.0000000   0.0000000   0.0000000   0.0000000   0.0000000   2.7928460   2.7928460   2.7928460   2.7928460   0.4037610
 AtZNuc=   6.0000000   6.0000000   6.0000000   6.0000000   6.0000000   1.0000000   1.0000000   1.0000000   1.0000000   7.0000000

  Atom        11          12          13          14          15
 IAtWgt=          16          16          12           1          79
 AtmWgt=  15.9949146  15.9949146  12.0000000   1.0078250  78.9183361
 NucSpn=           0           0           0           1           3
 AtZEff=  -0.0000000  -0.0000000  -0.0000000  -0.0000000  -0.0000000
 NQMom=    0.0000000   0.0000000   0.0000000   0.0000000  31.3000000
 NMagM=    0.0000000   0.0000000   0.0000000   2.7928460   2.1063990
 AtZNuc=   8.0000000   8.0000000   6.0000000   1.0000000  35.0000000
 Leave Link  101 at Wed May  1 15:07:03 2024, MaxMem=  1207959552 cpu:               1.4 elap:               1.4
 (Enter /software/gaussian/g16-c01/sse4/g16/l202.exe)
                          Input orientation:                          
 ---------------------------------------------------------------------
 Center     Atomic      Atomic             Coordinates (Angstroms)
 Number     Number       Type             X           Y           Z
 ---------------------------------------------------------------------
      1          6           0        0.029500    1.339700    0.068200
      2          6           0        1.434800    1.286700    0.006400
      3          6           0        2.111800    0.051100   -0.005400
      4          6           0        1.445100   -1.137200    0.031200
      5          6           0       -0.687900    0.168200    0.110000
      6          1           0       -0.471300    2.298400    0.078100
      7          1           0        2.027300    2.196500   -0.032200
      8          1           0        1.989700   -2.076400    0.023200
      9          1           0       -1.771600    0.180400    0.158200
     10          7           0        3.586400    0.051000   -0.067500
     11          8           0        4.147100   -1.059700   -0.088100
     12          8           0        4.145000    1.163900   -0.090100
     13          6           0       -0.023600   -1.145800    0.083500
     14          1           0       -0.436700   -1.872500    0.788900
     15         35           0       -0.535900   -1.869700   -1.740800
 ---------------------------------------------------------------------
                    Distance matrix (angstroms):
                    1          2          3          4          5
     1  C    0.000000
     2  C    1.407656   0.000000
     3  C    2.449874   1.408963   0.000000
     4  C    2.853126   2.424049   1.363043   0.000000
     5  C    1.374344   2.401589   2.804523   2.501993   0.000000
     6  H    1.081667   2.159142   3.424870   3.934226   2.141421
     7  H    2.176095   1.086408   2.147231   3.384750   3.392128
     8  H    3.938800   3.408612   2.131193   1.085702   3.495040
     9  H    2.143837   3.395283   3.888995   3.478413   1.084840
    10  N    3.785591   2.482297   1.475907   2.450862   4.279589
    11  O    4.768247   3.587631   2.320164   2.705743   4.992415
    12  O    4.122294   2.714696   2.319353   3.549540   4.938459
    13  C    2.486114   2.837240   2.449573   1.469656   1.472614
    14  H    3.324903   3.754379   3.290289   2.157764   2.165286
    15  Br   3.727252   4.110867   3.702891   2.756973   2.757100
                    6          7          8          9         10
     6  H    0.000000
     7  H    2.503108   0.000000
     8  H    5.019802   4.273425   0.000000
     9  H    2.486588   4.304945   4.388479   0.000000
    10  N    4.640790   2.652397   2.661486   5.364313   0.000000
    11  O    5.712624   3.885809   2.387560   6.052233   1.244373
    12  O    4.756638   2.356750   3.893289   6.002923   1.245428
    13  C    3.473180   3.923079   2.218790   2.195425   3.806210
    14  H    4.231175   4.827242   2.552506   2.528663   4.540772
    15  Br   4.548146   5.101303   3.087568   3.055498   4.845862
                   11         12         13         14         15
    11  O    0.000000
    12  O    2.223602   0.000000
    13  C    4.175117   4.768865   0.000000
    14  H    4.737193   5.566358   1.093770   0.000000
    15  Br   5.031700   5.817075   2.028436   2.531646   0.000000
 Symmetry turned off by external request.
 Stoichiometry    C6H5BrNO2(1+)
 Framework group  C1[X(C6H5BrNO2)]
 Deg. of freedom    39
 Full point group                 C1      NOp   1
 Rotational constants (GHZ):           1.8252210           0.5518633           0.4576002
 Leave Link  202 at Wed May  1 15:07:04 2024, MaxMem=  1207959552 cpu:               1.2 elap:               1.2
 (Enter /software/gaussian/g16-c01/sse4/g16/l301.exe)
 Standard basis: 6-311+G(d) (5D, 7F)
 Ernie: Thresh=  0.10000D-02 Tol=  0.10000D-05 Strict=F.
 The following finite field(s) will be applied:
 An electric field of              0.0000  0.0000  0.0009
   261 basis functions,   443 primitive gaussians,   273 cartesian basis functions
    49 alpha electrons       49 beta electrons
       nuclear repulsion energy       739.2122215416 Hartrees.
 IExCor= 4639 DFT=T Ex+Corr=wB97XD ExCW=0 ScaHFX=  1.000000
 ScaDFX=  1.000000  1.000000  1.000000  1.000000 ScalE2=  1.000000  1.000000
 IRadAn=      5 IRanWt=     -1 IRanGd=            0 ICorTp=0 IEmpDi=121
 HFx  wShort=  0.000000 wLong=  0.200000 cFull=  0.222036 cShort=  0.000000 cLong=  0.777964
 DFx  wShort=  0.000000 wLong=  0.200000 cFull=  0.000000 cShort=  0.000000 cLong=  1.000000
 NAtoms=   15 NActive=   15 NUniq=   15 SFac= 1.00D+00 NAtFMM=   60 NAOKFM=F Big=F
 Integral buffers will be    131072 words long.
 Raffenetti 2 integral format.
 Two-electron integral symmetry is turned off.
 R6Disp:  Grimme-D2 Dispersion energy=       -0.0077368520 Hartrees.
 Nuclear repulsion after empirical dispersion term =      739.2044846896 Hartrees.
 Leave Link  301 at Wed May  1 15:07:05 2024, MaxMem=  1207959552 cpu:               1.0 elap:               1.0
 (Enter /software/gaussian/g16-c01/sse4/g16/l302.exe)
 NPDir=0 NMtPBC=     1 NCelOv=     1 NCel=       1 NClECP=     1 NCelD=      1
         NCelK=      1 NCelE2=     1 NClLst=     1 CellRange=     0.0.
 One-electron integrals computed using PRISM.
 NBasis=   261 RedAO= T EigKep=  2.35D-06  NBF=   261
 NBsUse=   261 1.00D-06 EigRej= -1.00D+00 NBFU=   261
 Precomputing XC quadrature grid using
 IXCGrd= 4 IRadAn=           5 IRanWt=          -1 IRanGd=           0 AccXCQ= 0.00D+00.
 Generated NRdTot=       0 NPtTot=           0 NUsed=           0 NTot=          32
 NSgBfM=   273   273   273   273   273 MxSgAt=    15 MxSgA2=    15.
 Leave Link  302 at Wed May  1 15:07:26 2024, MaxMem=  1207959552 cpu:              21.2 elap:              21.2
 (Enter /software/gaussian/g16-c01/sse4/g16/l303.exe)
 DipDrv:  MaxL=1.
 The nuclear repulsion energy is now       739.1023603938 hartrees.
 Leave Link  303 at Wed May  1 15:07:29 2024, MaxMem=  1207959552 cpu:               3.3 elap:               3.3
 (Enter /software/gaussian/g16-c01/sse4/g16/l401.exe)
 ExpMin= 3.50D-02 ExpMax= 4.40D+05 ExpMxC= 1.51D+04 IAcc=3 IRadAn=         5 AccDes= 0.00D+00
 Harris functional with IExCor= 4639 and IRadAn=       5 diagonalized for initial guess.
 HarFok:  IExCor= 4639 AccDes= 0.00D+00 IRadAn=         5 IDoV= 1 UseB2=F ITyADJ=14
 ICtDFT=  3500011 ScaDFX=  1.000000  1.000000  1.000000  1.000000
 FoFCou: FMM=F IPFlag=           0 FMFlag=      100000 FMFlg1=           0
         NFxFlg=           0 DoJE=T BraDBF=F KetDBF=T FulRan=T
         wScrn=  0.000000 ICntrl=       500 IOpCl=  0 I1Cent=   200000004 NGrid=           0
         NMat0=    1 NMatS0=      1 NMatT0=    0 NMatD0=    1 NMtDS0=    0 NMtDT0=    0
 Symmetry not used in FoFCou.
 Harris En= -2970.59563747627    
 JPrj=0 DoOrth=F DoCkMO=F.
 Leave Link  401 at Wed May  1 15:08:00 2024, MaxMem=  1207959552 cpu:              30.1 elap:              30.1
 (Enter /software/gaussian/g16-c01/sse4/g16/l502.exe)
 Two-electron integral symmetry not used.
 Closed shell SCF:
 Using DIIS extrapolation, IDIIS=  1040.
 NGot=  1207959552 LenX=  1207804877 LenY=  1207729907
 Requested convergence on RMS density matrix=1.00D-08 within 128 cycles.
 Requested convergence on MAX density matrix=1.00D-06.
 Requested convergence on             energy=1.00D-06.
 No special actions if energy rises.
 Fock matrices will be formed incrementally for  20 cycles.

 Cycle   1  Pass 1  IDiag  1:
 FoFJK:  IHMeth= 1 ICntrl=       0 DoSepK=T KAlg= 0 I1Cent=           0 FoldK=F
 IRaf=         1 NMat=       1 IRICut=       1 DoRegI=T DoRafI=F ISym2E= 0 IDoP0=0 IntGTp=1.
 FoFCou: FMM=F IPFlag=           0 FMFlag=      100000 FMFlg1=           0
         NFxFlg=           0 DoJE=T BraDBF=F KetDBF=F FulRan=T
         wScrn=  0.000000 ICntrl=       500 IOpCl=  0 I1Cent=           0 NGrid=           0
         NMat0=    1 NMatS0=      1 NMatT0=    0 NMatD0=    1 NMtDS0=    0 NMtDT0=    0
 Symmetry not used in FoFCou.
 E= -3009.72616504646    
 DIIS: error= 3.20D-01 at cycle   1 NSaved=   1.
 NSaved= 1 IEnMin= 1 EnMin= -3009.72616504646     IErMin= 1 ErrMin= 3.20D-01
 ErrMax= 3.20D-01  0.00D+00 EMaxC= 1.00D-01 BMatC= 1.19D+01 BMatP= 1.19D+01
 IDIUse=3 WtCom= 0.00D+00 WtEn= 1.00D+00
 Coeff-Com:  0.100D+01
 Coeff-En:   0.100D+01
 Coeff:      0.100D+01
 Gap=     0.324 Goal=   None    Shift=    0.000
 GapD=    0.324 DampG=1.000 DampE=0.250 DampFc=0.2500 IDamp=-1.
 Damping current iteration by 2.50D-01
 RMSDP=4.08D-02 MaxDP=4.33D+00              OVMax= 2.55D-01

 Cycle   2  Pass 1  IDiag  1:
 RMSU=  4.01D-03    CP:  8.96D-01
 E= -3010.00855776220     Delta-E=       -0.282392715738 Rises=F Damp=T
 DIIS: error= 2.25D-01 at cycle   2 NSaved=   2.
 NSaved= 2 IEnMin= 2 EnMin= -3010.00855776220     IErMin= 2 ErrMin= 2.25D-01
 ErrMax= 2.25D-01  0.00D+00 EMaxC= 1.00D-01 BMatC= 5.45D+00 BMatP= 1.19D+01
 IDIUse=3 WtCom= 0.00D+00 WtEn= 1.00D+00
 Coeff-Com: -0.184D+01 0.284D+01
 Coeff-En:   0.000D+00 0.100D+01
 Coeff:      0.000D+00 0.100D+01
 Gap=     0.295 Goal=   None    Shift=    0.000
 RMSDP=3.20D-02 MaxDP=3.36D+00 DE=-2.82D-01 OVMax= 7.48D-02

 Cycle   3  Pass 1  IDiag  1:
 RMSU=  4.22D-03    CP:  5.61D-01  3.00D+00
 E= -3010.38638029358     Delta-E=       -0.377822531384 Rises=F Damp=F
 DIIS: error= 6.56D-02 at cycle   3 NSaved=   3.
 NSaved= 3 IEnMin= 3 EnMin= -3010.38638029358     IErMin= 3 ErrMin= 6.56D-02
 ErrMax= 6.56D-02  0.00D+00 EMaxC= 1.00D-01 BMatC= 7.31D-01 BMatP= 5.45D+00
 IDIUse=3 WtCom= 3.44D-01 WtEn= 6.56D-01
 Coeff-Com:  0.277D+01-0.364D+01 0.187D+01
 Coeff-En:   0.253D-01 0.000D+00 0.975D+00
 Coeff:      0.969D+00-0.125D+01 0.128D+01
 Gap=     0.261 Goal=   None    Shift=    0.000
 RMSDP=8.22D-03 MaxDP=4.40D-01 DE=-3.78D-01 OVMax= 6.57D-02

 Cycle   4  Pass 1  IDiag  1:
 RMSU=  4.47D-03    CP:  5.77D-01  2.13D+00  2.10D+00
 E= -3010.48953146353     Delta-E=       -0.103151169949 Rises=F Damp=F
 DIIS: error= 3.82D-02 at cycle   4 NSaved=   4.
 NSaved= 4 IEnMin= 4 EnMin= -3010.48953146353     IErMin= 4 ErrMin= 3.82D-02
 ErrMax= 3.82D-02  0.00D+00 EMaxC= 1.00D-01 BMatC= 2.29D-01 BMatP= 7.31D-01
 IDIUse=3 WtCom= 6.18D-01 WtEn= 3.82D-01
 Coeff-Com: -0.188D+00 0.263D+00 0.268D+00 0.656D+00
 Coeff-En:   0.000D+00 0.000D+00 0.195D+00 0.805D+00
 Coeff:     -0.116D+00 0.163D+00 0.240D+00 0.713D+00
 Gap=     0.263 Goal=   None    Shift=    0.000
 RMSDP=3.37D-03 MaxDP=2.83D-01 DE=-1.03D-01 OVMax= 2.78D-02

 Cycle   5  Pass 1  IDiag  1:
 RMSU=  1.17D-03    CP:  5.49D-01  2.53D+00  1.94D+00  8.90D-01
 E= -3010.53377751616     Delta-E=       -0.044246052630 Rises=F Damp=F
 DIIS: error= 6.85D-03 at cycle   5 NSaved=   5.
 NSaved= 5 IEnMin= 5 EnMin= -3010.53377751616     IErMin= 5 ErrMin= 6.85D-03
 ErrMax= 6.85D-03  0.00D+00 EMaxC= 1.00D-01 BMatC= 7.30D-03 BMatP= 2.29D-01
 IDIUse=3 WtCom= 9.32D-01 WtEn= 6.85D-02
 Coeff-Com: -0.136D+00 0.185D+00 0.381D-01 0.315D+00 0.598D+00
 Coeff-En:   0.000D+00 0.000D+00 0.000D+00 0.000D+00 0.100D+01
 Coeff:     -0.127D+00 0.172D+00 0.355D-01 0.294D+00 0.626D+00
 Gap=     0.255 Goal=   None    Shift=    0.000
 RMSDP=5.29D-04 MaxDP=3.41D-02 DE=-4.42D-02 OVMax= 1.04D-02

 Cycle   6  Pass 1  IDiag  1:
 RMSU=  4.12D-04    CP:  5.47D-01  2.51D+00  1.95D+00  8.84D-01  7.39D-01
 E= -3010.53524777823     Delta-E=       -0.001470262067 Rises=F Damp=F
 DIIS: error= 1.14D-03 at cycle   6 NSaved=   6.
 NSaved= 6 IEnMin= 6 EnMin= -3010.53524777823     IErMin= 6 ErrMin= 1.14D-03
 ErrMax= 1.14D-03  0.00D+00 EMaxC= 1.00D-01 BMatC= 1.45D-04 BMatP= 7.30D-03
 IDIUse=3 WtCom= 9.89D-01 WtEn= 1.14D-02
 Coeff-Com: -0.854D-01 0.115D+00-0.558D-02 0.141D+00 0.352D+00 0.483D+00
 Coeff-En:   0.000D+00 0.000D+00 0.000D+00 0.000D+00 0.000D+00 0.100D+01
 Coeff:     -0.844D-01 0.113D+00-0.552D-02 0.139D+00 0.348D+00 0.489D+00
 Gap=     0.255 Goal=   None    Shift=    0.000
 RMSDP=1.76D-04 MaxDP=1.16D-02 DE=-1.47D-03 OVMax= 4.57D-03

 Cycle   7  Pass 1  IDiag  1:
 RMSU=  1.04D-04    CP:  5.47D-01  2.50D+00  1.96D+00  8.91D-01  8.28D-01
                    CP:  8.82D-01
 E= -3010.53535014596     Delta-E=       -0.000102367729 Rises=F Damp=F
 DIIS: error= 5.33D-04 at cycle   7 NSaved=   7.
 NSaved= 7 IEnMin= 7 EnMin= -3010.53535014596     IErMin= 7 ErrMin= 5.33D-04
 ErrMax= 5.33D-04  0.00D+00 EMaxC= 1.00D-01 BMatC= 2.41D-05 BMatP= 1.45D-04
 IDIUse=3 WtCom= 9.95D-01 WtEn= 5.33D-03
 Coeff-Com: -0.356D-01 0.474D-01-0.131D-01 0.350D-01 0.108D+00 0.302D+00
 Coeff-Com:  0.557D+00
 Coeff-En:   0.000D+00 0.000D+00 0.000D+00 0.000D+00 0.000D+00 0.289D-01
 Coeff-En:   0.971D+00
 Coeff:     -0.354D-01 0.471D-01-0.130D-01 0.348D-01 0.108D+00 0.300D+00
 Coeff:      0.559D+00
 Gap=     0.256 Goal=   None    Shift=    0.000
 RMSDP=8.30D-05 MaxDP=5.68D-03 DE=-1.02D-04 OVMax= 2.37D-03

 Cycle   8  Pass 1  IDiag  1:
 RMSU=  4.89D-05    CP:  5.47D-01  2.49D+00  1.97D+00  8.97D-01  8.54D-01
                    CP:  9.42D-01  8.54D-01
 E= -3010.53537178990     Delta-E=       -0.000021643943 Rises=F Damp=F
 DIIS: error= 1.13D-04 at cycle   8 NSaved=   8.
 NSaved= 8 IEnMin= 8 EnMin= -3010.53537178990     IErMin= 8 ErrMin= 1.13D-04
 ErrMax= 1.13D-04  0.00D+00 EMaxC= 1.00D-01 BMatC= 2.37D-06 BMatP= 2.41D-05
 IDIUse=3 WtCom= 9.99D-01 WtEn= 1.13D-03
 Coeff-Com:  0.613D-02-0.840D-02-0.289D-02-0.160D-01-0.408D-01-0.238D-01
 Coeff-Com:  0.173D+00 0.913D+00
 Coeff-En:   0.000D+00 0.000D+00 0.000D+00 0.000D+00 0.000D+00 0.000D+00
 Coeff-En:   0.000D+00 0.100D+01
 Coeff:      0.612D-02-0.839D-02-0.289D-02-0.159D-01-0.407D-01-0.237D-01
 Coeff:      0.173D+00 0.913D+00
 Gap=     0.256 Goal=   None    Shift=    0.000
 RMSDP=5.68D-05 MaxDP=4.70D-03 DE=-2.16D-05 OVMax= 1.88D-03

 Cycle   9  Pass 1  IDiag  1:
 RMSU=  2.22D-05    CP:  5.47D-01  2.49D+00  1.97D+00  8.97D-01  8.59D-01
                    CP:  1.03D+00  1.05D+00  1.31D+00
 E= -3010.53537681608     Delta-E=       -0.000005026176 Rises=F Damp=F
 DIIS: error= 4.55D-05 at cycle   9 NSaved=   9.
 NSaved= 9 IEnMin= 9 EnMin= -3010.53537681608     IErMin= 9 ErrMin= 4.55D-05
 ErrMax= 4.55D-05  0.00D+00 EMaxC= 1.00D-01 BMatC= 2.35D-07 BMatP= 2.37D-06
 IDIUse=1 WtCom= 1.00D+00 WtEn= 0.00D+00
 Coeff-Com:  0.663D-02-0.890D-02 0.805D-03-0.972D-02-0.253D-01-0.499D-01
 Coeff-Com: -0.292D-01 0.277D+00 0.839D+00
 Coeff:      0.663D-02-0.890D-02 0.805D-03-0.972D-02-0.253D-01-0.499D-01
 Coeff:     -0.292D-01 0.277D+00 0.839D+00
 Gap=     0.256 Goal=   None    Shift=    0.000
 RMSDP=1.66D-05 MaxDP=1.06D-03 DE=-5.03D-06 OVMax= 8.42D-04

 Cycle  10  Pass 1  IDiag  1:
 RMSU=  6.93D-06    CP:  5.47D-01  2.48D+00  1.97D+00  8.97D-01  8.63D-01
                    CP:  1.05D+00  1.11D+00  1.43D+00  1.10D+00
 E= -3010.53537760429     Delta-E=       -0.000000788209 Rises=F Damp=F
 DIIS: error= 1.58D-05 at cycle  10 NSaved=  10.
 NSaved=10 IEnMin=10 EnMin= -3010.53537760429     IErMin=10 ErrMin= 1.58D-05
 ErrMax= 1.58D-05  0.00D+00 EMaxC= 1.00D-01 BMatC= 5.24D-08 BMatP= 2.35D-07
 IDIUse=1 WtCom= 1.00D+00 WtEn= 0.00D+00
 Coeff-Com:  0.420D-03-0.540D-03 0.348D-03-0.213D-03 0.119D-02-0.694D-02
 Coeff-Com: -0.312D-01-0.580D-01 0.234D+00 0.861D+00
 Coeff:      0.420D-03-0.540D-03 0.348D-03-0.213D-03 0.119D-02-0.694D-02
 Coeff:     -0.312D-01-0.580D-01 0.234D+00 0.861D+00
 Gap=     0.256 Goal=   None    Shift=    0.000
 RMSDP=8.14D-06 MaxDP=6.07D-04 DE=-7.88D-07 OVMax= 3.31D-04

 Cycle  11  Pass 1  IDiag  1:
 RMSU=  3.84D-06    CP:  5.47D-01  2.48D+00  1.97D+00  8.97D-01  8.62D-01
                    CP:  1.06D+00  1.11D+00  1.45D+00  1.23D+00  1.11D+00
 E= -3010.53537772428     Delta-E=       -0.000000119992 Rises=F Damp=F
 DIIS: error= 6.87D-06 at cycle  11 NSaved=  11.
 NSaved=11 IEnMin=11 EnMin= -3010.53537772428     IErMin=11 ErrMin= 6.87D-06
 ErrMax= 6.87D-06  0.00D+00 EMaxC= 1.00D-01 BMatC= 3.11D-09 BMatP= 5.24D-08
 IDIUse=1 WtCom= 1.00D+00 WtEn= 0.00D+00
 Coeff-Com: -0.296D-03 0.398D-03 0.285D-04 0.780D-03 0.259D-02 0.544D-02
 Coeff-Com:  0.474D-02-0.273D-01-0.108D+00-0.180D-01 0.114D+01
 Coeff:     -0.296D-03 0.398D-03 0.285D-04 0.780D-03 0.259D-02 0.544D-02
 Coeff:      0.474D-02-0.273D-01-0.108D+00-0.180D-01 0.114D+01
 Gap=     0.256 Goal=   None    Shift=    0.000
 RMSDP=3.02D-06 MaxDP=1.55D-04 DE=-1.20D-07 OVMax= 1.62D-04

 Cycle  12  Pass 1  IDiag  1:
 RMSU=  1.05D-06    CP:  5.47D-01  2.48D+00  1.97D+00  8.97D-01  8.62D-01
                    CP:  1.06D+00  1.11D+00  1.45D+00  1.27D+00  1.29D+00
                    CP:  1.30D+00
 E= -3010.53537774286     Delta-E=       -0.000000018579 Rises=F Damp=F
 DIIS: error= 1.77D-06 at cycle  12 NSaved=  12.
 NSaved=12 IEnMin=12 EnMin= -3010.53537774286     IErMin=12 ErrMin= 1.77D-06
 ErrMax= 1.77D-06  0.00D+00 EMaxC= 1.00D-01 BMatC= 8.84D-10 BMatP= 3.11D-09
 IDIUse=1 WtCom= 1.00D+00 WtEn= 0.00D+00
 Coeff-Com: -0.164D-03 0.217D-03-0.162D-04 0.343D-03 0.737D-03 0.267D-02
 Coeff-Com:  0.557D-02-0.411D-02-0.724D-01-0.114D+00 0.495D+00 0.686D+00
 Coeff:     -0.164D-03 0.217D-03-0.162D-04 0.343D-03 0.737D-03 0.267D-02
 Coeff:      0.557D-02-0.411D-02-0.724D-01-0.114D+00 0.495D+00 0.686D+00
 Gap=     0.256 Goal=   None    Shift=    0.000
 RMSDP=1.01D-06 MaxDP=6.94D-05 DE=-1.86D-08 OVMax= 3.77D-05

 Cycle  13  Pass 1  IDiag  1:
 RMSU=  3.19D-07    CP:  5.47D-01  2.48D+00  1.97D+00  8.96D-01  8.62D-01
                    CP:  1.06D+00  1.12D+00  1.46D+00  1.28D+00  1.30D+00
                    CP:  1.44D+00  8.11D-01
 E= -3010.53537774482     Delta-E=       -0.000000001966 Rises=F Damp=F
 DIIS: error= 6.26D-07 at cycle  13 NSaved=  13.
 NSaved=13 IEnMin=13 EnMin= -3010.53537774482     IErMin=13 ErrMin= 6.26D-07
 ErrMax= 6.26D-07  0.00D+00 EMaxC= 1.00D-01 BMatC= 9.83D-11 BMatP= 8.84D-10
 IDIUse=1 WtCom= 1.00D+00 WtEn= 0.00D+00
 Coeff-Com: -0.231D-04 0.309D-04-0.787D-05-0.250D-04-0.337D-03-0.612D-03
 Coeff-Com: -0.601D-04 0.292D-02 0.416D-02-0.148D-01-0.686D-01 0.161D+00
 Coeff-Com:  0.916D+00
 Coeff:     -0.231D-04 0.309D-04-0.787D-05-0.250D-04-0.337D-03-0.612D-03
 Coeff:     -0.601D-04 0.292D-02 0.416D-02-0.148D-01-0.686D-01 0.161D+00
 Coeff:      0.916D+00
 Gap=     0.256 Goal=   None    Shift=    0.000
 RMSDP=2.79D-07 MaxDP=1.18D-05 DE=-1.97D-09 OVMax= 9.40D-06

 Cycle  14  Pass 1  IDiag  1:
 RMSU=  1.59D-07    CP:  5.47D-01  2.48D+00  1.97D+00  8.96D-01  8.62D-01
                    CP:  1.06D+00  1.12D+00  1.46D+00  1.28D+00  1.31D+00
                    CP:  1.46D+00  9.70D-01  1.13D+00
 E= -3010.53537774504     Delta-E=       -0.000000000220 Rises=F Damp=F
 DIIS: error= 1.89D-07 at cycle  14 NSaved=  14.
 NSaved=14 IEnMin=14 EnMin= -3010.53537774504     IErMin=14 ErrMin= 1.89D-07
 ErrMax= 1.89D-07  0.00D+00 EMaxC= 1.00D-01 BMatC= 9.71D-12 BMatP= 9.83D-11
 IDIUse=1 WtCom= 1.00D+00 WtEn= 0.00D+00
 Coeff-Com:  0.741D-06-0.804D-06-0.331D-05-0.362D-04-0.175D-03-0.471D-03
 Coeff-Com: -0.543D-03 0.158D-02 0.892D-02 0.635D-02-0.812D-01-0.510D-02
 Coeff-Com:  0.266D+00 0.805D+00
 Coeff:      0.741D-06-0.804D-06-0.331D-05-0.362D-04-0.175D-03-0.471D-03
 Coeff:     -0.543D-03 0.158D-02 0.892D-02 0.635D-02-0.812D-01-0.510D-02
 Coeff:      0.266D+00 0.805D+00
 Gap=     0.256 Goal=   None    Shift=    0.000
 RMSDP=7.10D-08 MaxDP=2.81D-06 DE=-2.20D-10 OVMax= 4.08D-06

 Cycle  15  Pass 1  IDiag  1:
 RMSU=  4.17D-08    CP:  5.47D-01  2.48D+00  1.97D+00  8.96D-01  8.62D-01
                    CP:  1.06D+00  1.12D+00  1.46D+00  1.28D+00  1.31D+00
                    CP:  1.47D+00  1.01D+00  1.18D+00  1.15D+00
 E= -3010.53537774508     Delta-E=       -0.000000000035 Rises=F Damp=F
 DIIS: error= 1.04D-07 at cycle  15 NSaved=  15.
 NSaved=15 IEnMin=15 EnMin= -3010.53537774508     IErMin=15 ErrMin= 1.04D-07
 ErrMax= 1.04D-07  0.00D+00 EMaxC= 1.00D-01 BMatC= 2.52D-12 BMatP= 9.71D-12
 IDIUse=1 WtCom= 1.00D+00 WtEn= 0.00D+00
 Coeff-Com:  0.494D-05-0.661D-05 0.362D-06-0.418D-05 0.231D-04-0.148D-05
 Coeff-Com: -0.979D-04-0.107D-03 0.115D-02 0.426D-02-0.869D-02-0.180D-01
 Coeff-Com: -0.126D+00 0.274D+00 0.874D+00
 Coeff:      0.494D-05-0.661D-05 0.362D-06-0.418D-05 0.231D-04-0.148D-05
 Coeff:     -0.979D-04-0.107D-03 0.115D-02 0.426D-02-0.869D-02-0.180D-01
 Coeff:     -0.126D+00 0.274D+00 0.874D+00
 Gap=     0.256 Goal=   None    Shift=    0.000
 RMSDP=5.00D-08 MaxDP=3.89D-06 DE=-3.55D-11 OVMax= 2.71D-06

 Cycle  16  Pass 1  IDiag  1:
 RMSU=  2.12D-08    CP:  5.47D-01  2.48D+00  1.97D+00  8.96D-01  8.62D-01
                    CP:  1.06D+00  1.12D+00  1.46D+00  1.28D+00  1.31D+00
                    CP:  1.47D+00  1.02D+00  1.18D+00  1.32D+00  1.40D+00
 E= -3010.53537774507     Delta-E=        0.000000000014 Rises=F Damp=F
 DIIS: error= 3.56D-08 at cycle  16 NSaved=  16.
 NSaved=16 IEnMin=15 EnMin= -3010.53537774508     IErMin=16 ErrMin= 3.56D-08
 ErrMax= 3.56D-08  0.00D+00 EMaxC= 1.00D-01 BMatC= 5.10D-13 BMatP= 2.52D-12
 IDIUse=1 WtCom= 1.00D+00 WtEn= 0.00D+00
 Coeff-Com:  0.114D-05-0.155D-05 0.632D-06 0.511D-05 0.378D-04 0.803D-04
 Coeff-Com:  0.530D-04-0.322D-03-0.119D-02 0.712D-03 0.967D-02-0.495D-03
 Coeff-Com: -0.975D-01-0.254D-01 0.273D+00 0.842D+00
 Coeff:      0.114D-05-0.155D-05 0.632D-06 0.511D-05 0.378D-04 0.803D-04
 Coeff:      0.530D-04-0.322D-03-0.119D-02 0.712D-03 0.967D-02-0.495D-03
 Coeff:     -0.975D-01-0.254D-01 0.273D+00 0.842D+00
 Gap=     0.256 Goal=   None    Shift=    0.000
 RMSDP=3.08D-08 MaxDP=2.04D-06 DE= 1.41D-11 OVMax= 1.40D-06

 Cycle  17  Pass 1  IDiag  1:
 RMSU=  7.84D-09    CP:  5.47D-01  2.48D+00  1.97D+00  8.96D-01  8.62D-01
                    CP:  1.06D+00  1.12D+00  1.46D+00  1.28D+00  1.31D+00
                    CP:  1.47D+00  1.04D+00  1.16D+00  1.39D+00  1.77D+00
                    CP:  1.26D+00
 E= -3010.53537774509     Delta-E=       -0.000000000025 Rises=F Damp=F
 DIIS: error= 2.22D-08 at cycle  17 NSaved=  17.
 NSaved=17 IEnMin=17 EnMin= -3010.53537774509     IErMin=17 ErrMin= 2.22D-08
 ErrMax= 2.22D-08  0.00D+00 EMaxC= 1.00D-01 BMatC= 1.04D-13 BMatP= 5.10D-13
 IDIUse=1 WtCom= 1.00D+00 WtEn= 0.00D+00
 Coeff-Com: -0.376D-06 0.499D-06 0.139D-06 0.134D-05 0.148D-05 0.151D-04
 Coeff-Com:  0.325D-04-0.163D-04-0.511D-03-0.577D-03 0.340D-02 0.594D-02
 Coeff-Com:  0.449D-03-0.649D-01-0.164D+00 0.143D+00 0.108D+01
 Coeff:     -0.376D-06 0.499D-06 0.139D-06 0.134D-05 0.148D-05 0.151D-04
 Coeff:      0.325D-04-0.163D-04-0.511D-03-0.577D-03 0.340D-02 0.594D-02
 Coeff:      0.449D-03-0.649D-01-0.164D+00 0.143D+00 0.108D+01
 Gap=     0.256 Goal=   None    Shift=    0.000
 RMSDP=2.24D-08 MaxDP=1.97D-06 DE=-2.50D-11 OVMax= 1.14D-06

 Cycle  18  Pass 1  IDiag  1:
 RMSU=  4.73D-09    CP:  5.47D-01  2.48D+00  1.97D+00  8.96D-01  8.62D-01
                    CP:  1.06D+00  1.12D+00  1.46D+00  1.28D+00  1.31D+00
                    CP:  1.47D+00  1.05D+00  1.15D+00  1.44D+00  1.96D+00
                    CP:  1.67D+00  1.42D+00
 E= -3010.53537774506     Delta-E=        0.000000000027 Rises=F Damp=F
 DIIS: error= 6.86D-09 at cycle  18 NSaved=  18.
 NSaved=18 IEnMin=17 EnMin= -3010.53537774509     IErMin=18 ErrMin= 6.86D-09
 ErrMax= 6.86D-09  0.00D+00 EMaxC= 1.00D-01 BMatC= 2.87D-14 BMatP= 1.04D-13
 IDIUse=1 WtCom= 1.00D+00 WtEn= 0.00D+00
 Coeff-Com: -0.812D-07 0.111D-06-0.106D-06-0.139D-05-0.101D-04-0.171D-04
 Coeff-Com: -0.421D-05 0.988D-04 0.150D-03-0.384D-03-0.202D-02 0.269D-02
 Coeff-Com:  0.258D-01-0.757D-03-0.110D+00-0.232D+00 0.339D+00 0.978D+00
 Coeff:     -0.812D-07 0.111D-06-0.106D-06-0.139D-05-0.101D-04-0.171D-04
 Coeff:     -0.421D-05 0.988D-04 0.150D-03-0.384D-03-0.202D-02 0.269D-02
 Coeff:      0.258D-01-0.757D-03-0.110D+00-0.232D+00 0.339D+00 0.978D+00
 Gap=     0.256 Goal=   None    Shift=    0.000
 RMSDP=9.71D-09 MaxDP=4.87D-07 DE= 2.73D-11 OVMax= 5.07D-07

 SCF Done:  E(RwB97XD) =  -3010.53537775     A.U. after   18 cycles
            NFock= 18  Conv=0.97D-08     -V/T= 2.0016
 KE= 3.005853200657D+03 PE=-8.632010623440D+03 EE= 1.876519684645D+03
 Leave Link  502 at Wed May  1 15:24:55 2024, MaxMem=  1207959552 cpu:            1015.4 elap:            1015.6
 (Enter /software/gaussian/g16-c01/sse4/g16/l601.exe)
 Copying SCF densities to generalized density rwf, IOpCl= 0 IROHF=0.

 **********************************************************************

            Population analysis using the SCF Density.

 **********************************************************************

 Alpha  occ. eigenvalues -- -483.30938 -62.85963 -56.65655 -56.65084 -56.65081
 Alpha  occ. eigenvalues --  -19.45626 -19.45554 -14.85130 -10.58025 -10.57243
 Alpha  occ. eigenvalues --  -10.56923 -10.56728 -10.56478 -10.52688  -9.01769
 Alpha  occ. eigenvalues --   -6.84445  -6.82574  -6.82560  -2.94350  -2.93853
 Alpha  occ. eigenvalues --   -2.93840  -2.92343  -2.92343  -1.49391  -1.32367
 Alpha  occ. eigenvalues --   -1.22367  -1.13781  -1.11478  -1.04097  -1.00774
 Alpha  occ. eigenvalues --   -0.95181  -0.90679  -0.85017  -0.80493  -0.80374
 Alpha  occ. eigenvalues --   -0.79729  -0.78034  -0.75838  -0.75646  -0.71998
 Alpha  occ. eigenvalues --   -0.69071  -0.67278  -0.63382  -0.59841  -0.56888
 Alpha  occ. eigenvalues --   -0.56097  -0.55877  -0.55360  -0.54913
 Alpha virt. eigenvalues --   -0.29337  -0.21051  -0.15343  -0.13095  -0.08539
 Alpha virt. eigenvalues --   -0.05964  -0.05462  -0.04689  -0.04247  -0.02949
 Alpha virt. eigenvalues --   -0.02214  -0.02125  -0.01038  -0.00712   0.00772
 Alpha virt. eigenvalues --    0.01143   0.01845   0.02089   0.02822   0.03120
 Alpha virt. eigenvalues --    0.04648   0.04973   0.05231   0.06183   0.06871
 Alpha virt. eigenvalues --    0.07265   0.07548   0.07828   0.08977   0.09496
 Alpha virt. eigenvalues --    0.10737   0.11248   0.11297   0.12055   0.12768
 Alpha virt. eigenvalues --    0.12887   0.13264   0.13709   0.15234   0.16327
 Alpha virt. eigenvalues --    0.16649   0.17370   0.17888   0.18669   0.19093
 Alpha virt. eigenvalues --    0.19460   0.21168   0.21570   0.21903   0.24572
 Alpha virt. eigenvalues --    0.25442   0.27915   0.28346   0.29569   0.31748
 Alpha virt. eigenvalues --    0.33240   0.33848   0.34284   0.34957   0.36206
 Alpha virt. eigenvalues --    0.37368   0.38157   0.39307   0.40792   0.41941
 Alpha virt. eigenvalues --    0.42745   0.43895   0.44437   0.46531   0.47609
 Alpha virt. eigenvalues --    0.47911   0.50353   0.51073   0.52372   0.53722
 Alpha virt. eigenvalues --    0.54382   0.55351   0.56832   0.57118   0.59643
 Alpha virt. eigenvalues --    0.61416   0.62463   0.64296   0.67018   0.68799
 Alpha virt. eigenvalues --    0.70379   0.72290   0.72758   0.73440   0.74434
 Alpha virt. eigenvalues --    0.74695   0.79497   0.80113   0.83286   0.85317
 Alpha virt. eigenvalues --    0.86574   0.88166   0.91994   0.93260   0.98762
 Alpha virt. eigenvalues --    0.99795   1.01250   1.04854   1.05536   1.06744
 Alpha virt. eigenvalues --    1.09329   1.11146   1.12215   1.12658   1.14427
 Alpha virt. eigenvalues --    1.22234   1.24691   1.26919   1.33156   1.36681
 Alpha virt. eigenvalues --    1.37056   1.38200   1.45343   1.54564   1.57297
 Alpha virt. eigenvalues --    1.58678   1.58958   1.60798   1.62571   1.66501
 Alpha virt. eigenvalues --    1.69324   1.69907   1.73730   1.75480   1.79223
 Alpha virt. eigenvalues --    1.81300   1.85643   1.87565   1.93679   1.95782
 Alpha virt. eigenvalues --    1.98042   2.03107   2.04010   2.07055   2.08239
 Alpha virt. eigenvalues --    2.09796   2.14925   2.20571   2.22849   2.29528
 Alpha virt. eigenvalues --    2.37774   2.41345   2.42713   2.43677   2.52661
 Alpha virt. eigenvalues --    2.56851   2.63221   2.66270   2.68384   2.71925
 Alpha virt. eigenvalues --    2.73586   2.76707   2.77543   2.81236   2.81952
 Alpha virt. eigenvalues --    2.93695   2.96517   3.00864   3.05760   3.09118
 Alpha virt. eigenvalues --    3.13174   3.15120   3.19241   3.23881   3.24477
 Alpha virt. eigenvalues --    3.27568   3.39319   3.47815   3.51423   3.54677
 Alpha virt. eigenvalues --    3.57047   3.70148   3.74327   3.82352   3.87352
 Alpha virt. eigenvalues --    4.09188   4.09420   4.16904   4.22122   4.42941
 Alpha virt. eigenvalues --    4.44568   4.57626   4.60098   4.93415   4.96082
 Alpha virt. eigenvalues --    5.04731   5.08898   5.63047   6.15986   6.64893
 Alpha virt. eigenvalues --    7.47866   7.49439   7.59211  23.21494  23.61474
 Alpha virt. eigenvalues --   23.69784  23.79658  23.96223  24.01586  35.32828
 Alpha virt. eigenvalues --   47.91471  49.85798  49.94608 289.80799 289.82467
 Alpha virt. eigenvalues --  289.949071020.91891
          Condensed to atoms (all electrons):
               1          2          3          4          5          6
     1  C    8.824842  -2.272138   0.195538  -1.556170  -0.615395   0.308723
     2  C   -2.272138  12.705657  -1.733104  -2.614448   0.707871  -0.013892
     3  C    0.195538  -1.733104  13.048340  -3.160832  -1.237096   0.023586
     4  C   -1.556170  -2.614448  -3.160832  14.756420   1.236717   0.009775
     5  C   -0.615395   0.707871  -1.237096   1.236717   7.350813   0.014934
     6  H    0.308723  -0.013892   0.023586   0.009775   0.014934   0.336164
     7  H    0.068143   0.231437   0.077097  -0.033019  -0.019860  -0.001812
     8  H    0.003844  -0.010352   0.072766   0.246358  -0.018954   0.000001
     9  H    0.031901  -0.013897   0.003531  -0.006563   0.308646  -0.002336
    10  N   -0.143221   0.342071  -0.916357   0.317318   0.016067  -0.000623
    11  O    0.013959  -0.070389  -0.262319  -0.013001  -0.056424  -0.000023
    12  O    0.324252  -0.038414  -0.281315  -0.084857  -0.042851   0.000016
    13  C    1.360476  -1.740519   0.836503  -3.364204  -1.678431  -0.007702
    14  H   -0.010998  -0.002599   0.004152  -0.062557  -0.020067  -0.000053
    15  Br   0.041906   0.008619   0.045103   0.043341   0.052919  -0.000379
               7          8          9         10         11         12
     1  C    0.068143   0.003844   0.031901  -0.143221   0.013959   0.324252
     2  C    0.231437  -0.010352  -0.013897   0.342071  -0.070389  -0.038414
     3  C    0.077097   0.072766   0.003531  -0.916357  -0.262319  -0.281315
     4  C   -0.033019   0.246358  -0.006563   0.317318  -0.013001  -0.084857
     5  C   -0.019860  -0.018954   0.308646   0.016067  -0.056424  -0.042851
     6  H   -0.001812   0.000001  -0.002336  -0.000623  -0.000023   0.000016
     7  H    0.301445  -0.000001   0.000015  -0.025675  -0.001491   0.022287
     8  H   -0.000001   0.295082   0.000106  -0.023649   0.022754  -0.000892
     9  H    0.000015   0.000106   0.326981   0.000397   0.000005   0.000006
    10  N   -0.025675  -0.023649   0.000397   7.349047   0.190878   0.154805
    11  O   -0.001491   0.022754   0.000005   0.190878   7.836831   0.000692
    12  O    0.022287  -0.000892   0.000006   0.154805   0.000692   7.874389
    13  C    0.015289   0.040942   0.005216  -0.157947   0.307361   0.041972
    14  H   -0.000019  -0.004248  -0.005641  -0.000226  -0.000260  -0.000068
    15  Br  -0.000068   0.002754   0.001171   0.004301   0.000369   0.002040
              13         14         15
     1  C    1.360476  -0.010998   0.041906
     2  C   -1.740519  -0.002599   0.008619
     3  C    0.836503   0.004152   0.045103
     4  C   -3.364204  -0.062557   0.043341
     5  C   -1.678431  -0.020067   0.052919
     6  H   -0.007702  -0.000053  -0.000379
     7  H    0.015289  -0.000019  -0.000068
     8  H    0.040942  -0.004248   0.002754
     9  H    0.005216  -0.005641   0.001171
    10  N   -0.157947  -0.000226   0.004301
    11  O    0.307361  -0.000260   0.000369
    12  O    0.041972  -0.000068   0.002040
    13  C   10.434245   0.396575  -0.020244
    14  H    0.396575   0.347112  -0.041919
    15  Br  -0.020244  -0.041919  34.676648
 Mulliken charges:
               1
     1  C   -0.575661
     2  C    0.514097
     3  C   -0.715595
     4  C    0.285721
     5  C    0.001110
     6  H    0.333619
     7  H    0.366232
     8  H    0.373490
     9  H    0.350460
    10  N   -0.107186
    11  O    0.031056
    12  O    0.027937
    13  C   -0.469533
    14  H    0.400814
    15  Br   0.183438
 Sum of Mulliken charges =   1.00000
 Mulliken charges with hydrogens summed into heavy atoms:
               1
     1  C   -0.242042
     2  C    0.880329
     3  C   -0.715595
     4  C    0.659211
     5  C    0.351571
    10  N   -0.107186
    11  O    0.031056
    12  O    0.027937
    13  C   -0.068719
    15  Br   0.183438
 Electronic spatial extent (au):  <R**2>=           2798.2404
 Charge=              1.0000 electrons
 Dipole moment (field-independent basis, Debye):
    X=             -0.8507    Y=             -0.6206    Z=             -0.1758  Tot=              1.0675
 Quadrupole moment (field-independent basis, Debye-Ang):
   XX=            -71.2798   YY=            -51.9434   ZZ=            -62.4525
   XY=              1.3245   XZ=              1.0392   YZ=              1.7945
 Traceless Quadrupole moment (field-independent basis, Debye-Ang):
   XX=             -9.3879   YY=              9.9485   ZZ=             -0.5606
   XY=              1.3245   XZ=              1.0392   YZ=              1.7945
 Octapole moment (field-independent basis, Debye-Ang**2):
  XXX=           -299.6882  YYY=             87.3427  ZZZ=             76.5819  XYY=            -76.2068
  XXY=             29.9921  XXZ=             31.6991  XZZ=            -78.2559  YZZ=             15.8448
  YYZ=             24.8734  XYZ=             -3.4772
 Hexadecapole moment (field-independent basis, Debye-Ang**3):
 XXXX=          -2279.8070 YYYY=           -675.9988 ZZZZ=           -345.8800 XXXY=            -68.2832
 XXXZ=            -22.9929 YYYX=            -59.4418 YYYZ=           -154.4187 ZZZX=            -18.0561
 ZZZY=           -134.2853 XXYY=           -456.1214 XXZZ=           -370.0841 YYZZ=           -162.2951
 XXYZ=            -54.4045 YYXZ=             -2.0117 ZZXY=             -8.2804
 N-N= 7.391023603938D+02 E-N=-8.632010625156D+03  KE= 3.005853200657D+03
 No NMR shielding tensors so no spin-rotation constants.
 Leave Link  601 at Wed May  1 15:25:03 2024, MaxMem=  1207959552 cpu:               7.4 elap:               7.4
 (Enter /software/gaussian/g16-c01/sse4/g16/l9999.exe)
 Unable to Open any file for archive entry.
 1\1\GINC-BHX0016\SP\RwB97XD\6-311+G(d)\C6H5Br1N1O2(1+)\BWEIGHT\01-May-
 2024\0\\#P wB97XD/6-311+G* NoSymm #P Field=Z+9\\TitleMe\\1,1\C,0,0.029
 5,1.3397,0.0682\C,0,1.4348,1.2867,0.0064\C,0,2.1118,0.0511,-0.0054\C,0
 ,1.4451,-1.1372,0.0312\C,0,-0.6879,0.1682,0.11\H,0,-0.4713,2.2984,0.07
 81\H,0,2.0273,2.1965,-0.0322\H,0,1.9897,-2.0764,0.0232\H,0,-1.7716,0.1
 804,0.1582\N,0,3.5864,0.051,-0.0675\O,0,4.1471,-1.0597,-0.0881\O,0,4.1
 45,1.1639,-0.0901\C,0,-0.0236,-1.1458,0.0835\H,0,-0.4367,-1.8725,0.788
 9\Br,0,-0.5359,-1.8697,-1.7408\\Version=ES64L-G16RevC.01\HF=-3010.5353
 777\RMSD=9.713e-09\Dipole=-2.2412166,0.9039339,1.0770292\Quadrupole=-6
 .9796955,7.3964858,-0.4167903,0.9847544,0.7726281,1.3341741\PG=C01 [X(
 C6H5Br1N1O2)]\\@
 The archive entry for this job was punched.


 THE TEST OF A FIRST RATE INTELLIGENCE IS THE ABILITY TO HOLD TWO OPPOSED
 IDEAS IN THE MIND AT THE SAME TIME, AND STILL RETAIN THE ABILITY TO FUNCTION.
 ONE SHOULD, FOR EXAMPLE, BE ABLE TO SEE THAT THINGS ARE HOPELESS AND YET BE
 DETERMINED TO MAKE THEM OTHERWISE.

                                                       -- F. SCOTT FITZGERALD
 Job cpu time:       0 days  0 hours 18 minutes  3.1 seconds.
 Elapsed time:       0 days  0 hours 18 minutes  3.3 seconds.
 File lengths (MBytes):  RWF=     40 Int=      0 D2E=      0 Chk=     32 Scr=      1
 Normal termination of Gaussian 16 at Wed May  1 15:25:03 2024.
