 Entering Gaussian System, Link 0=g16
 Initial command:
 /software/gaussian/g16-a03/l1.exe "/local_scratch/6484890/Gau-29709.inp" -scrdir="/local_scratch/6484890/"
 Entering Link 1 = /software/gaussian/g16-a03/l1.exe PID=     29711.
  
 Copyright (c) 1988,1990,1992,1993,1995,1998,2003,2009,2016,
            Gaussian, Inc.  All Rights Reserved.
  
 This is part of the Gaussian(R) 16 program.  It is based on
 the Gaussian(R) 09 system (copyright 2009, Gaussian, Inc.),
 the Gaussian(R) 03 system (copyright 2003, Gaussian, Inc.),
 the Gaussian(R) 98 system (copyright 1998, Gaussian, Inc.),
 the Gaussian(R) 94 system (copyright 1995, Gaussian, Inc.),
 the Gaussian 92(TM) system (copyright 1992, Gaussian, Inc.),
 the Gaussian 90(TM) system (copyright 1990, Gaussian, Inc.),
 the Gaussian 88(TM) system (copyright 1988, Gaussian, Inc.),
 the Gaussian 86(TM) system (copyright 1986, Carnegie Mellon
 University), and the Gaussian 82(TM) system (copyright 1983,
 Carnegie Mellon University). Gaussian is a federally registered
 trademark of Gaussian, Inc.
  
 This software contains proprietary and confidential information,
 including trade secrets, belonging to Gaussian, Inc.
  
 This software is provided under written license and may be
 used, copied, transmitted, or stored only in accord with that
 written license.
  
 The following legend is applicable only to US Government
 contracts under FAR:
  
                    RESTRICTED RIGHTS LEGEND
  
 Use, reproduction and disclosure by the US Government is
 subject to restrictions as set forth in subparagraphs (a)
 and (c) of the Commercial Computer Software - Restricted
 Rights clause in FAR 52.227-19.
  
 Gaussian, Inc.
 340 Quinnipiac St., Bldg. 40, Wallingford CT 06492
  
  
 ---------------------------------------------------------------
 Warning -- This program may not be used in any manner that
 competes with the business of Gaussian, Inc. or will provide
 assistance to any competitor of Gaussian, Inc.  The licensee
 of this program is prohibited from giving any competitor of
 Gaussian, Inc. access to this program.  By using this program,
 the user acknowledges that Gaussian, Inc. is engaged in the
 business of creating and licensing software in the field of
 computational chemistry and represents and warrants to the
 licensee that it is not a competitor of Gaussian, Inc. and that
 it will not use this program in any manner prohibited above.
 ---------------------------------------------------------------
  

 Cite this work as:
 Gaussian 16, Revision A.03,
 M. J. Frisch, G. W. Trucks, H. B. Schlegel, G. E. Scuseria, 
 M. A. Robb, J. R. Cheeseman, G. Scalmani, V. Barone, 
 G. A. Petersson, H. Nakatsuji, X. Li, M. Caricato, A. V. Marenich, 
 J. Bloino, B. G. Janesko, R. Gomperts, B. Mennucci, H. P. Hratchian, 
 J. V. Ortiz, A. F. Izmaylov, J. L. Sonnenberg, D. Williams-Young, 
 F. Ding, F. Lipparini, F. Egidi, J. Goings, B. Peng, A. Petrone, 
 T. Henderson, D. Ranasinghe, V. G. Zakrzewski, J. Gao, N. Rega, 
 G. Zheng, W. Liang, M. Hada, M. Ehara, K. Toyota, R. Fukuda, 
 J. Hasegawa, M. Ishida, T. Nakajima, Y. Honda, O. Kitao, H. Nakai, 
 T. Vreven, K. Throssell, J. A. Montgomery, Jr., J. E. Peralta, 
 F. Ogliaro, M. J. Bearpark, J. J. Heyd, E. N. Brothers, K. N. Kudin, 
 V. N. Staroverov, T. A. Keith, R. Kobayashi, J. Normand, 
 K. Raghavachari, A. P. Rendell, J. C. Burant, S. S. Iyengar, 
 J. Tomasi, M. Cossi, J. M. Millam, M. Klene, C. Adamo, R. Cammi, 
 J. W. Ochterski, R. L. Martin, K. Morokuma, O. Farkas, 
 J. B. Foresman, and D. J. Fox, Gaussian, Inc., Wallingford CT, 2016.
 
 ******************************************
 Gaussian 16:  ES64L-G16RevA.03 25-Dec-2016
                17-Sep-2021 
 ******************************************
 %chk=geometry.chk
 %mem=2GB
 %nprocshared=1
 Will use up to    1 processors via shared memory.
 --------------------------------------------------------------------
 #p B3LYP/6-311+G** #p TD=(singlets,nstates=30)IOp(6/8=3) IOp(9/40=4)
 --------------------------------------------------------------------
 1/38=1,172=1/1;
 2/12=2,17=6,18=5,40=1/2;
 3/5=4,6=6,7=111,11=9,25=1,30=1,74=-5/1,2,3,8;
 4//1;
 5/5=2,38=5/2;
 8/6=1,10=2,108=30/1;
 9/40=4,41=30,42=1,48=1,70=2/14;
 6/7=2,8=3,9=2,10=2/1;
 99/5=1,9=1/99;
 Leave Link    1 at Fri Sep 17 10:52:18 2021, MaxMem=   268435456 cpu:               0.0 elap:               0.5
 (Enter /software/gaussian/g16-a03/l101.exe)
 --------------------------------
 Scan Step 159, Bond Length 1.295
 --------------------------------
 Symbolic Z-matrix:
 Charge =  0 Multiplicity = 1
 C                     0.        0.       -0.52736 
 H                     0.        0.93726  -1.11871 
 H                     0.       -0.93726  -1.11871 
 O                     0.        0.        0.76764 
 
 ITRead=  0  0  0  0
 MicOpt= -1 -1 -1 -1
 NAtoms=      4 NQM=        4 NQMF=       0 NMMI=      0 NMMIF=      0
                NMic=       0 NMicF=      0.
                    Isotopes and Nuclear Properties:
 (Nuclear quadrupole moments (NQMom) in fm**2, nuclear magnetic moments (NMagM)
  in nuclear magnetons)

  Atom         1           2           3           4
 IAtWgt=          12           1           1          16
 AtmWgt=  12.0000000   1.0078250   1.0078250  15.9949146
 NucSpn=           0           1           1           0
 AtZEff=  -0.0000000  -0.0000000  -0.0000000  -0.0000000
 NQMom=    0.0000000   0.0000000   0.0000000   0.0000000
 NMagM=    0.0000000   2.7928460   2.7928460   0.0000000
 AtZNuc=   6.0000000   1.0000000   1.0000000   8.0000000
 Leave Link  101 at Fri Sep 17 10:52:18 2021, MaxMem=   268435456 cpu:               0.1 elap:               0.1
 (Enter /software/gaussian/g16-a03/l202.exe)
                          Input orientation:                          
 ---------------------------------------------------------------------
 Center     Atomic      Atomic             Coordinates (Angstroms)
 Number     Number       Type             X           Y           Z
 ---------------------------------------------------------------------
      1          6           0        0.000000    0.000000   -0.527360
      2          1           0        0.000000    0.937260   -1.118710
      3          1           0        0.000000   -0.937260   -1.118710
      4          8           0        0.000000    0.000000    0.767640
 ---------------------------------------------------------------------
                    Distance matrix (angstroms):
                    1          2          3          4
     1  C    0.000000
     2  H    1.108220   0.000000
     3  H    1.108220   1.874520   0.000000
     4  O    1.295000   2.106365   2.106365   0.000000
 Stoichiometry    CH2O
 Framework group  C2V[C2(CO),SGV(H2)]
 Deg. of freedom     3
 Full point group                 C2V     NOp   4
 Largest Abelian subgroup         C2V     NOp   4
 Largest concise Abelian subgroup C2      NOp   2
                         Standard orientation:                         
 ---------------------------------------------------------------------
 Center     Atomic      Atomic             Coordinates (Angstroms)
 Number     Number       Type             X           Y           Z
 ---------------------------------------------------------------------
      1          6           0        0.000000    0.000000   -0.573581
      2          1           0        0.000000    0.937260   -1.164931
      3          1           0       -0.000000   -0.937260   -1.164931
      4          8           0        0.000000   -0.000000    0.721419
 ---------------------------------------------------------------------
 Rotational constants (GHZ):         285.4183527          34.0774800          30.4427702
 Leave Link  202 at Fri Sep 17 10:52:18 2021, MaxMem=   268435456 cpu:               0.0 elap:               0.0
 (Enter /software/gaussian/g16-a03/l301.exe)
 Standard basis: 6-311+G(d,p) (5D, 7F)
 Ernie: Thresh=  0.10000D-02 Tol=  0.10000D-05 Strict=F.
 There are    29 symmetry adapted cartesian basis functions of A1  symmetry.
 There are     3 symmetry adapted cartesian basis functions of A2  symmetry.
 There are    11 symmetry adapted cartesian basis functions of B1  symmetry.
 There are    15 symmetry adapted cartesian basis functions of B2  symmetry.
 There are    27 symmetry adapted basis functions of A1  symmetry.
 There are     3 symmetry adapted basis functions of A2  symmetry.
 There are    11 symmetry adapted basis functions of B1  symmetry.
 There are    15 symmetry adapted basis functions of B2  symmetry.
    56 basis functions,    88 primitive gaussians,    58 cartesian basis functions
     8 alpha electrons        8 beta electrons
       nuclear repulsion energy        29.6462584017 Hartrees.
 IExCor=  402 DFT=T Ex+Corr=B3LYP ExCW=0 ScaHFX=  0.200000
 ScaDFX=  0.800000  0.720000  1.000000  0.810000 ScalE2=  1.000000  1.000000
 IRadAn=      5 IRanWt=     -1 IRanGd=            0 ICorTp=0 IEmpDi=  4
 NAtoms=    4 NActive=    4 NUniq=    3 SFac= 1.78D+00 NAtFMM=   60 NAOKFM=F Big=F
 Integral buffers will be    131072 words long.
 Regular integral format.
 Two-electron integral symmetry is turned on.
 Leave Link  301 at Fri Sep 17 10:52:18 2021, MaxMem=   268435456 cpu:               0.1 elap:               0.1
 (Enter /software/gaussian/g16-a03/l302.exe)
 NPDir=0 NMtPBC=     1 NCelOv=     1 NCel=       1 NClECP=     1 NCelD=      1
         NCelK=      1 NCelE2=     1 NClLst=     1 CellRange=     0.0.
 One-electron integrals computed using PRISM.
 One-electron integral symmetry used in STVInt
 NBasis=    56 RedAO= T EigKep=  5.16D-03  NBF=    27     3    11    15
 NBsUse=    56 1.00D-06 EigRej= -1.00D+00 NBFU=    27     3    11    15
 Precomputing XC quadrature grid using
 IXCGrd= 4 IRadAn=           5 IRanWt=          -1 IRanGd=           0 AccXCQ= 0.00D+00.
 Generated NRdTot=       0 NPtTot=           0 NUsed=           0 NTot=          32
 NSgBfM=    58    58    58    58    58 MxSgAt=     4 MxSgA2=     4.
 Leave Link  302 at Fri Sep 17 10:52:19 2021, MaxMem=   268435456 cpu:               0.3 elap:               0.3
 (Enter /software/gaussian/g16-a03/l303.exe)
 DipDrv:  MaxL=1.
 Leave Link  303 at Fri Sep 17 10:52:19 2021, MaxMem=   268435456 cpu:               0.1 elap:               0.1
 (Enter /software/gaussian/g16-a03/l308.exe)
 Leave Link  308 at Fri Sep 17 10:52:19 2021, MaxMem=   268435456 cpu:               0.1 elap:               0.1
 (Enter /software/gaussian/g16-a03/l401.exe)
 ExpMin= 4.38D-02 ExpMax= 8.59D+03 ExpMxC= 1.30D+03 IAcc=3 IRadAn=         5 AccDes= 0.00D+00
 Harris functional with IExCor=  402 and IRadAn=       5 diagonalized for initial guess.
 HarFok:  IExCor=  402 AccDes= 0.00D+00 IRadAn=         5 IDoV= 1 UseB2=F ITyADJ=14
 ICtDFT=  3500011 ScaDFX=  1.000000  1.000000  1.000000  1.000000
 FoFCou: FMM=F IPFlag=           0 FMFlag=      100000 FMFlg1=           0
         NFxFlg=           0 DoJE=T BraDBF=F KetDBF=T FulRan=T
         wScrn=  0.000000 ICntrl=       500 IOpCl=  0 I1Cent=   200000004 NGrid=           0
         NMat0=    1 NMatS0=      1 NMatT0=    0 NMatD0=    1 NMtDS0=    0 NMtDT0=    0
 Petite list used in FoFCou.
 Harris En= -114.539900514477    
 JPrj=0 DoOrth=F DoCkMO=F.
 Initial guess orbital symmetries:
       Occupied  (A1) (A1) (A1) (A1) (B2) (A1) (B1) (B2)
       Virtual   (B1) (A1) (A1) (B2) (B1) (A1) (B2) (A1) (B1) (A1)
                 (B2) (A1) (A1) (B2) (B1) (A1) (B2) (A1) (A1) (A2)
                 (B1) (B2) (B1) (A1) (B2) (A1) (B2) (A1) (B1) (A2)
                 (A1) (B2) (A1) (B2) (B1) (A1) (A2) (A1) (A1) (B1)
                 (B2) (B2) (A1) (B1) (B2) (A1) (A1) (A1)
 The electronic state of the initial guess is 1-A1.
 Leave Link  401 at Fri Sep 17 10:52:19 2021, MaxMem=   268435456 cpu:               0.6 elap:               0.6
 (Enter /software/gaussian/g16-a03/l502.exe)
 Keep R1 ints in memory in symmetry-blocked form, NReq=2159909.
 FoFCou: FMM=F IPFlag=           0 FMFlag=           0 FMFlg1=           0
         NFxFlg=           0 DoJE=F BraDBF=F KetDBF=F FulRan=T
         wScrn=  0.000000 ICntrl=       600 IOpCl=  0 I1Cent=           0 NGrid=           0
         NMat0=    1 NMatS0=   1596 NMatT0=    0 NMatD0=    1 NMtDS0=    0 NMtDT0=    0
 Petite list used in FoFCou.
 Closed shell SCF:
 Using DIIS extrapolation, IDIIS=  1040.
 NGot=   268435456 LenX=   268074384 LenY=   268070579
 Requested convergence on RMS density matrix=1.00D-08 within 128 cycles.
 Requested convergence on MAX density matrix=1.00D-06.
 Requested convergence on             energy=1.00D-06.
 No special actions if energy rises.

 Cycle   1  Pass 1  IDiag  1:
 E= -114.476339360787    
 DIIS: error= 4.60D-02 at cycle   1 NSaved=   1.
 NSaved= 1 IEnMin= 1 EnMin= -114.476339360787     IErMin= 1 ErrMin= 4.60D-02
 ErrMax= 4.60D-02  0.00D+00 EMaxC= 1.00D-01 BMatC= 7.42D-02 BMatP= 7.42D-02
 IDIUse=3 WtCom= 5.40D-01 WtEn= 4.60D-01
 Coeff-Com:  0.100D+01
 Coeff-En:   0.100D+01
 Coeff:      0.100D+01
 Gap=     0.121 Goal=   None    Shift=    0.000
 GapD=    0.121 DampG=1.000 DampE=0.500 DampFc=0.5000 IDamp=-1.
 Damping current iteration by 5.00D-01
 RMSDP=1.07D-02 MaxDP=8.92D-02              OVMax= 3.51D-01

 Cycle   2  Pass 1  IDiag  1:
 E= -114.452845356227     Delta-E=        0.023494004559 Rises=F Damp=T
 DIIS: error= 4.08D-02 at cycle   2 NSaved=   2.
 NSaved= 2 IEnMin= 1 EnMin= -114.476339360787     IErMin= 2 ErrMin= 4.08D-02
 ErrMax= 4.08D-02  0.00D+00 EMaxC= 1.00D-01 BMatC= 4.11D-02 BMatP= 7.42D-02
 IDIUse=3 WtCom= 5.92D-01 WtEn= 4.08D-01
 Coeff-Com:  0.416D+00 0.584D+00
 Coeff-En:   0.607D+00 0.393D+00
 Coeff:      0.494D+00 0.506D+00
 Gap=     0.183 Goal=   None    Shift=    0.000
 RMSDP=2.21D-03 MaxDP=2.78D-02 DE= 2.35D-02 OVMax= 2.50D-01

 Cycle   3  Pass 1  IDiag  1:
 E= -114.527967707172     Delta-E=       -0.075122350945 Rises=F Damp=F
 DIIS: error= 8.07D-03 at cycle   3 NSaved=   3.
 NSaved= 3 IEnMin= 3 EnMin= -114.527967707172     IErMin= 3 ErrMin= 8.07D-03
 ErrMax= 8.07D-03  0.00D+00 EMaxC= 1.00D-01 BMatC= 3.07D-03 BMatP= 4.11D-02
 IDIUse=3 WtCom= 9.19D-01 WtEn= 8.07D-02
 Coeff-Com:  0.183D+00 0.123D+00 0.695D+00
 Coeff-En:   0.000D+00 0.000D+00 0.100D+01
 Coeff:      0.168D+00 0.113D+00 0.719D+00
 Gap=     0.197 Goal=   None    Shift=    0.000
 RMSDP=8.84D-04 MaxDP=1.61D-02 DE=-7.51D-02 OVMax= 1.94D-02

 Cycle   4  Pass 1  IDiag  1:
 E= -114.530225904298     Delta-E=       -0.002258197126 Rises=F Damp=F
 DIIS: error= 3.44D-03 at cycle   4 NSaved=   4.
 NSaved= 4 IEnMin= 4 EnMin= -114.530225904298     IErMin= 4 ErrMin= 3.44D-03
 ErrMax= 3.44D-03  0.00D+00 EMaxC= 1.00D-01 BMatC= 3.13D-04 BMatP= 3.07D-03
 IDIUse=3 WtCom= 9.66D-01 WtEn= 3.44D-02
 Coeff-Com:  0.306D-01-0.110D-01 0.298D+00 0.682D+00
 Coeff-En:   0.000D+00 0.000D+00 0.000D+00 0.100D+01
 Coeff:      0.295D-01-0.106D-01 0.288D+00 0.693D+00
 Gap=     0.199 Goal=   None    Shift=    0.000
 RMSDP=2.23D-04 MaxDP=5.05D-03 DE=-2.26D-03 OVMax= 5.75D-03

 Cycle   5  Pass 1  IDiag  1:
 E= -114.530516654852     Delta-E=       -0.000290750554 Rises=F Damp=F
 DIIS: error= 5.46D-04 at cycle   5 NSaved=   5.
 NSaved= 5 IEnMin= 5 EnMin= -114.530516654852     IErMin= 5 ErrMin= 5.46D-04
 ErrMax= 5.46D-04  0.00D+00 EMaxC= 1.00D-01 BMatC= 8.47D-06 BMatP= 3.13D-04
 IDIUse=3 WtCom= 9.95D-01 WtEn= 5.46D-03
 Coeff-Com:  0.506D-02-0.122D-01 0.560D-01 0.183D+00 0.768D+00
 Coeff-En:   0.000D+00 0.000D+00 0.000D+00 0.000D+00 0.100D+01
 Coeff:      0.503D-02-0.121D-01 0.557D-01 0.182D+00 0.769D+00
 Gap=     0.199 Goal=   None    Shift=    0.000
 RMSDP=3.31D-05 MaxDP=2.24D-04 DE=-2.91D-04 OVMax= 8.09D-04

 Cycle   6  Pass 1  IDiag  1:
 E= -114.530523746186     Delta-E=       -0.000007091334 Rises=F Damp=F
 DIIS: error= 7.70D-05 at cycle   6 NSaved=   6.
 NSaved= 6 IEnMin= 6 EnMin= -114.530523746186     IErMin= 6 ErrMin= 7.70D-05
 ErrMax= 7.70D-05  0.00D+00 EMaxC= 1.00D-01 BMatC= 1.52D-07 BMatP= 8.47D-06
 IDIUse=1 WtCom= 1.00D+00 WtEn= 0.00D+00
 Coeff-Com:  0.456D-03-0.115D-02-0.847D-04-0.445D-02-0.211D-01 0.103D+01
 Coeff:      0.456D-03-0.115D-02-0.847D-04-0.445D-02-0.211D-01 0.103D+01
 Gap=     0.199 Goal=   None    Shift=    0.000
 RMSDP=5.73D-06 MaxDP=5.12D-05 DE=-7.09D-06 OVMax= 1.24D-04

 Cycle   7  Pass 1  IDiag  1:
 E= -114.530523873397     Delta-E=       -0.000000127211 Rises=F Damp=F
 DIIS: error= 2.39D-06 at cycle   7 NSaved=   7.
 NSaved= 7 IEnMin= 7 EnMin= -114.530523873397     IErMin= 7 ErrMin= 2.39D-06
 ErrMax= 2.39D-06  0.00D+00 EMaxC= 1.00D-01 BMatC= 4.17D-10 BMatP= 1.52D-07
 IDIUse=1 WtCom= 1.00D+00 WtEn= 0.00D+00
 Coeff-Com:  0.367D-04-0.486D-04-0.237D-04-0.124D-02-0.708D-02 0.592D-01
 Coeff-Com:  0.949D+00
 Coeff:      0.367D-04-0.486D-04-0.237D-04-0.124D-02-0.708D-02 0.592D-01
 Coeff:      0.949D+00
 Gap=     0.199 Goal=   None    Shift=    0.000
 RMSDP=1.99D-07 MaxDP=3.85D-06 DE=-1.27D-07 OVMax= 4.65D-06

 Cycle   8  Pass 1  IDiag  1:
 E= -114.530523873673     Delta-E=       -0.000000000276 Rises=F Damp=F
 DIIS: error= 1.73D-06 at cycle   8 NSaved=   8.
 NSaved= 8 IEnMin= 8 EnMin= -114.530523873673     IErMin= 8 ErrMin= 1.73D-06
 ErrMax= 1.73D-06  0.00D+00 EMaxC= 1.00D-01 BMatC= 7.70D-11 BMatP= 4.17D-10
 IDIUse=1 WtCom= 1.00D+00 WtEn= 0.00D+00
 Coeff-Com:  0.580D-05-0.360D-05 0.967D-05-0.808D-04-0.773D-04-0.180D-01
 Coeff-Com:  0.571D-01 0.961D+00
 Coeff:      0.580D-05-0.360D-05 0.967D-05-0.808D-04-0.773D-04-0.180D-01
 Coeff:      0.571D-01 0.961D+00
 Gap=     0.199 Goal=   None    Shift=    0.000
 RMSDP=1.28D-07 MaxDP=1.00D-06 DE=-2.76D-10 OVMax= 2.91D-06

 Cycle   9  Pass 1  IDiag  1:
 E= -114.530523873737     Delta-E=       -0.000000000065 Rises=F Damp=F
 DIIS: error= 6.07D-08 at cycle   9 NSaved=   9.
 NSaved= 9 IEnMin= 9 EnMin= -114.530523873737     IErMin= 9 ErrMin= 6.07D-08
 ErrMax= 6.07D-08  0.00D+00 EMaxC= 1.00D-01 BMatC= 1.87D-13 BMatP= 7.70D-11
 IDIUse=1 WtCom= 1.00D+00 WtEn= 0.00D+00
 Coeff-Com:  0.913D-06-0.810D-06 0.208D-05 0.517D-06 0.779D-04-0.288D-02
 Coeff-Com: -0.180D-02 0.110D+00 0.895D+00
 Coeff:      0.913D-06-0.810D-06 0.208D-05 0.517D-06 0.779D-04-0.288D-02
 Coeff:     -0.180D-02 0.110D+00 0.895D+00
 Gap=     0.199 Goal=   None    Shift=    0.000
 RMSDP=3.52D-09 MaxDP=5.48D-08 DE=-6.47D-11 OVMax= 8.93D-08

 SCF Done:  E(RB3LYP) =  -114.530523874     A.U. after    9 cycles
            NFock=  9  Conv=0.35D-08     -V/T= 2.0061
 KE= 1.138320211912D+02 PE=-3.281429169003D+02 EE= 7.013411343369D+01
 Leave Link  502 at Fri Sep 17 10:52:22 2021, MaxMem=   268435456 cpu:               2.6 elap:               3.0
 (Enter /software/gaussian/g16-a03/l801.exe)
 DoSCS=F DFT=T ScalE2(SS,OS)=  1.000000  1.000000
 ExpMin= 4.38D-02 ExpMax= 8.59D+03 ExpMxC= 1.30D+03 IAcc=3 IRadAn=         5 AccDes= 0.00D+00
 HarFok:  IExCor=  205 AccDes= 0.00D+00 IRadAn=         5 IDoV=-2 UseB2=F ITyADJ=14
 ICtDFT= 12500011 ScaDFX=  1.000000  1.000000  1.000000  1.000000
 Largest valence mixing into a core orbital is  4.92D-05
 Largest core mixing into a valence orbital is  1.05D-05
 Range of M.O.s used for correlation:     3    56
 NBasis=    56 NAE=     8 NBE=     8 NFC=     2 NFV=     0
 NROrb=     54 NOA=     6 NOB=     6 NVA=    48 NVB=    48
 Leave Link  801 at Fri Sep 17 10:52:23 2021, MaxMem=   268435456 cpu:               0.4 elap:               0.4
 (Enter /software/gaussian/g16-a03/l914.exe)
 RHF ground state
 Keep R1, R2, and R3 ints in memory in symmetry-blocked form, NReq=6042848.
 FoFCou: FMM=F IPFlag=           0 FMFlag=           0 FMFlg1=           0
         NFxFlg=           0 DoJE=F BraDBF=F KetDBF=F FulRan=T
         wScrn=  0.000000 ICntrl=       600 IOpCl=  0 I1Cent=           0 NGrid=           0
         NMat0=    1 NMatS0=   1596 NMatT0=    0 NMatD0=    1 NMtDS0=    0 NMtDT0=    0
 Petite list used in FoFCou.
 MDV=   268435456 DFT=T DoStab=F Mixed=T DoRPA=T DoScal=F NonHer=T
 Making orbital integer symmetry assigments:
 Orbital symmetries:
       Occupied  (A1) (A1) (A1) (A1) (B2) (A1) (B1) (B2)
       Virtual   (B1) (A1) (A1) (B2) (B1) (A1) (B2) (A1) (B1) (B2)
                 (A1) (A1) (A1) (B2) (B1) (A1) (B2) (A1) (A2) (A1)
                 (B1) (B2) (B1) (A1) (B2) (A1) (B2) (A1) (B1) (A2)
                 (A1) (B2) (A1) (B2) (A1) (B1) (A2) (A1) (A1) (B1)
                 (B2) (B2) (A1) (B1) (B2) (A1) (A1) (A1)
   120 initial guesses have been made.
 Convergence on wavefunction:    0.001000000000000
 Davidson Disk Diagonalization:  ConvIn= 1.00D-03 SkipCon=T Conv= 1.00D-03.
 Max sub-space:  1728 roots to seek:   120 dimension of matrix:          576
 Iteration     1 Dimension   120 NMult     0 NNew    120
 CISAX will form   120 AO SS matrices at one time.
 NMat=   120 NSing=   120 JSym2X=-1.
 New state      3 was old state      4
 New state      4 was old state      5
 New state      5 was old state      7
 New state      6 was old state      3
 New state      7 was old state      6
 New state      8 was old state      9
 New state      9 was old state      8
 New state     14 was old state     15
 New state     15 was old state     16
 New state     16 was old state     14
 New state     18 was old state     20
 New state     19 was old state     18
 New state     20 was old state     19
 New state     24 was old state     25
 New state     25 was old state     24
 New state     26 was old state     27
 New state     27 was old state     26
 New state     29 was old state     30
 New state     30 was old state     31
 Excitation Energies [eV] at current iteration:
 Root      1 :     3.435722728207202
 Root      2 :     6.939839988819229
 Root      3 :     7.688056489591291
 Root      4 :     7.958983406602394
 Root      5 :     8.131177194707643
 Root      6 :     8.379406452815319
 Root      7 :     8.481009490387699
 Root      8 :     9.219924987013364
 Root      9 :     9.645362380711537
 Root     10 :    10.296845918235390
 Root     11 :    10.482843820970780
 Root     12 :    10.648092775139170
 Root     13 :    11.339027091009310
 Root     14 :    11.450913105096030
 Root     15 :    11.533108116950560
 Root     16 :    12.056118476584710
 Root     17 :    12.342634251622710
 Root     18 :    12.356799342180610
 Root     19 :    12.489374982987340
 Root     20 :    12.549914708919790
 Root     21 :    12.772579047744300
 Root     22 :    13.017834430012660
 Root     23 :    13.126027946505380
 Root     24 :    13.148625345164170
 Root     25 :    13.481612757745580
 Root     26 :    13.745653967517780
 Root     27 :    13.886483232214310
 Root     28 :    14.097811988092090
 Root     29 :    14.277781992140130
 Root     30 :    14.644236992816740
 Root     31 :    14.822495246260920
 Root     32 :    15.228923039577480
 Root     33 :    15.442943127547130
 Root     34 :    15.608585079555270
 Root     35 :    15.644055080014920
 Root     36 :    15.965014310668330
 Root     37 :    16.104508624905290
 Root     38 :    16.548489362898350
 Root     39 :    16.872017263791080
 Root     40 :    16.958549564336640
 Root     41 :    17.355531613738700
 Root     42 :    17.449551607027480
 Root     43 :    17.574340597473730
 Root     44 :    17.597481035166340
 Root     45 :    17.900050828776340
 Root     46 :    18.089458749909640
 Root     47 :    18.092247157284700
 Root     48 :    18.324335551095680
 Root     49 :    18.424311542700390
 Root     50 :    18.672350876421090
 Root     51 :    19.040018951157080
 Root     52 :    19.129122190409490
 Root     53 :    19.156237756856630
 Root     54 :    20.110856901504690
 Root     55 :    20.557403178840420
 Root     56 :    20.694644631320580
 Root     57 :    20.958610332228850
 Root     58 :    20.986045076247170
 Root     59 :    21.205477835795900
 Root     60 :    21.446986434213500
 Root     61 :    22.058585383196560
 Root     62 :    22.104591551105910
 Root     63 :    22.808404997702650
 Root     64 :    22.821975435513590
 Root     65 :    23.281123947179560
 Root     66 :    23.289140565905440
 Root     67 :    23.305513344024130
 Root     68 :    23.670045390117050
 Root     69 :    23.875946674592110
 Root     70 :    24.360971277416160
 Root     71 :    24.484707519246870
 Root     72 :    24.526106260223410
 Root     73 :    24.796653035723560
 Root     74 :    25.078142084647980
 Root     75 :    25.420650235144340
 Root     76 :    25.516819618893930
 Root     77 :    25.518743036856910
 Root     78 :    27.046708309860650
 Root     79 :    27.129095550013640
 Root     80 :    27.335386444565560
 Root     81 :    27.351731405065020
 Root     82 :    27.606987598002660
 Root     83 :    28.179586822586310
 Root     84 :    28.205919499328840
 Root     85 :    28.630968660886260
 Root     86 :    28.743047357235990
 Root     87 :    29.325670100234090
 Root     88 :    29.771752918814980
 Root     89 :    29.821156673159980
 Root     90 :    30.118333688418790
 Root     91 :    30.335680673854550
 Root     92 :    31.474447638684970
 Root     93 :    31.870948116494740
 Root     94 :    32.366538986979510
 Root     95 :    32.726219457805820
 Root     96 :    32.833147152582870
 Root     97 :    33.093957880547660
 Root     98 :    33.244605022203360
 Root     99 :    33.321314789627990
 Root    100 :    33.401576123007220
 Root    101 :    33.490317933246850
 Root    102 :    33.868908843775380
 Root    103 :    34.209918510140270
 Root    104 :    35.313975301468920
 Root    105 :    35.948789830499680
 Root    106 :    36.145358174086820
 Root    107 :    36.558448601740220
 Root    108 :    37.532105752925190
 Root    109 :    37.688651223851660
 Root    110 :    37.982388800531020
 Root    111 :    38.066757740093710
 Root    112 :    38.429577460958370
 Root    113 :    38.838408745408980
 Root    114 :    38.911786351469130
 Root    115 :    39.629702418959940
 Root    116 :    39.752208224934730
 Root    117 :    39.939212032346550
 Root    118 :    40.268382696160580
 Root    119 :    40.564739955523480
 Root    120 :    44.957707501986970
 Iteration     2 Dimension   180 NMult   120 NNew     60
 CISAX will form    60 AO SS matrices at one time.
 NMat=    60 NSing=    60 JSym2X=-1.
 Root      1 not converged, maximum delta is    0.005565140830216
 Root      2 not converged, maximum delta is    0.001893204166989
 Root      3 not converged, maximum delta is    0.004466443634017
 Root      4 not converged, maximum delta is    0.014282418264760
 Root      5 not converged, maximum delta is    0.012739698295658
 Root      6 not converged, maximum delta is    0.017055174298895
 Root      7 not converged, maximum delta is    0.001134715471538
 Root      8 not converged, maximum delta is    0.010459469921464
 Root      9 not converged, maximum delta is    0.001989582686011
 Root     10 not converged, maximum delta is    0.003437029715219
 Root     11 not converged, maximum delta is    0.005191804652290
 Root     12 not converged, maximum delta is    0.001830831834631
 Root     13 not converged, maximum delta is    0.009629171563904
 Root     14 not converged, maximum delta is    0.009713412125705
 Root     15 not converged, maximum delta is    0.001947272927429
 Root     16 not converged, maximum delta is    0.019167345475120
 Root     17 not converged, maximum delta is    0.015267641610414
 Root     18 not converged, maximum delta is    0.001694890452659
 Root     19 not converged, maximum delta is    0.016563628676647
 Root     20 not converged, maximum delta is    0.017262290553355
 Root     21 not converged, maximum delta is    0.004111427680997
 Root     22 not converged, maximum delta is    0.002450920758508
 Root     23 not converged, maximum delta is    0.008789330931905
 Root     24 not converged, maximum delta is    0.008906111039181
 Root     25 not converged, maximum delta is    0.007549716006127
 Root     26 not converged, maximum delta is    0.004369317512106
 Root     27 not converged, maximum delta is    0.008967929334969
 Root     28 not converged, maximum delta is    0.002006464052191
 Root     29 not converged, maximum delta is    0.018433454378759
 Root     30 not converged, maximum delta is    0.005617551490795
 Excitation Energies [eV] at current iteration:
 Root      1 :     3.424242991913301   Change is   -0.011479736293901
 Root      2 :     6.938215581175714   Change is   -0.001624407643514
 Root      3 :     7.678326366655913   Change is   -0.009730122935378
 Root      4 :     7.956181319858077   Change is   -0.002802086744317
 Root      5 :     8.071912658326982   Change is   -0.059264536380662
 Root      6 :     8.316314927584193   Change is   -0.063091525231125
 Root      7 :     8.480672398981705   Change is   -0.000337091405993
 Root      8 :     9.206203658739417   Change is   -0.013721328273946
 Root      9 :     9.644391422289280   Change is   -0.000970958422258
 Root     10 :    10.287928483956860   Change is   -0.008917434278529
 Root     11 :    10.476033266743480   Change is   -0.006810554227302
 Root     12 :    10.647529296986550   Change is   -0.000563478152624
 Root     13 :    11.328805415834950   Change is   -0.010221675174360
 Root     14 :    11.443657639241950   Change is   -0.007255465854078
 Root     15 :    11.530548173330600   Change is   -0.002559943619956
 Root     16 :    12.031596199666440   Change is   -0.024522276918267
 Root     17 :    12.330648082761170   Change is   -0.011986168861547
 Root     18 :    12.355925481225730   Change is   -0.000873860954886
 Root     19 :    12.486602342822140   Change is   -0.002772640165206
 Root     20 :    12.543840521208650   Change is   -0.006074187711138
 Root     21 :    12.768618095946640   Change is   -0.003960951797659
 Root     22 :    13.016434365783360   Change is   -0.001400064229303
 Root     23 :    13.108373715245840   Change is   -0.017654231259541
 Root     24 :    13.108378548621040   Change is   -0.040246796543127
 Root     25 :    13.473388635866220   Change is   -0.008224121879358
 Root     26 :    13.743110315652820   Change is   -0.002543651864959
 Root     27 :    13.873993165807720   Change is   -0.012490066406591
 Root     28 :    14.097143313694990   Change is   -0.000668674397099
 Root     29 :    14.273124206723890   Change is   -0.004657785416241
 Root     30 :    14.636949716624760   Change is   -0.007287276191988
 Iteration     3 Dimension   236 NMult   180 NNew     56
 CISAX will form    56 AO SS matrices at one time.
 NMat=    56 NSing=    56 JSym2X=-1.
 Root      1 has converged.
 Root      2 has converged.
 Root      3 has converged.
 Root      4 has converged.
 Root      5 has converged.
 Root      6 has converged.
 Root      7 has converged.
 Root      8 has converged.
 Root      9 has converged.
 Root     10 has converged.
 Root     11 has converged.
 Root     12 has converged.
 Root     13 has converged.
 Root     14 has converged.
 Root     15 has converged.
 Root     16 has converged.
 Root     17 has converged.
 Root     18 has converged.
 Root     19 has converged.
 Root     20 has converged.
 Root     21 has converged.
 Root     22 has converged.
 New state     23 was old state     24
 Root     23 has converged.
 New state     24 was old state     23
 Root     24 has converged.
 Root     25 has converged.
 Root     26 has converged.
 Root     27 has converged.
 Root     28 has converged.
 Root     29 has converged.
 Root     30 has converged.
 Excitation Energies [eV] at current iteration:
 Root      1 :     3.424241892627291   Change is   -0.000001099286010
 Root      2 :     6.938214371726321   Change is   -0.000001209449394
 Root      3 :     7.678319466194705   Change is   -0.000006900461208
 Root      4 :     7.956178531377290   Change is   -0.000002788480787
 Root      5 :     8.071848033230294   Change is   -0.000064625096687
 Root      6 :     8.316233354086966   Change is   -0.000081573497226
 Root      7 :     8.480672360788649   Change is   -0.000000038193056
 Root      8 :     9.206194233895113   Change is   -0.000009424844304
 Root      9 :     9.644390734374218   Change is   -0.000000687915062
 Root     10 :    10.287920086622310   Change is   -0.000008397334550
 Root     11 :    10.476023767421600   Change is   -0.000009499321875
 Root     12 :    10.647529022433410   Change is   -0.000000274553141
 Root     13 :    11.328782944830910   Change is   -0.000022471004046
 Root     14 :    11.443637651056390   Change is   -0.000019988185555
 Root     15 :    11.530539962259990   Change is   -0.000008211070614
 Root     16 :    12.031528099102990   Change is   -0.000068100563457
 Root     17 :    12.330610834825440   Change is   -0.000037247935729
 Root     18 :    12.355924814320860   Change is   -0.000000666904862
 Root     19 :    12.486598220768100   Change is   -0.000004122054038
 Root     20 :    12.543826336591390   Change is   -0.000014184617260
 Root     21 :    12.768611786157210   Change is   -0.000006309789438
 Root     22 :    13.016431901409950   Change is   -0.000002464373409
 Root     23 :    13.108303922712800   Change is   -0.000074625908240
 Root     24 :    13.108313351921140   Change is   -0.000060363324703
 Root     25 :    13.473378726336540   Change is   -0.000009909529677
 Root     26 :    13.743105575835220   Change is   -0.000004739817597
 Root     27 :    13.873965985455780   Change is   -0.000027180351940
 Root     28 :    14.097142222399850   Change is   -0.000001091295144
 Root     29 :    14.273116005973100   Change is   -0.000008200750793
 Root     30 :    14.636932619679740   Change is   -0.000017096945013
 Convergence achieved on expansion vectors.
 ***********************************************************************
 Excited states from <AA,BB:AA,BB> singles matrix:
 ***********************************************************************
 
 1PDM for each excited state written to RWF  633
 Ground to excited state transition densities written to RWF  633
 Ground to excited state transition electric dipole moments (Au):
       state          X           Y           Z        Dip. S.      Osc.
         1         0.0000     -0.0000      0.0000      0.0000      0.0000
         2        -0.0000      0.3424     -0.0000      0.1173      0.0199
         3        -0.0000      0.3859      0.0000      0.1489      0.0280
         4         0.0000     -0.0000     -0.4095      0.1677      0.0327
         5         0.0800     -0.0000      0.0000      0.0064      0.0013
         6        -0.0000     -0.0000      0.8761      0.7675      0.1564
         7         0.0000      0.0000      0.0000      0.0000      0.0000
         8        -0.0000     -0.0000     -0.0000      0.0000      0.0000
         9        -0.4093      0.0000     -0.0000      0.1676      0.0396
        10         0.0000      0.5438     -0.0000      0.2957      0.0745
        11         0.4655      0.0000     -0.0000      0.2167      0.0556
        12        -0.0000     -0.0000     -0.0000      0.0000      0.0000
        13        -0.0000     -0.0000     -0.2020      0.0408      0.0113
        14        -0.0000     -0.0000     -0.0587      0.0034      0.0010
        15         0.0000     -0.0582      0.0000      0.0034      0.0010
        16         0.0000      0.0000     -0.4705      0.2214      0.0653
        17         0.0000      0.0000      1.0466      1.0953      0.3309
        18        -0.0000     -0.0000      0.0000      0.0000      0.0000
        19        -0.0000     -0.3713      0.0000      0.1379      0.0422
        20         0.0000     -0.5954      0.0000      0.3546      0.1090
        21         0.2622      0.0000     -0.0000      0.0687      0.0215
        22        -0.2053      0.0000      0.0000      0.0421      0.0134
        23        -0.0000     -0.0889     -0.0000      0.0079      0.0025
        24        -0.0000      0.0000     -0.4799      0.2303      0.0740
        25         0.0000      0.3253      0.0000      0.1058      0.0349
        26         0.0000     -0.0000      0.0000      0.0000      0.0000
        27         0.0000     -0.0000      0.1192      0.0142      0.0048
        28        -0.0000     -0.0000      0.0000      0.0000      0.0000
        29         0.0166     -0.0000     -0.0000      0.0003      0.0001
        30         0.0000     -0.0000      0.2941      0.0865      0.0310
 Ground to excited state transition velocity dipole moments (Au):
       state          X           Y           Z        Dip. S.      Osc.
         1         0.0000      0.0000     -0.0000      0.0000      0.0000
         2         0.0000     -0.0893      0.0000      0.0080      0.0208
         3         0.0000     -0.1134      0.0000      0.0129      0.0304
         4        -0.0000     -0.0000      0.1177      0.0138      0.0316
         5        -0.0374      0.0000     -0.0000      0.0014      0.0032
         6         0.0000      0.0000     -0.2559      0.0655      0.1428
         7        -0.0000      0.0000     -0.0000      0.0000      0.0000
         8         0.0000      0.0000      0.0000      0.0000      0.0000
         9         0.1491     -0.0000      0.0000      0.0222      0.0418
        10        -0.0000     -0.2048      0.0000      0.0419      0.0740
        11        -0.1869     -0.0000     -0.0000      0.0349      0.0605
        12         0.0000      0.0000      0.0000      0.0000      0.0000
        13         0.0000      0.0000      0.0893      0.0080      0.0128
        14         0.0000      0.0000      0.0238      0.0006      0.0009
        15        -0.0000      0.0037     -0.0000      0.0000      0.0000
        16        -0.0000     -0.0000      0.1992      0.0397      0.0598
        17        -0.0000     -0.0000     -0.4812      0.2316      0.3407
        18         0.0000      0.0000     -0.0000      0.0000      0.0000
        19         0.0000      0.1679     -0.0000      0.0282      0.0410
        20        -0.0000      0.2720     -0.0000      0.0740      0.1070
        21        -0.1015     -0.0000      0.0000      0.0103      0.0146
        22         0.0933     -0.0000     -0.0000      0.0087      0.0121
        23         0.0000      0.0432      0.0000      0.0019      0.0026
        24         0.0000     -0.0000      0.2224      0.0495      0.0685
        25         0.0000     -0.1623     -0.0000      0.0263      0.0355
        26        -0.0000      0.0000     -0.0000      0.0000      0.0000
        27        -0.0000      0.0000     -0.0538      0.0029      0.0038
        28         0.0000      0.0000     -0.0000      0.0000      0.0000
        29        -0.0018     -0.0000      0.0000      0.0000      0.0000
        30        -0.0000     -0.0000     -0.1567      0.0246      0.0304
 Ground to excited state transition magnetic dipole moments (Au):
       state          X           Y           Z
         1         0.0000      0.0000      1.1777
         2        -0.4067     -0.0000      0.0000
         3         0.6505     -0.0000      0.0000
         4         0.0000     -0.0000     -0.0000
         5         0.0000     -1.5998     -0.0000
         6        -0.0000      0.0000      0.0000
         7         0.0000      0.0000     -0.0356
         8         0.0000      0.0000     -0.7559
         9        -0.0000      0.0033      0.0000
        10        -0.7719     -0.0000     -0.0000
        11        -0.0000      0.1051      0.0000
        12         0.0000     -0.0000      0.0362
        13        -0.0000      0.0000     -0.0000
        14        -0.0000      0.0000     -0.0000
        15         0.4926      0.0000      0.0000
        16         0.0000     -0.0000      0.0000
        17        -0.0000     -0.0000      0.0000
        18        -0.0000      0.0000     -0.0180
        19        -0.1927      0.0000     -0.0000
        20         0.3590     -0.0000     -0.0000
        21        -0.0000     -0.1149     -0.0000
        22         0.0000      0.2873     -0.0000
        23        -0.4933      0.0000     -0.0000
        24         0.0000      0.0000      0.0000
        25        -0.5584     -0.0000     -0.0000
        26        -0.0000     -0.0000     -0.0174
        27        -0.0000     -0.0000      0.0000
        28        -0.0000      0.0000      0.0332
        29        -0.0000     -0.1261     -0.0000
        30        -0.0000     -0.0000     -0.0000
 Ground to excited state transition velocity quadrupole moments (Au):
       state          XX          YY          ZZ          XY          XZ          YZ
         1         0.0000      0.0000      0.0000     -0.0769      0.0000      0.0000
         2         0.0000     -0.0000      0.0000     -0.0000     -0.0000      0.4599
         3        -0.0000     -0.0000     -0.0000      0.0000     -0.0000     -0.0444
         4        -0.0180     -0.2544     -0.2708     -0.0000     -0.0000     -0.0000
         5         0.0000      0.0000      0.0000      0.0000     -0.3025     -0.0000
         6         0.2106     -0.0051     -0.1597     -0.0000      0.0000      0.0000
         7        -0.0000      0.0000      0.0000     -0.0478      0.0000      0.0000
         8        -0.0000      0.0000     -0.0000      0.2085      0.0000     -0.0000
         9         0.0000      0.0000     -0.0000     -0.0000     -0.1405      0.0000
        10         0.0000     -0.0000      0.0000      0.0000      0.0000      0.4654
        11        -0.0000      0.0000      0.0000     -0.0000     -0.2850      0.0000
        12        -0.0000     -0.0000     -0.0000      0.2821     -0.0000     -0.0000
        13         0.7098     -0.0191     -0.0624     -0.0000      0.0000     -0.0000
        14         0.2201     -0.1260      0.1527     -0.0000      0.0000     -0.0000
        15         0.0000      0.0000      0.0000     -0.0000      0.0000      0.3343
        16        -0.2847     -0.6747     -0.6459     -0.0000     -0.0000      0.0000
        17        -0.0537      0.2830      0.3677     -0.0000      0.0000      0.0000
        18        -0.0000      0.0000      0.0000      0.3478      0.0000     -0.0000
        19        -0.0000      0.0000      0.0000     -0.0000     -0.0000     -0.2412
        20        -0.0000      0.0000      0.0000      0.0000     -0.0000     -0.6760
        21         0.0000      0.0000     -0.0000     -0.0000      0.0617      0.0000
        22         0.0000     -0.0000     -0.0000     -0.0000     -0.0161     -0.0000
        23         0.0000      0.0000      0.0000      0.0000      0.0000      0.1395
        24         0.1712      0.5141      0.2456      0.0000      0.0000      0.0000
        25        -0.0000     -0.0000     -0.0000     -0.0000     -0.0000     -0.2760
        26        -0.0000     -0.0000     -0.0000     -0.2513      0.0000      0.0000
        27         0.3264      1.0934      0.2708      0.0000     -0.0000     -0.0000
        28         0.0000      0.0000      0.0000      0.3193     -0.0000     -0.0000
        29        -0.0000     -0.0000     -0.0000      0.0000      0.0473      0.0000
        30        -0.1846      0.4484     -0.1540      0.0000     -0.0000      0.0000
 <0|del|b> * <b|rxdel|0> + <0|del|b> * <b|delr+rdel|0>
 Rotatory Strengths (R) in cgs (10**-40 erg-esu-cm/Gauss)
       state          XX          YY          ZZ    R(velocity)    E-M Angle
         1        -0.0000     -0.0000      0.0000     -0.0000       90.00
         2         0.0000      0.0000     -0.0000     -0.0000       90.00
         3         0.0000      0.0000      0.0000      0.0000       90.00
         4        -0.0000     -0.0000      0.0000     -0.0000       90.00
         5        -0.0000      0.0000     -0.0000     -0.0000       90.00
         6        -0.0000     -0.0000      0.0000     -0.0000       90.00
         7         0.0000     -0.0000      0.0000      0.0000       90.00
         8        -0.0000     -0.0000      0.0000     -0.0000       90.00
         9        -0.0000     -0.0000     -0.0000     -0.0000       90.00
        10         0.0000      0.0000      0.0000      0.0000       90.00
        11        -0.0000      0.0000      0.0000      0.0000       90.00
        12         0.0000     -0.0000      0.0000      0.0000       90.00
        13        -0.0000      0.0000      0.0000     -0.0000       90.00
        14        -0.0000     -0.0000      0.0000     -0.0000       90.00
        15        -0.0000     -0.0000     -0.0000     -0.0000       90.00
        16        -0.0000      0.0000      0.0000      0.0000       90.00
        17         0.0000     -0.0000      0.0000     -0.0000       90.00
        18        -0.0000      0.0000      0.0000      0.0000       90.00
        19         0.0000     -0.0000      0.0000     -0.0000       90.00
        20        -0.0000      0.0000     -0.0000     -0.0000       90.00
        21         0.0000     -0.0000      0.0000      0.0000       90.00
        22        -0.0000      0.0000      0.0000      0.0000       90.00
        23         0.0000     -0.0000     -0.0000     -0.0000       90.00
        24         0.0000     -0.0000     -0.0000      0.0000       90.00
        25        -0.0000     -0.0000      0.0000     -0.0000       90.00
        26         0.0000     -0.0000      0.0000      0.0000       90.00
        27        -0.0000      0.0000     -0.0000     -0.0000       90.00
        28        -0.0000      0.0000      0.0000     -0.0000       90.00
        29         0.0000     -0.0000      0.0000      0.0000       90.00
        30        -0.0000      0.0000      0.0000      0.0000       90.00
 1/2[<0|r|b>*<b|rxdel|0> + (<0|rxdel|b>*<b|r|0>)*]
 Rotatory Strengths (R) in cgs (10**-40 erg-esu-cm/Gauss)
       state          XX          YY          ZZ     R(length)
         1        -0.0000      0.0000     -0.0000     -0.0000
         2        -0.0000      0.0000      0.0000      0.0000
         3         0.0000      0.0000     -0.0000      0.0000
         4        -0.0000     -0.0000     -0.0000     -0.0000
         5        -0.0000     -0.0000      0.0000     -0.0000
         6        -0.0000      0.0000     -0.0000     -0.0000
         7        -0.0000     -0.0000      0.0000      0.0000
         8         0.0000      0.0000     -0.0000     -0.0000
         9        -0.0000     -0.0000      0.0000     -0.0000
        10         0.0000      0.0000     -0.0000      0.0000
        11         0.0000     -0.0000      0.0000      0.0000
        12         0.0000     -0.0000      0.0000      0.0000
        13        -0.0000      0.0000     -0.0000     -0.0000
        14        -0.0000      0.0000     -0.0000     -0.0000
        15        -0.0000      0.0000     -0.0000     -0.0000
        16        -0.0000      0.0000      0.0000      0.0000
        17         0.0000      0.0000     -0.0000     -0.0000
        18        -0.0000      0.0000      0.0000      0.0000
        19        -0.0000      0.0000      0.0000      0.0000
        20        -0.0000     -0.0000      0.0000     -0.0000
        21         0.0000      0.0000     -0.0000      0.0000
        22         0.0000     -0.0000      0.0000      0.0000
        23        -0.0000      0.0000     -0.0000     -0.0000
        24         0.0000     -0.0000      0.0000      0.0000
        25         0.0000      0.0000      0.0000      0.0000
        26         0.0000     -0.0000      0.0000      0.0000
        27         0.0000     -0.0000     -0.0000     -0.0000
        28        -0.0000      0.0000     -0.0000     -0.0000
        29         0.0000     -0.0000     -0.0000     -0.0000
        30         0.0000     -0.0000      0.0000      0.0000
  1/2[<0|del|b>*<b|r|0> + (<0|r|b>*<b|del|0>)*] (Au)
       state          X           Y           Z        Dip. S.   Osc.(frdel)
         1         0.0000     -0.0000     -0.0000      0.0000      0.0000
         2        -0.0000     -0.0306     -0.0000      0.0306      0.0204
         3        -0.0000     -0.0437      0.0000      0.0437      0.0292
         4        -0.0000      0.0000     -0.0482      0.0482      0.0321
         5        -0.0030     -0.0000     -0.0000      0.0030      0.0020
         6        -0.0000     -0.0000     -0.2242      0.2242      0.1495
         7        -0.0000      0.0000     -0.0000      0.0000      0.0000
         8        -0.0000     -0.0000     -0.0000      0.0000      0.0000
         9        -0.0610     -0.0000     -0.0000      0.0610      0.0407
        10        -0.0000     -0.1114     -0.0000      0.1114      0.0742
        11        -0.0870     -0.0000      0.0000      0.0870      0.0580
        12        -0.0000     -0.0000     -0.0000      0.0000      0.0000
        13        -0.0000     -0.0000     -0.0180      0.0180      0.0120
        14        -0.0000     -0.0000     -0.0014      0.0014      0.0009
        15        -0.0000     -0.0002     -0.0000      0.0002      0.0001
        16        -0.0000     -0.0000     -0.0937      0.0937      0.0625
        17        -0.0000     -0.0000     -0.5036      0.5036      0.3357
        18        -0.0000     -0.0000     -0.0000      0.0000      0.0000
        19        -0.0000     -0.0623     -0.0000      0.0623      0.0416
        20        -0.0000     -0.1620     -0.0000      0.1620      0.1080
        21        -0.0266     -0.0000     -0.0000      0.0266      0.0178
        22        -0.0191     -0.0000     -0.0000      0.0191      0.0128
        23        -0.0000     -0.0038     -0.0000      0.0038      0.0026
        24        -0.0000     -0.0000     -0.1067      0.1067      0.0712
        25         0.0000     -0.0528     -0.0000      0.0528      0.0352
        26        -0.0000     -0.0000     -0.0000      0.0000      0.0000
        27        -0.0000     -0.0000     -0.0064      0.0064      0.0043
        28        -0.0000     -0.0000     -0.0000      0.0000      0.0000
        29        -0.0000      0.0000     -0.0000      0.0000      0.0000
        30        -0.0000      0.0000     -0.0461      0.0461      0.0307

 Excitation energies and oscillator strengths:
 
 Excited State   1:      Singlet-A2     3.4242 eV  362.08 nm  f=0.0000  <S**2>=0.000
       3 -> 27         0.00217
       3 -> 38         0.00182
       3 -> 45         0.00274
       4 -> 27         0.00156
       4 -> 38        -0.00044
       4 -> 45        -0.00138
       5 ->  9         0.01905
       5 -> 13        -0.00157
       5 -> 17         0.00511
       5 -> 23         0.00057
       5 -> 29         0.00429
       5 -> 31        -0.00160
       5 -> 37         0.00295
       5 -> 44         0.00056
       5 -> 48         0.00014
       5 -> 52         0.00068
       6 -> 27        -0.00032
       6 -> 38        -0.00088
       6 -> 45         0.00175
       7 -> 12        -0.00063
       7 -> 15         0.00333
       7 -> 18        -0.00311
       7 -> 22         0.00031
       7 -> 25         0.00140
       7 -> 30        -0.00103
       7 -> 33         0.00045
       7 -> 35         0.00017
       7 -> 40         0.00016
       7 -> 42        -0.00012
       7 -> 49         0.00024
       7 -> 50         0.00032
       7 -> 53         0.00048
       8 ->  9         0.70624
       8 -> 13        -0.03289
       8 -> 17         0.02260
       8 -> 23        -0.00880
       8 -> 29         0.00998
       8 -> 31        -0.00166
       8 -> 37         0.00026
       8 -> 48        -0.00027
       8 -> 52         0.00179
       3 <- 27         0.00135
       3 <- 38         0.00148
       3 <- 45         0.00282
       4 <- 27         0.00234
       4 <- 38         0.00012
       4 <- 45        -0.00115
       5 <-  9        -0.00055
       5 <- 13        -0.00077
       5 <- 17        -0.00101
       5 <- 23         0.00050
       5 <- 29        -0.00071
       5 <- 31         0.00074
       5 <- 37         0.00146
       5 <- 44         0.00021
       5 <- 48         0.00014
       5 <- 52         0.00018
       6 <- 27         0.00028
       6 <- 38        -0.00077
       6 <- 45         0.00137
       7 <- 12        -0.00060
       7 <- 15        -0.00802
       7 <- 18         0.00102
       7 <- 22         0.00746
       7 <- 30         0.00394
       7 <- 33        -0.00120
       7 <- 35         0.00214
       7 <- 40         0.00090
       7 <- 50         0.00021
       7 <- 53         0.00135
       8 <-  9        -0.02864
       8 <- 13         0.00231
       8 <- 17        -0.00478
       8 <- 23         0.00075
       8 <- 29        -0.00129
       8 <- 31        -0.00062
       8 <- 37        -0.00117
       8 <- 52         0.00051
 This state for optimization and/or second-order correction.
 Total Energy, E(TD-HF/TD-DFT) =  -114.404685300    
 Copying the excited state density for this state as the 1-particle RhoCI density.
 
 Excited State   2:      Singlet-B2     6.9382 eV  178.70 nm  f=0.0199  <S**2>=0.000
       3 -> 12         0.00165
       3 -> 15         0.00065
       3 -> 18         0.00128
       3 -> 22        -0.00033
       3 -> 25         0.00121
       3 -> 33         0.00025
       3 -> 35        -0.00051
       3 -> 40        -0.00020
       3 -> 49         0.00013
       4 -> 12        -0.00255
       4 -> 15         0.00203
       4 -> 18         0.00185
       4 -> 22        -0.00322
       4 -> 25         0.00310
       4 -> 30         0.00034
       4 -> 33        -0.00033
       4 -> 35         0.00045
       4 -> 40         0.00044
       4 -> 42        -0.00013
       5 -> 10        -0.00814
       5 -> 11        -0.00709
       5 -> 14         0.00708
       5 -> 16        -0.00065
       5 -> 19        -0.00245
       5 -> 20         0.00273
       5 -> 21         0.00578
       5 -> 24        -0.00058
       5 -> 26         0.00212
       5 -> 28         0.00099
       5 -> 32        -0.00106
       5 -> 34        -0.00099
       5 -> 36        -0.00018
       5 -> 39        -0.00024
       5 -> 41        -0.00048
       5 -> 43        -0.00048
       5 -> 46        -0.00021
       5 -> 54         0.00012
       6 -> 12        -0.00074
       6 -> 15         0.00142
       6 -> 18         0.00127
       6 -> 22        -0.00226
       6 -> 25         0.00096
       6 -> 30        -0.00052
       6 -> 33        -0.00028
       6 -> 35         0.00058
       6 -> 42        -0.00016
       6 -> 49         0.00043
       6 -> 50        -0.00022
       7 -> 38        -0.00067
       7 -> 45         0.00020
       8 -> 10         0.70262
       8 -> 11        -0.07361
       8 -> 14         0.01954
       8 -> 16        -0.00408
       8 -> 19         0.00153
       8 -> 20         0.01749
       8 -> 21        -0.00235
       8 -> 26         0.00293
       8 -> 28         0.00105
       8 -> 32         0.00095
       8 -> 34         0.00075
       8 -> 36         0.00030
       8 -> 39         0.00032
       8 -> 41        -0.00024
       8 -> 43         0.00059
       8 -> 46        -0.00037
       8 -> 47         0.00016
       8 -> 51        -0.00016
       8 -> 54         0.00021
       3 <- 12         0.00037
       3 <- 15         0.00051
       3 <- 18         0.00048
       3 <- 22        -0.00052
       3 <- 25         0.00067
       3 <- 30        -0.00011
       3 <- 33         0.00021
       3 <- 35        -0.00045
       3 <- 40        -0.00021
       3 <- 49         0.00018
       4 <- 12         0.00077
       4 <- 15         0.00197
       4 <- 18         0.00176
       4 <- 22        -0.00202
       4 <- 25         0.00210
       4 <- 30         0.00024
       4 <- 33        -0.00015
       4 <- 35         0.00020
       4 <- 40         0.00011
       4 <- 42        -0.00022
       4 <- 50        -0.00014
       5 <- 10         0.00227
       5 <- 11        -0.00024
       5 <- 14         0.00462
       5 <- 16        -0.00054
       5 <- 19        -0.00037
       5 <- 20         0.00076
       5 <- 21         0.00171
       5 <- 24        -0.00213
       5 <- 26         0.00143
       5 <- 28         0.00011
       5 <- 32        -0.00078
       5 <- 34        -0.00089
       5 <- 36        -0.00024
       5 <- 39        -0.00014
       5 <- 41        -0.00029
       5 <- 43        -0.00038
       5 <- 46        -0.00019
       6 <- 15        -0.00026
       6 <- 18         0.00097
       6 <- 22        -0.00046
       6 <- 25         0.00032
       6 <- 30         0.00036
       6 <- 33        -0.00033
       6 <- 35         0.00063
       6 <- 42        -0.00015
       6 <- 49         0.00035
       6 <- 50        -0.00024
       6 <- 53         0.00017
       7 <- 38        -0.00050
       7 <- 45         0.00020
       8 <- 10        -0.00144
       8 <- 11        -0.00061
       8 <- 14        -0.00433
       8 <- 16        -0.00056
       8 <- 19         0.00036
       8 <- 20        -0.00071
       8 <- 21        -0.00147
       8 <- 24         0.00181
       8 <- 26        -0.00086
       8 <- 28        -0.00042
       8 <- 32         0.00091
       8 <- 36         0.00031
       8 <- 39         0.00020
       8 <- 43         0.00036
       8 <- 46        -0.00020
 
 Excited State   3:      Singlet-B2     7.6783 eV  161.47 nm  f=0.0280  <S**2>=0.000
       3 -> 12        -0.00035
       3 -> 15        -0.00104
       3 -> 18         0.00117
       3 -> 22         0.00052
       3 -> 30         0.00260
       3 -> 33         0.00016
       3 -> 35        -0.00067
       3 -> 40        -0.00057
       3 -> 49         0.00065
       3 -> 50        -0.00018
       4 -> 12         0.00239
       4 -> 15         0.00048
       4 -> 18         0.00173
       4 -> 22        -0.00149
       4 -> 25         0.00274
       4 -> 30        -0.00143
       4 -> 33         0.00049
       4 -> 35        -0.00059
       4 -> 49         0.00023
       5 -> 10        -0.00520
       5 -> 11        -0.00018
       5 -> 14         0.01013
       5 -> 16        -0.00672
       5 -> 19        -0.00024
       5 -> 20        -0.00472
       5 -> 21         0.00268
       5 -> 24        -0.00075
       5 -> 26         0.00168
       5 -> 28         0.00154
       5 -> 34        -0.00079
       5 -> 36        -0.00042
       5 -> 39         0.00048
       5 -> 41        -0.00065
       5 -> 43         0.00020
       5 -> 46         0.00092
       5 -> 51        -0.00043
       6 -> 12        -0.00277
       6 -> 15        -0.00135
       6 -> 18        -0.00073
       6 -> 22         0.00106
       6 -> 25         0.00017
       6 -> 30         0.00120
       6 -> 33        -0.00055
       6 -> 35         0.00149
       6 -> 40         0.00115
       6 -> 49        -0.00133
       6 -> 50         0.00028
       6 -> 53         0.00012
       7 -> 27         0.00028
       7 -> 38        -0.00080
       7 -> 45        -0.00209
       8 -> 10         0.07362
       8 -> 11         0.70213
       8 -> 14        -0.00020
       8 -> 16         0.00852
       8 -> 19        -0.03656
       8 -> 20        -0.00236
       8 -> 21        -0.00270
       8 -> 24         0.00062
       8 -> 26        -0.00049
       8 -> 28         0.00236
       8 -> 32         0.00010
       8 -> 34        -0.00021
       8 -> 36        -0.00027
       8 -> 39        -0.00027
       8 -> 41        -0.00107
       8 -> 43         0.00039
       8 -> 46         0.00248
       8 -> 51        -0.00114
       3 <- 12         0.00034
       3 <- 15        -0.00033
       3 <- 18         0.00104
       3 <- 25         0.00019
       3 <- 30         0.00138
       3 <- 33         0.00027
       3 <- 35        -0.00068
       3 <- 40        -0.00052
       3 <- 49         0.00059
       3 <- 50        -0.00012
       3 <- 53        -0.00034
       4 <- 12         0.00029
       4 <- 15         0.00088
       4 <- 18         0.00036
       4 <- 22        -0.00117
       4 <- 25         0.00118
       4 <- 30        -0.00077
       4 <- 33         0.00046
       4 <- 35        -0.00031
       4 <- 49         0.00017
       5 <- 10         0.00117
       5 <- 11        -0.00140
       5 <- 14         0.00275
       5 <- 16        -0.00043
       5 <- 19         0.00155
       5 <- 20        -0.00036
       5 <- 21         0.00084
       5 <- 24        -0.00142
       5 <- 26         0.00015
       5 <- 28         0.00063
       5 <- 32        -0.00084
       5 <- 34         0.00011
       5 <- 36         0.00012
       5 <- 39         0.00012
       5 <- 41        -0.00069
       5 <- 43         0.00011
       5 <- 46         0.00088
       5 <- 47        -0.00010
       5 <- 51        -0.00030
       6 <- 12        -0.00026
       6 <- 15        -0.00115
       6 <- 18         0.00041
       6 <- 22         0.00097
       6 <- 25        -0.00015
       6 <- 30         0.00123
       6 <- 33        -0.00048
       6 <- 35         0.00132
       6 <- 40         0.00093
       6 <- 49        -0.00108
       6 <- 50         0.00021
       7 <- 27         0.00039
       7 <- 38        -0.00064
       7 <- 45        -0.00174
       8 <- 10        -0.00087
       8 <- 11        -0.00207
       8 <- 14        -0.00363
       8 <- 16         0.00039
       8 <- 19         0.00554
       8 <- 20         0.00046
       8 <- 21        -0.00193
       8 <- 24        -0.00049
       8 <- 26        -0.00165
       8 <- 28         0.00065
       8 <- 32        -0.00132
       8 <- 34         0.00168
       8 <- 39        -0.00075
       8 <- 41        -0.00101
       8 <- 43         0.00018
       8 <- 46         0.00199
       8 <- 47        -0.00029
       8 <- 51        -0.00075
 
 Excited State   4:      Singlet-A1     7.9562 eV  155.83 nm  f=0.0327  <S**2>=0.000
       3 -> 10         0.00243
       3 -> 11         0.00026
       3 -> 14         0.00164
       3 -> 19        -0.00325
       3 -> 20         0.00223
       3 -> 21         0.00130
       3 -> 24         0.00109
       3 -> 26         0.00164
       3 -> 28         0.00086
       3 -> 32         0.00029
       3 -> 34        -0.00103
       3 -> 36        -0.00021
       3 -> 39         0.00014
       3 -> 41        -0.00018
       3 -> 43         0.00011
       3 -> 46         0.00028
       3 -> 47        -0.00027
       3 -> 51        -0.00013
       3 -> 54        -0.00015
       4 -> 10         0.00580
       4 -> 11         0.00338
       4 -> 14         0.00488
       4 -> 16         0.00077
       4 -> 19         0.00064
       4 -> 20         0.00309
       4 -> 21        -0.00080
       4 -> 24        -0.00690
       4 -> 26         0.00252
       4 -> 28        -0.00021
       4 -> 32        -0.00065
       4 -> 34         0.00042
       4 -> 36         0.00013
       4 -> 43         0.00016
       4 -> 46        -0.00022
       4 -> 47        -0.00011
       4 -> 51        -0.00012
       5 -> 12         0.00638
       5 -> 15         0.00495
       5 -> 18         0.00865
       5 -> 22        -0.00272
       5 -> 25         0.00596
       5 -> 30        -0.00052
       5 -> 33        -0.00033
       5 -> 35         0.00076
       5 -> 40         0.00014
       5 -> 50         0.00012
       5 -> 53        -0.00012
       6 -> 10         0.00883
       6 -> 11        -0.00392
       6 -> 14         0.00325
       6 -> 16        -0.00189
       6 -> 19         0.00495
       6 -> 20        -0.00061
       6 -> 21        -0.00305
       6 -> 24        -0.00594
       6 -> 26        -0.00114
       6 -> 28        -0.00285
       6 -> 32        -0.00020
       6 -> 34        -0.00030
       6 -> 39         0.00024
       6 -> 43         0.00017
       6 -> 47         0.00077
       6 -> 51         0.00022
       6 -> 54        -0.00013
       7 ->  9         0.06053
       7 -> 13         0.01384
       7 -> 17        -0.00123
       7 -> 23         0.00535
       7 -> 29        -0.00121
       7 -> 31        -0.00105
       7 -> 37         0.00058
       7 -> 44         0.00056
       7 -> 48        -0.00028
       8 -> 12         0.70345
       8 -> 15         0.01040
       8 -> 18         0.02790
       8 -> 22        -0.00017
       8 -> 25         0.00527
       8 -> 30        -0.00172
       8 -> 33         0.00196
       8 -> 35        -0.00229
       8 -> 40         0.00018
       8 -> 49        -0.00045
       8 -> 50         0.00024
       8 -> 53        -0.00030
       3 <- 10         0.00076
       3 <- 11         0.00077
       3 <- 14         0.00087
       3 <- 16         0.00017
       3 <- 19        -0.00191
       3 <- 20         0.00097
       3 <- 21         0.00091
       3 <- 24         0.00041
       3 <- 26         0.00114
       3 <- 28         0.00058
       3 <- 32         0.00039
       3 <- 34        -0.00070
       3 <- 36        -0.00013
       3 <- 39         0.00011
       3 <- 43         0.00010
       3 <- 46         0.00035
       3 <- 47        -0.00019
       3 <- 51        -0.00011
       3 <- 54        -0.00013
       4 <- 10         0.00418
       4 <- 11         0.00047
       4 <- 14         0.00337
       4 <- 19         0.00022
       4 <- 20         0.00177
       4 <- 21        -0.00059
       4 <- 24        -0.00372
       4 <- 26         0.00153
       4 <- 32        -0.00086
       4 <- 41        -0.00015
       4 <- 43         0.00013
       4 <- 46        -0.00014
       4 <- 51        -0.00010
       5 <- 12         0.00300
       5 <- 15         0.00350
       5 <- 18         0.00314
       5 <- 22        -0.00107
       5 <- 25         0.00324
       5 <- 30        -0.00026
       5 <- 33        -0.00043
       5 <- 35         0.00067
       5 <- 53        -0.00011
       6 <- 10         0.00210
       6 <- 11        -0.00033
       6 <- 14         0.00128
       6 <- 16        -0.00066
       6 <- 19         0.00154
       6 <- 20        -0.00021
       6 <- 21        -0.00160
       6 <- 24        -0.00288
       6 <- 26        -0.00049
       6 <- 28        -0.00184
       6 <- 32        -0.00029
       6 <- 34        -0.00029
       6 <- 39         0.00012
       6 <- 43         0.00010
       6 <- 46        -0.00017
       6 <- 47         0.00063
       6 <- 51         0.00023
       6 <- 54        -0.00011
       7 <-  9        -0.00616
       7 <- 13         0.00296
       7 <- 17        -0.00105
       7 <- 23         0.00283
       7 <- 29        -0.00100
       7 <- 31        -0.00065
       7 <- 37         0.00043
       7 <- 44         0.00049
       7 <- 48        -0.00027
       8 <- 12        -0.00021
       8 <- 15        -0.00219
       8 <- 18        -0.00177
       8 <- 22        -0.00076
       8 <- 25        -0.00109
       8 <- 30        -0.00164
       8 <- 33         0.00077
       8 <- 35        -0.00089
       8 <- 40         0.00031
       8 <- 49        -0.00044
       8 <- 50         0.00015
       8 <- 53        -0.00029
 
 Excited State   5:      Singlet-B1     8.0718 eV  153.60 nm  f=0.0013  <S**2>=0.000
       3 ->  9        -0.03351
       3 -> 13         0.00463
       3 -> 17        -0.00685
       3 -> 23         0.00378
       3 -> 29        -0.00241
       3 -> 31        -0.00032
       3 -> 44         0.00061
       3 -> 48         0.00023
       3 -> 52         0.00113
       4 ->  9         0.01674
       4 -> 13        -0.00275
       4 -> 17         0.00094
       4 -> 23        -0.00249
       4 -> 31        -0.00240
       4 -> 37        -0.00042
       4 -> 48        -0.00159
       4 -> 52        -0.00095
       5 -> 27        -0.00165
       5 -> 38         0.00208
       5 -> 45         0.00268
       6 ->  9         0.70520
       6 -> 13        -0.03300
       6 -> 17         0.02224
       6 -> 23        -0.01237
       6 -> 29         0.00761
       6 -> 31         0.00380
       6 -> 37        -0.00262
       6 -> 44        -0.00352
       6 -> 48         0.00547
       6 -> 52         0.00193
       7 -> 10         0.00247
       7 -> 11         0.00695
       7 -> 16        -0.01232
       7 -> 19        -0.00324
       7 -> 20         0.00237
       7 -> 21         0.00351
       7 -> 24         0.00249
       7 -> 26         0.00194
       7 -> 28        -0.00472
       7 -> 32        -0.00129
       7 -> 36        -0.00155
       7 -> 39         0.00028
       7 -> 41        -0.00202
       7 -> 43         0.00101
       7 -> 46         0.00490
       7 -> 47         0.00235
       7 -> 51         0.00110
       7 -> 54         0.00055
       8 -> 27         0.00275
       8 -> 38         0.00093
       8 -> 45         0.00680
       3 <-  9        -0.01046
       3 <- 13         0.00067
       3 <- 17        -0.00337
       3 <- 23         0.00043
       3 <- 29        -0.00146
       3 <- 31        -0.00021
       3 <- 37        -0.00015
       3 <- 44        -0.00012
       3 <- 48         0.00052
       3 <- 52         0.00091
       4 <-  9         0.00548
       4 <- 17         0.00249
       4 <- 23        -0.00030
       4 <- 29         0.00225
       4 <- 31        -0.00230
       4 <- 37         0.00017
       4 <- 44         0.00020
       4 <- 48        -0.00137
       4 <- 52        -0.00052
       5 <- 27        -0.00169
       5 <- 38         0.00158
       5 <- 45         0.00236
       6 <-  9        -0.02143
       6 <- 13         0.00304
       6 <- 17        -0.00305
       6 <- 23         0.00058
       6 <- 29        -0.00209
       6 <- 31         0.00308
       6 <- 37        -0.00265
       6 <- 44        -0.00218
       6 <- 48         0.00477
       6 <- 52         0.00070
       7 <- 10         0.00177
       7 <- 11         0.00289
       7 <- 14         0.00082
       7 <- 16         0.00048
       7 <- 19        -0.00849
       7 <- 20         0.00841
       7 <- 21         0.00710
       7 <- 24         0.00669
       7 <- 26         0.00419
       7 <- 28         0.00068
       7 <- 32        -0.00122
       7 <- 34         0.00154
       7 <- 36        -0.00249
       7 <- 39         0.00050
       7 <- 41        -0.00142
       7 <- 43         0.00097
       7 <- 46         0.00438
       7 <- 47         0.00191
       7 <- 51         0.00076
       7 <- 54         0.00102
       8 <- 27         0.00247
       8 <- 38         0.00094
       8 <- 45         0.00597
 
 Excited State   6:      Singlet-A1     8.3162 eV  149.09 nm  f=0.1564  <S**2>=0.000
       3 -> 10         0.00433
       3 -> 11         0.01311
       3 -> 14         0.00609
       3 -> 16        -0.00149
       3 -> 19        -0.02195
       3 -> 20         0.00639
       3 -> 21         0.00776
       3 -> 24         0.00789
       3 -> 26         0.01023
       3 -> 28         0.00243
       3 -> 32         0.00337
       3 -> 34        -0.00372
       3 -> 36        -0.00255
       3 -> 39         0.00165
       3 -> 41         0.00029
       3 -> 43         0.00085
       3 -> 46         0.00182
       3 -> 47         0.00053
       3 -> 54         0.00029
       4 -> 10         0.03123
       4 -> 11        -0.01262
       4 -> 14         0.01777
       4 -> 16         0.00089
       4 -> 19         0.01028
       4 -> 20         0.00931
       4 -> 21         0.00104
       4 -> 24        -0.00852
       4 -> 26         0.00590
       4 -> 28         0.00071
       4 -> 32        -0.00137
       4 -> 34         0.00338
       4 -> 36         0.00089
       4 -> 39        -0.00019
       4 -> 46        -0.00090
       4 -> 47        -0.00142
       5 -> 12         0.03807
       5 -> 15         0.04025
       5 -> 18         0.00291
       5 -> 22        -0.00139
       5 -> 25         0.01515
       5 -> 30        -0.00437
       5 -> 33        -0.00280
       5 -> 35         0.00079
       5 -> 40         0.00160
       5 -> 42         0.00083
       5 -> 49         0.00055
       5 -> 50        -0.00039
       5 -> 53        -0.00044
       6 -> 10        -0.02729
       6 -> 11        -0.03832
       6 -> 14        -0.01164
       6 -> 16        -0.02973
       6 -> 19         0.06492
       6 -> 20        -0.05224
       6 -> 21        -0.03325
       6 -> 24        -0.03004
       6 -> 26        -0.01641
       6 -> 28        -0.01229
       6 -> 32        -0.00018
       6 -> 34        -0.00373
       6 -> 36         0.00298
       6 -> 39        -0.00015
       6 -> 41        -0.00128
       6 -> 43         0.00019
       6 -> 46         0.00089
       6 -> 47         0.00164
       6 -> 51         0.00063
       6 -> 54        -0.00014
       7 ->  9         0.67263
       7 -> 13         0.03629
       7 -> 17        -0.02890
       7 -> 23         0.00961
       7 -> 29        -0.00591
       7 -> 31        -0.00048
       7 -> 37        -0.00020
       7 -> 44        -0.00070
       7 -> 48         0.00058
       7 -> 52         0.00099
       8 -> 12        -0.06128
       8 -> 15         0.17374
       8 -> 18        -0.02829
       8 -> 22        -0.05516
       8 -> 25         0.00482
       8 -> 30        -0.01505
       8 -> 33         0.00685
       8 -> 35        -0.00833
       8 -> 40        -0.00321
       8 -> 42        -0.00042
       8 -> 49         0.00060
       8 -> 50         0.00045
       8 -> 53        -0.00108
       3 <- 10         0.00206
       3 <- 11         0.00718
       3 <- 14         0.00415
       3 <- 16        -0.00028
       3 <- 19        -0.01347
       3 <- 20         0.00430
       3 <- 21         0.00608
       3 <- 24         0.00550
       3 <- 26         0.00664
       3 <- 28         0.00174
       3 <- 32         0.00288
       3 <- 34        -0.00226
       3 <- 36        -0.00178
       3 <- 39         0.00122
       3 <- 41         0.00017
       3 <- 43         0.00079
       3 <- 46         0.00192
       3 <- 47         0.00077
       3 <- 54         0.00029
       4 <- 10         0.01020
       4 <- 11        -0.00462
       4 <- 14         0.00655
       4 <- 19         0.00531
       4 <- 20         0.00489
       4 <- 21         0.00034
       4 <- 24        -0.00470
       4 <- 26         0.00392
       4 <- 32        -0.00173
       4 <- 34         0.00245
       4 <- 36         0.00051
       4 <- 39        -0.00015
       4 <- 41        -0.00018
       4 <- 46        -0.00036
       4 <- 47        -0.00132
       4 <- 51         0.00023
       5 <- 12         0.00903
       5 <- 15         0.01302
       5 <- 18         0.00155
       5 <- 22        -0.00073
       5 <- 25         0.00781
       5 <- 30        -0.00243
       5 <- 33        -0.00191
       5 <- 35         0.00074
       5 <- 40         0.00133
       5 <- 42         0.00062
       5 <- 49         0.00044
       5 <- 50        -0.00035
       5 <- 53        -0.00037
       6 <- 10        -0.00450
       6 <- 11        -0.00674
       6 <- 14        -0.00287
       6 <- 16        -0.00891
       6 <- 19         0.02221
       6 <- 20        -0.02030
       6 <- 21        -0.01480
       6 <- 24        -0.01516
       6 <- 26        -0.00928
       6 <- 28        -0.00726
       6 <- 32         0.00013
       6 <- 34        -0.00290
       6 <- 36         0.00203
       6 <- 41        -0.00084
       6 <- 43         0.00016
       6 <- 46         0.00041
       6 <- 47         0.00135
       6 <- 51         0.00043
       7 <-  9        -0.08532
       7 <- 13         0.01382
       7 <- 17        -0.01402
       7 <- 23         0.00838
       7 <- 29        -0.00610
       7 <- 31         0.00074
       7 <- 37        -0.00043
       7 <- 44        -0.00019
       7 <- 52         0.00079
       8 <- 12         0.00100
       8 <- 15         0.02547
       8 <- 18        -0.00500
       8 <- 22        -0.01969
       8 <- 25         0.00159
       8 <- 30        -0.00860
       8 <- 33         0.00439
       8 <- 35        -0.00557
       8 <- 40        -0.00242
       8 <- 42        -0.00033
       8 <- 49         0.00040
       8 <- 50         0.00034
       8 <- 53        -0.00093
 
 Excited State   7:      Singlet-A2     8.4807 eV  146.20 nm  f=0.0000  <S**2>=0.000
       3 -> 27        -0.00037
       3 -> 38        -0.00031
       3 -> 45        -0.00012
       4 -> 38         0.00041
       5 ->  9         0.00364
       5 -> 13        -0.00644
       5 -> 17         0.00660
       5 -> 23        -0.00239
       5 -> 29        -0.00025
       5 -> 31         0.00113
       5 -> 37        -0.00083
       5 -> 44        -0.00018
       6 -> 27         0.00021
       6 -> 38         0.00031
       6 -> 45        -0.00012
       7 -> 12         0.00066
       7 -> 15        -0.00191
       7 -> 18         0.00202
       7 -> 22        -0.00081
       7 -> 30        -0.00010
       7 -> 35        -0.00012
       8 ->  9         0.03213
       8 -> 13         0.70572
       8 -> 17         0.02410
       8 -> 23         0.01525
       8 -> 29         0.00019
       8 -> 31         0.00183
       8 -> 37        -0.00043
       8 -> 48         0.00016
       3 <- 38        -0.00017
       3 <- 45        -0.00018
       4 <- 27        -0.00012
       5 <-  9        -0.00051
       5 <- 13        -0.00028
       5 <- 17         0.00042
       5 <- 37        -0.00019
       6 <- 38         0.00018
       7 <- 12        -0.00048
       7 <- 15        -0.00114
       7 <- 18         0.00082
       7 <- 22        -0.00079
       7 <- 25        -0.00043
       7 <- 30         0.00025
       7 <- 33         0.00031
       7 <- 35        -0.00050
       7 <- 40        -0.00032
       8 <-  9         0.00093
       8 <- 13         0.00109
       8 <- 17         0.00023
       8 <- 29        -0.00011
 
 Excited State   8:      Singlet-A2     9.2062 eV  134.67 nm  f=0.0000  <S**2>=0.000
       3 -> 27        -0.00101
       3 -> 38        -0.00047
       3 -> 45         0.00063
       4 -> 27        -0.00580
       4 -> 38         0.00054
       4 -> 45        -0.00069
       5 ->  9         0.70495
       5 -> 13        -0.03902
       5 -> 17         0.01244
       5 -> 23        -0.01481
       5 -> 29         0.00260
       5 -> 31        -0.00036
       5 -> 37        -0.00522
       5 -> 44        -0.00195
       5 -> 48        -0.00017
       5 -> 52         0.00038
       6 -> 27        -0.00147
       6 -> 38         0.00179
       6 -> 45         0.00068
       7 -> 12         0.01734
       7 -> 15         0.01472
       7 -> 18         0.00120
       7 -> 22        -0.00555
       7 -> 25         0.00096
       7 -> 30        -0.00117
       7 -> 35        -0.00074
       7 -> 40        -0.00023
       7 -> 42        -0.00022
       7 -> 49        -0.00036
       7 -> 50        -0.00067
       7 -> 53         0.00013
       8 ->  9        -0.01993
       8 -> 13        -0.00382
       8 -> 17         0.01578
       8 -> 23         0.00247
       8 -> 29         0.00328
       8 -> 31         0.00044
       8 -> 37         0.00373
       8 -> 44         0.00032
       8 -> 48         0.00016
       8 -> 52         0.00065
       3 <- 27        -0.00145
       3 <- 38        -0.00061
       3 <- 45         0.00083
       4 <- 27        -0.00455
       4 <- 38         0.00052
       4 <- 45        -0.00020
       5 <-  9        -0.00993
       5 <- 13         0.00209
       5 <- 17        -0.00091
       5 <- 29         0.00072
       5 <- 31        -0.00240
       5 <- 37        -0.00295
       5 <- 44        -0.00033
       5 <- 48        -0.00029
       5 <- 52         0.00014
       6 <- 27        -0.00154
       6 <- 38         0.00122
       6 <- 45         0.00043
       7 <- 12        -0.00169
       7 <- 15        -0.00187
       7 <- 22        -0.00189
       7 <- 25        -0.00246
       7 <- 30         0.00081
       7 <- 33         0.00046
       7 <- 35        -0.00074
       7 <- 40        -0.00057
       7 <- 42        -0.00047
       7 <- 49        -0.00053
       7 <- 50        -0.00075
       7 <- 53         0.00043
       8 <-  9         0.00025
       8 <- 13        -0.00044
       8 <- 17        -0.00160
       8 <- 23         0.00057
       8 <- 29        -0.00235
       8 <- 31         0.00245
       8 <- 37         0.00148
       8 <- 44        -0.00012
       8 <- 48         0.00013
       8 <- 52         0.00013
 
 Excited State   9:      Singlet-B1     9.6444 eV  128.56 nm  f=0.0396  <S**2>=0.000
       3 ->  9         0.00351
       3 -> 13         0.00126
       3 -> 17         0.00050
       3 -> 23        -0.00041
       3 -> 29        -0.00025
       3 -> 31        -0.00034
       3 -> 44        -0.00041
       3 -> 48         0.00023
       3 -> 52        -0.00015
       4 ->  9         0.01485
       4 -> 13        -0.00079
       4 -> 23        -0.00237
       4 -> 29        -0.00013
       4 -> 31         0.00101
       4 -> 37        -0.00050
       4 -> 44        -0.00012
       4 -> 48        -0.00025
[...]
  48        5S         -0.00155  -0.00000   0.00488   0.00800   0.00622
  49        5PX         0.00000  -0.00000   0.00000   0.00000   0.00000
  50        5PY         0.00000  -0.00000  -0.01794  -0.03299  -0.03072
  51        5PZ        -0.00023  -0.00000   0.00254   0.00332   0.00048
  52        6D 0        0.00031   0.00000  -0.00074  -0.00125  -0.00115
  53        6D+1        0.00000   0.00000   0.00000   0.00000  -0.00000
  54        6D-1       -0.00000  -0.00000  -0.00216  -0.00206   0.00236
  55        6D+2        0.00002  -0.00000  -0.00007  -0.00007  -0.00001
  56        6D-2       -0.00000   0.00000   0.00000  -0.00000  -0.00000
                          26        27        28        29        30
  26        4PX         0.00024
  27        4PY        -0.00000   0.00110
  28        4PZ         0.00000  -0.00047   0.00046
  29 3   H  1S          0.00000  -0.00209  -0.00226   0.07984
  30        2S          0.00000  -0.00235  -0.00359   0.11544   0.17130
  31        3S          0.00000  -0.00003  -0.00185   0.04495   0.07733
  32        4PX         0.00024   0.00000   0.00000  -0.00000  -0.00000
  33        4PY         0.00000  -0.00053  -0.00007   0.00790   0.01032
  34        4PZ        -0.00000   0.00007  -0.00009   0.00439   0.00608
  35 4   O  1S          0.00000  -0.00015  -0.00084   0.00227   0.00169
  36        2S          0.00000  -0.00039  -0.00097   0.00382   0.00331
  37        2PX         0.00514   0.00000  -0.00000  -0.00000  -0.00000
  38        2PY         0.00000  -0.00329   0.00154   0.02002   0.05269
  39        2PZ         0.00000  -0.00131  -0.00356   0.01252   0.01969
  40        3S         -0.00000   0.00181   0.00152  -0.01278  -0.01303
  41        3PX         0.00758   0.00000  -0.00000  -0.00000  -0.00000
  42        3PY         0.00000  -0.00483   0.00229   0.02816   0.07508
  43        3PZ         0.00000  -0.00186  -0.00510   0.01786   0.02807
  44        4S         -0.00000   0.00118  -0.00119  -0.00580  -0.00238
  45        4PX         0.00632   0.00000  -0.00000  -0.00000  -0.00000
  46        4PY         0.00000  -0.00368   0.00137   0.03391   0.08016
  47        4PZ         0.00000  -0.00152  -0.00281   0.01306   0.01982
  48        5S          0.00000  -0.00041  -0.00183   0.00488   0.00800
  49        5PX         0.00061   0.00000   0.00000  -0.00000  -0.00000
  50        5PY         0.00000   0.00002  -0.00055   0.01794   0.03299
  51        5PZ         0.00000  -0.00042   0.00008   0.00254   0.00332
  52        6D 0       -0.00000   0.00005   0.00038  -0.00074  -0.00125
  53        6D+1       -0.00048  -0.00000   0.00000  -0.00000  -0.00000
  54        6D-1       -0.00000   0.00040  -0.00032   0.00216   0.00206
  55        6D+2       -0.00000   0.00001   0.00001  -0.00007  -0.00007
  56        6D-2       -0.00000   0.00000   0.00000   0.00000  -0.00000
                          31        32        33        34        35
  31        3S          0.06127
  32        4PX        -0.00000   0.00024
  33        4PY         0.00135  -0.00000   0.00110
  34        4PZ         0.00140  -0.00000   0.00047   0.00046
  35 4   O  1S          0.00070  -0.00000   0.00015  -0.00084   0.64017
  36        2S          0.00082  -0.00000   0.00039  -0.00097   0.56981
  37        2PX        -0.00000   0.00514   0.00000   0.00000   0.00000
  38        2PY         0.08474   0.00000  -0.00329  -0.00154   0.00000
  39        2PZ         0.01298  -0.00000   0.00131  -0.00356  -0.01154
  40        3S         -0.00142   0.00000  -0.00181   0.00152  -0.13796
  41        3PX        -0.00000   0.00758   0.00000   0.00000   0.00000
  42        3PY         0.12226   0.00000  -0.00483  -0.00229   0.00000
  43        3PZ         0.01854  -0.00000   0.00186  -0.00510  -0.01384
  44        4S          0.00658   0.00000  -0.00118  -0.00119  -0.13484
  45        4PX        -0.00000   0.00632   0.00000   0.00000   0.00000
  46        4PY         0.11466   0.00000  -0.00368  -0.00137   0.00000
  47        4PZ         0.01122  -0.00000   0.00152  -0.00281  -0.01239
  48        5S          0.00622  -0.00000   0.00041  -0.00183   0.00095
  49        5PX        -0.00000   0.00061   0.00000  -0.00000   0.00000
  50        5PY         0.03072   0.00000   0.00002   0.00055   0.00000
  51        5PZ         0.00048  -0.00000   0.00042   0.00008  -0.00181
  52        6D 0       -0.00115   0.00000  -0.00005   0.00038  -0.00061
  53        6D+1        0.00000  -0.00048  -0.00000  -0.00000   0.00000
  54        6D-1       -0.00236  -0.00000   0.00040   0.00032   0.00000
  55        6D+2       -0.00001   0.00000  -0.00001   0.00001  -0.00075
  56        6D-2       -0.00000   0.00000  -0.00000   0.00000  -0.00000
                          36        37        38        39        40
  36        2S          0.52456
  37        2PX         0.00000   0.11142
  38        2PY         0.00000  -0.00000   0.18472
  39        2PZ        -0.01801   0.00000   0.00000   0.12855
  40        3S         -0.23229   0.00000   0.00000   0.05193   0.71980
  41        3PX         0.00000   0.16414  -0.00000   0.00000   0.00000
  42        3PY         0.00000  -0.00000   0.26774  -0.00000  -0.00000
  43        3PZ        -0.02263   0.00000   0.00000   0.18315   0.06890
  44        4S         -0.21021   0.00000   0.00000   0.12140   0.59797
  45        4PX         0.00000   0.13696  -0.00000   0.00000   0.00000
  46        4PY         0.00000  -0.00000   0.23820  -0.00000  -0.00000
  47        4PZ        -0.02090   0.00000   0.00000   0.10982   0.06534
  48        5S         -0.00253   0.00000   0.00000   0.06238   0.02141
  49        5PX         0.00000   0.01311  -0.00000   0.00000   0.00000
  50        5PY         0.00000  -0.00000   0.04858  -0.00000  -0.00000
  51        5PZ        -0.00275   0.00000   0.00000   0.00278   0.00748
  52        6D 0       -0.00112  -0.00000  -0.00000  -0.01122   0.00366
  53        6D+1        0.00000  -0.01049   0.00000   0.00000  -0.00000
  54        6D-1        0.00000   0.00000  -0.00980   0.00000  -0.00000
  55        6D+2       -0.00120   0.00000  -0.00000   0.00024   0.00357
  56        6D-2       -0.00000   0.00000  -0.00000   0.00000   0.00000
                          41        42        43        44        45
  41        3PX         0.24181
  42        3PY        -0.00000   0.38808
  43        3PZ         0.00000   0.00000   0.26098
  44        4S          0.00000   0.00000   0.16892   0.54689
  45        4PX         0.20177  -0.00000   0.00000   0.00000   0.16837
  46        4PY        -0.00000   0.34511  -0.00000  -0.00000  -0.00000
  47        4PZ         0.00000   0.00000   0.15630   0.11977   0.00000
  48        5S          0.00000   0.00000   0.08893   0.05587   0.00000
  49        5PX         0.01931  -0.00000   0.00000   0.00000   0.01612
  50        5PY        -0.00000   0.07019  -0.00000  -0.00000  -0.00000
  51        5PZ         0.00000   0.00000   0.00390   0.00735   0.00000
  52        6D 0       -0.00000  -0.00000  -0.01605  -0.00423  -0.00000
  53        6D+1       -0.01545   0.00000   0.00000  -0.00000  -0.01289
  54        6D-1        0.00000  -0.01427   0.00000   0.00000   0.00000
  55        6D+2        0.00000  -0.00000   0.00031   0.00295   0.00000
  56        6D-2        0.00000  -0.00000   0.00000   0.00000   0.00000
                          46        47        48        49        50
  46        4PY         0.30858
  47        4PZ         0.00000   0.09473
  48        5S          0.00000   0.05308   0.03048
  49        5PX        -0.00000   0.00000   0.00000   0.00154
  50        5PY         0.06485  -0.00000  -0.00000  -0.00000   0.01622
  51        5PZ         0.00000   0.00280   0.00117   0.00000   0.00000
  52        6D 0       -0.00000  -0.00929  -0.00553  -0.00000  -0.00000
  53        6D+1        0.00000   0.00000   0.00000  -0.00123   0.00000
  54        6D-1       -0.01208   0.00000   0.00000   0.00000  -0.00170
  55        6D+2       -0.00000   0.00031   0.00010  -0.00000  -0.00000
  56        6D-2       -0.00000   0.00000   0.00000   0.00000   0.00000
                          51        52        53        54        55
  51        5PZ         0.00034
  52        6D 0       -0.00012   0.00109
  53        6D+1        0.00000   0.00000   0.00099
  54        6D-1        0.00000   0.00000   0.00000   0.00074
  55        6D+2        0.00004   0.00002  -0.00000   0.00000   0.00002
  56        6D-2        0.00000   0.00000  -0.00000   0.00000  -0.00000
                          56
  56        6D-2        0.00000
          Condensed to atoms (all electrons):
               1          2          3          4
     1  C    4.876610   0.375054   0.375054   0.375151
     2  H    0.375054   0.632915  -0.087395  -0.054514
     3  H    0.375054  -0.087395   0.632915  -0.054514
     4  O    0.375151  -0.054514  -0.054514   7.999888
 Mulliken charges:
               1
     1  C   -0.001869
     2  H    0.133940
     3  H    0.133940
     4  O   -0.266011
 Sum of Mulliken charges =   0.00000
 Mulliken charges with hydrogens summed into heavy atoms:
               1
     1  C    0.266011
     4  O   -0.266011
 Electronic spatial extent (au):  <R**2>=             64.6073
 Charge=              0.0000 electrons
 Dipole moment (field-independent basis, Debye):
    X=             -0.0000    Y=              0.0000    Z=             -2.8765  Tot=              2.8765
 Quadrupole moment (field-independent basis, Debye-Ang):
   XX=            -12.0214   YY=            -11.7321   ZZ=            -12.1904
   XY=              0.0000   XZ=              0.0000   YZ=              0.0000
 Traceless Quadrupole moment (field-independent basis, Debye-Ang):
   XX=             -0.0401   YY=              0.2492   ZZ=             -0.2091
   XY=              0.0000   XZ=              0.0000   YZ=              0.0000
 Octapole moment (field-independent basis, Debye-Ang**2):
  XXX=              0.0000  YYY=              0.0000  ZZZ=             -0.5180  XYY=             -0.0000
  XXY=             -0.0000  XXZ=              0.6056  XZZ=             -0.0000  YZZ=             -0.0000
  YYZ=             -1.0701  XYZ=             -0.0000
 Hexadecapole moment (field-independent basis, Debye-Ang**3):
 XXXX=            -11.3410 YYYY=            -18.6066 ZZZZ=            -50.6611 XXXY=             -0.0000
 XXXZ=             -0.0000 YYYX=             -0.0000 YYYZ=             -0.0000 ZZZX=             -0.0000
 ZZZY=              0.0000 XXYY=             -5.3415 XXZZ=            -10.4581 YYZZ=            -10.9787
 XXYZ=              0.0000 YYXZ=              0.0000 ZZXY=              0.0000
 N-N= 2.964625840167D+01 E-N=-3.281429175826D+02  KE= 1.138320211912D+02
 Symmetry A1   KE= 1.034093990908D+02
 Symmetry A2   KE= 2.412021243014D-35
 Symmetry B1   KE= 3.636358778373D+00
 Symmetry B2   KE= 6.786263322023D+00
 Leave Link  601 at Fri Sep 17 10:52:47 2021, MaxMem=   268435456 cpu:               0.1 elap:               0.1
 (Enter /software/gaussian/g16-a03/l9999.exe)
 Electronic transition elements 
                 1             2             3             4             5 
      1  -0.114405D+03 -0.114276D+03 -0.114248D+03 -0.114238D+03 -0.114234D+03
      2   0.000000D+00  0.000000D+00  0.000000D+00  0.000000D+00  0.800261D-01
      3   0.000000D+00  0.342429D+00  0.385931D+00  0.000000D+00  0.000000D+00
      4   0.000000D+00  0.000000D+00  0.000000D+00 -0.409499D+00  0.000000D+00
      5   0.000000D+00  0.000000D+00  0.000000D+00  0.000000D+00 -0.374479D-01
      6   0.000000D+00 -0.892513D-01 -0.113358D+00  0.000000D+00  0.000000D+00
      7   0.000000D+00  0.000000D+00  0.000000D+00  0.117671D+00  0.000000D+00
      8   0.000000D+00 -0.406677D+00  0.650535D+00  0.000000D+00  0.000000D+00
      9   0.000000D+00  0.000000D+00  0.000000D+00  0.000000D+00 -0.159980D+01
     10   0.117773D+01  0.000000D+00  0.000000D+00  0.000000D+00  0.000000D+00
     11   0.000000D+00  0.000000D+00  0.000000D+00 -0.179719D-01  0.000000D+00
     12   0.000000D+00  0.000000D+00  0.000000D+00 -0.254360D+00  0.000000D+00
     13   0.000000D+00  0.000000D+00  0.000000D+00 -0.270794D+00  0.000000D+00
     14  -0.768981D-01  0.000000D+00  0.000000D+00  0.000000D+00  0.000000D+00
     15   0.000000D+00  0.000000D+00  0.000000D+00  0.000000D+00 -0.302479D+00
     16   0.000000D+00  0.459949D+00 -0.443717D-01  0.000000D+00  0.000000D+00
                 6             7             8             9            10 
      1  -0.114225D+03 -0.114219D+03 -0.114192D+03 -0.114176D+03 -0.114152D+03
      2   0.000000D+00  0.000000D+00  0.000000D+00 -0.409344D+00  0.000000D+00
      3   0.000000D+00  0.000000D+00  0.000000D+00  0.000000D+00  0.543788D+00
      4   0.876067D+00  0.000000D+00  0.000000D+00  0.000000D+00  0.000000D+00
      5   0.000000D+00  0.000000D+00  0.000000D+00  0.149055D+00  0.000000D+00
      6   0.000000D+00  0.000000D+00  0.000000D+00  0.000000D+00 -0.204810D+00
      7  -0.255894D+00  0.000000D+00  0.000000D+00  0.000000D+00  0.000000D+00
      8   0.000000D+00  0.000000D+00  0.000000D+00  0.000000D+00 -0.771924D+00
      9   0.000000D+00  0.000000D+00  0.000000D+00  0.331529D-02  0.000000D+00
     10   0.000000D+00 -0.356304D-01 -0.755899D+00  0.000000D+00  0.000000D+00
     11   0.210637D+00  0.000000D+00  0.000000D+00  0.000000D+00  0.000000D+00
     12  -0.513464D-02  0.000000D+00  0.000000D+00  0.000000D+00  0.000000D+00
     13  -0.159698D+00  0.000000D+00  0.000000D+00  0.000000D+00  0.000000D+00
     14   0.000000D+00 -0.478010D-01  0.208510D+00  0.000000D+00  0.000000D+00
     15   0.000000D+00  0.000000D+00  0.000000D+00 -0.140518D+00  0.000000D+00
     16   0.000000D+00  0.000000D+00  0.000000D+00  0.000000D+00  0.465426D+00
                11            12            13            14            15 
      1  -0.114146D+03 -0.114139D+03 -0.114114D+03 -0.114110D+03 -0.114107D+03
      2   0.465501D+00  0.000000D+00  0.000000D+00  0.000000D+00  0.000000D+00
      3   0.000000D+00  0.000000D+00  0.000000D+00  0.000000D+00 -0.582341D-01
      4   0.000000D+00  0.000000D+00 -0.202011D+00 -0.586831D-01  0.000000D+00
      5  -0.186852D+00  0.000000D+00  0.000000D+00  0.000000D+00  0.000000D+00
      6   0.000000D+00  0.000000D+00  0.000000D+00  0.000000D+00  0.365534D-02
      7   0.000000D+00  0.000000D+00  0.892646D-01  0.237787D-01  0.000000D+00
      8   0.000000D+00  0.000000D+00  0.000000D+00  0.000000D+00  0.492605D+00
      9   0.105108D+00  0.000000D+00  0.000000D+00  0.000000D+00  0.000000D+00
     10   0.000000D+00  0.362117D-01  0.000000D+00  0.000000D+00  0.000000D+00
     11   0.000000D+00  0.000000D+00  0.709777D+00  0.220126D+00  0.000000D+00
     12   0.000000D+00  0.000000D+00 -0.190734D-01 -0.125993D+00  0.000000D+00
     13   0.000000D+00  0.000000D+00 -0.623838D-01  0.152726D+00  0.000000D+00
     14   0.000000D+00  0.282071D+00  0.000000D+00  0.000000D+00  0.000000D+00
     15  -0.285039D+00  0.000000D+00  0.000000D+00  0.000000D+00  0.000000D+00
     16   0.000000D+00  0.000000D+00  0.000000D+00  0.000000D+00  0.334276D+00
                16            17            18            19            20 
      1  -0.114088D+03 -0.114077D+03 -0.114076D+03 -0.114072D+03 -0.114070D+03
      2   0.000000D+00  0.000000D+00  0.000000D+00  0.000000D+00  0.000000D+00
      3   0.000000D+00  0.000000D+00  0.000000D+00 -0.371330D+00 -0.595449D+00
      4  -0.470531D+00  0.104656D+01  0.000000D+00  0.000000D+00  0.000000D+00
      5   0.000000D+00  0.000000D+00  0.000000D+00  0.000000D+00  0.000000D+00
      6   0.000000D+00  0.000000D+00  0.000000D+00  0.167897D+00  0.271994D+00
      7   0.199217D+00 -0.481211D+00  0.000000D+00  0.000000D+00  0.000000D+00
      8   0.000000D+00  0.000000D+00  0.000000D+00 -0.192737D+00  0.359015D+00
      9   0.000000D+00  0.000000D+00  0.000000D+00  0.000000D+00  0.000000D+00
     10   0.000000D+00  0.000000D+00 -0.180093D-01  0.000000D+00  0.000000D+00
     11  -0.284662D+00 -0.537203D-01  0.000000D+00  0.000000D+00  0.000000D+00
     12  -0.674693D+00  0.283024D+00  0.000000D+00  0.000000D+00  0.000000D+00
     13  -0.645881D+00  0.367697D+00  0.000000D+00  0.000000D+00  0.000000D+00
     14   0.000000D+00  0.000000D+00  0.347799D+00  0.000000D+00  0.000000D+00
     15   0.000000D+00  0.000000D+00  0.000000D+00  0.000000D+00  0.000000D+00
     16   0.000000D+00  0.000000D+00  0.000000D+00 -0.241171D+00 -0.675987D+00
                21            22            23            24            25 
      1  -0.114061D+03 -0.114052D+03 -0.114049D+03 -0.114049D+03 -0.114035D+03
      2   0.262201D+00 -0.205297D+00  0.000000D+00  0.000000D+00  0.000000D+00
      3   0.000000D+00  0.000000D+00 -0.889449D-01  0.000000D+00  0.325312D+00
      4   0.000000D+00  0.000000D+00  0.000000D+00 -0.479875D+00  0.000000D+00
      5  -0.101544D+00  0.932538D-01  0.000000D+00  0.000000D+00  0.000000D+00
      6   0.000000D+00  0.000000D+00  0.431830D-01  0.000000D+00 -0.162284D+00
      7   0.000000D+00  0.000000D+00  0.000000D+00  0.222420D+00  0.000000D+00
      8   0.000000D+00  0.000000D+00 -0.493334D+00  0.000000D+00 -0.558404D+00
      9  -0.114917D+00  0.287289D+00  0.000000D+00  0.000000D+00  0.000000D+00
     10   0.000000D+00  0.000000D+00  0.000000D+00  0.000000D+00  0.000000D+00
     11   0.000000D+00  0.000000D+00  0.000000D+00  0.171241D+00  0.000000D+00
     12   0.000000D+00  0.000000D+00  0.000000D+00  0.514112D+00  0.000000D+00
     13   0.000000D+00  0.000000D+00  0.000000D+00  0.245604D+00  0.000000D+00
     14   0.000000D+00  0.000000D+00  0.000000D+00  0.000000D+00  0.000000D+00
     15   0.616729D-01 -0.161075D-01  0.000000D+00  0.000000D+00  0.000000D+00
     16   0.000000D+00  0.000000D+00  0.139461D+00  0.000000D+00 -0.275965D+00
                26            27            28            29            30 
      1  -0.114025D+03 -0.114021D+03 -0.114012D+03 -0.114006D+03 -0.113993D+03
      2   0.000000D+00  0.000000D+00  0.000000D+00  0.166206D-01  0.000000D+00
      3   0.000000D+00  0.000000D+00  0.000000D+00  0.000000D+00  0.000000D+00
      4   0.000000D+00  0.119207D+00  0.000000D+00  0.000000D+00  0.294069D+00
      5   0.000000D+00  0.000000D+00  0.000000D+00 -0.184372D-02  0.000000D+00
      6   0.000000D+00  0.000000D+00  0.000000D+00  0.000000D+00  0.000000D+00
      7   0.000000D+00 -0.538224D-01  0.000000D+00  0.000000D+00 -0.156685D+00
      8   0.000000D+00  0.000000D+00  0.000000D+00  0.000000D+00  0.000000D+00
      9   0.000000D+00  0.000000D+00  0.000000D+00 -0.126098D+00  0.000000D+00
     10  -0.174266D-01  0.000000D+00  0.332125D-01  0.000000D+00  0.000000D+00
     11   0.000000D+00  0.326352D+00  0.000000D+00  0.000000D+00 -0.184632D+00
     12   0.000000D+00  0.109343D+01  0.000000D+00  0.000000D+00  0.448427D+00
     13   0.000000D+00  0.270777D+00  0.000000D+00  0.000000D+00 -0.153985D+00
     14  -0.251329D+00  0.000000D+00  0.319272D+00  0.000000D+00  0.000000D+00
     15   0.000000D+00  0.000000D+00  0.000000D+00  0.472892D-01  0.000000D+00
     16   0.000000D+00  0.000000D+00  0.000000D+00  0.000000D+00  0.000000D+00

 Test job not archived.
 1\1\GINC-BHD0001\SP\RB3LYP TD-FC\6-311+G(d,p)\C1H2O1\BWEIGHT\17-Sep-20
 21\0\\#p B3LYP/6-311+G** #p TD=(singlets,nstates=30)IOp(6/8=3) IOp(9/4
 0=4)\\Scan Step 159, Bond Length 1.295\\0,1\C,0,0.,0.,-0.52736\H,0,0.,
 0.93726,-1.11871\H,0,0.,-0.93726,-1.11871\O,0,0.,0.,0.76764\\Version=E
 S64L-G16RevA.03\State=1-A1\HF=-114.5305239\RMSD=3.518e-09\PG=C02V [C2(
 C1O1),SGV(H2)]\\@


 IT IS BY EATING THE LIGHT OF A STAR THAT WE EXIST, 
 IN THE FINAL ANALYSIS, 
 JUST AS IT IS BY PERCEIVING THE LIGHT OF STARS
 THAT WE DEFINE THE WORLD AROUND US.

                                    -- GILBERT GROSVENOR
 Job cpu time:       0 days  0 hours  0 minutes 28.7 seconds.
 Elapsed time:       0 days  0 hours  0 minutes 29.4 seconds.
 File lengths (MBytes):  RWF=     79 Int=      0 D2E=      0 Chk=     32 Scr=      1
 Normal termination of Gaussian 16 at Fri Sep 17 10:52:47 2021.
