 Entering Gaussian System, Link 0=g16
 Initial command:
 /software/gaussian/g16-c01/sse4/g16/l1.exe "/local_scratch/24665367/Gau-29502.inp" -scrdir="/local_scratch/24665367/"
 Entering Link 1 = /software/gaussian/g16-c01/sse4/g16/l1.exe PID=     29503.
  
 Copyright (c) 1988-2019, Gaussian, Inc.  All Rights Reserved.
  
 This is part of the Gaussian(R) 16 program.  It is based on
 the Gaussian(R) 09 system (copyright 2009, Gaussian, Inc.),
 the Gaussian(R) 03 system (copyright 2003, Gaussian, Inc.),
 the Gaussian(R) 98 system (copyright 1998, Gaussian, Inc.),
 the Gaussian(R) 94 system (copyright 1995, Gaussian, Inc.),
 the Gaussian 92(TM) system (copyright 1992, Gaussian, Inc.),
 the Gaussian 90(TM) system (copyright 1990, Gaussian, Inc.),
 the Gaussian 88(TM) system (copyright 1988, Gaussian, Inc.),
 the Gaussian 86(TM) system (copyright 1986, Carnegie Mellon
 University), and the Gaussian 82(TM) system (copyright 1983,
 Carnegie Mellon University). Gaussian is a federally registered
 trademark of Gaussian, Inc.
  
 This software contains proprietary and confidential information,
 including trade secrets, belonging to Gaussian, Inc.
  
 This software is provided under written license and may be
 used, copied, transmitted, or stored only in accord with that
 written license.
  
 The following legend is applicable only to US Government
 contracts under FAR:
  
                    RESTRICTED RIGHTS LEGEND
  
 Use, reproduction and disclosure by the US Government is
 subject to restrictions as set forth in subparagraphs (a)
 and (c) of the Commercial Computer Software - Restricted
 Rights clause in FAR 52.227-19.
  
 Gaussian, Inc.
 340 Quinnipiac St., Bldg. 40, Wallingford CT 06492
  
  
 ---------------------------------------------------------------
 Warning -- This program may not be used in any manner that
 competes with the business of Gaussian, Inc. or will provide
 assistance to any competitor of Gaussian, Inc.  The licensee
 of this program is prohibited from giving any competitor of
 Gaussian, Inc. access to this program.  By using this program,
 the user acknowledges that Gaussian, Inc. is engaged in the
 business of creating and licensing software in the field of
 computational chemistry and represents and warrants to the
 licensee that it is not a competitor of Gaussian, Inc. and that
 it will not use this program in any manner prohibited above.
 ---------------------------------------------------------------
  

 Cite this work as:
 Gaussian 16, Revision C.01,
 M. J. Frisch, G. W. Trucks, H. B. Schlegel, G. E. Scuseria, 
 M. A. Robb, J. R. Cheeseman, G. Scalmani, V. Barone, 
 G. A. Petersson, H. Nakatsuji, X. Li, M. Caricato, A. V. Marenich, 
 J. Bloino, B. G. Janesko, R. Gomperts, B. Mennucci, H. P. Hratchian, 
 J. V. Ortiz, A. F. Izmaylov, J. L. Sonnenberg, D. Williams-Young, 
 F. Ding, F. Lipparini, F. Egidi, J. Goings, B. Peng, A. Petrone, 
 T. Henderson, D. Ranasinghe, V. G. Zakrzewski, J. Gao, N. Rega, 
 G. Zheng, W. Liang, M. Hada, M. Ehara, K. Toyota, R. Fukuda, 
 J. Hasegawa, M. Ishida, T. Nakajima, Y. Honda, O. Kitao, H. Nakai, 
 T. Vreven, K. Throssell, J. A. Montgomery, Jr., J. E. Peralta, 
 F. Ogliaro, M. J. Bearpark, J. J. Heyd, E. N. Brothers, K. N. Kudin, 
 V. N. Staroverov, T. A. Keith, R. Kobayashi, J. Normand, 
 K. Raghavachari, A. P. Rendell, J. C. Burant, S. S. Iyengar, 
 J. Tomasi, M. Cossi, J. M. Millam, M. Klene, C. Adamo, R. Cammi, 
 J. W. Ochterski, R. L. Martin, K. Morokuma, O. Farkas, 
 J. B. Foresman, and D. J. Fox, Gaussian, Inc., Wallingford CT, 2019.
 
 ******************************************
 Gaussian 16:  ES64L-G16RevC.01  3-Jul-2019
                 2-May-2024 
 ******************************************
 %chk=geometry.chk
 %mem=1GB
 %nprocshared=12
 Will use up to   12 processors via shared memory.
 ----------------------------------------
 #P wB97XD/6-311+G* NoSymm #P Field=Z-155
 ----------------------------------------
 1/38=1,172=1/1;
 2/12=2,15=1,17=6,18=5,40=1/2;
 3/5=4,6=6,7=11,11=2,14=3,15=-155,25=1,30=1,74=-58/1,2,3;
 4//1;
 5/5=2,38=5/2;
 6/7=2,8=2,9=2,10=2,28=1/1;
 99/5=1,9=1/99;
 Leave Link    1 at Thu May  2 13:58:19 2024, MaxMem=   134217728 cpu:               2.0 elap:               2.0
 (Enter /software/gaussian/g16-c01/sse4/g16/l101.exe)
 -------
 TitleMe
 -------
 Symbolic Z-matrix:
 Charge =  1 Multiplicity = 1
 C                     0.5193    1.233    -0.0319 
 C                     1.9445    1.2692   -0.0367 
 C                     2.6204    0.0928   -0.025 
 C                    -0.196     0.0301    0.001 
 H                    -0.0207    2.1742   -0.0434 
 H                     2.4828    2.2089   -0.0361 
 H                    -1.2777    0.0399    0.0117 
 N                     4.0921    0.0959    0.0366 
 O                     4.6393   -1.0217    0.1446 
 O                     4.6649    1.1984   -0.0233 
 C                     0.4943   -1.1671    0.021 
 H                    -0.0325   -2.1149    0.0545 
 C                     1.9629   -1.2165   -0.0211 
 H                     2.4436   -1.9631    0.6151 
 Br                    2.173    -1.9491   -1.9062 
 
 ITRead=  0  0  0  0  0  0  0  0  0  0  0  0  0  0  0
 MicOpt= -1 -1 -1 -1 -1 -1 -1 -1 -1 -1 -1 -1 -1 -1 -1
 NAtoms=     15 NQM=       15 NQMF=       0 NMMI=      0 NMMIF=      0
                NMic=       0 NMicF=      0.
                    Isotopes and Nuclear Properties:
 (Nuclear quadrupole moments (NQMom) in fm**2, nuclear magnetic moments (NMagM)
  in nuclear magnetons)

  Atom         1           2           3           4           5           6           7           8           9          10
 IAtWgt=          12          12          12          12           1           1           1          14          16          16
 AtmWgt=  12.0000000  12.0000000  12.0000000  12.0000000   1.0078250   1.0078250   1.0078250  14.0030740  15.9949146  15.9949146
 NucSpn=           0           0           0           0           1           1           1           2           0           0
 AtZEff=  -0.0000000  -0.0000000  -0.0000000  -0.0000000  -0.0000000  -0.0000000  -0.0000000  -0.0000000  -0.0000000  -0.0000000
 NQMom=    0.0000000   0.0000000   0.0000000   0.0000000   0.0000000   0.0000000   0.0000000   2.0440000   0.0000000   0.0000000
 NMagM=    0.0000000   0.0000000   0.0000000   0.0000000   2.7928460   2.7928460   2.7928460   0.4037610   0.0000000   0.0000000
 AtZNuc=   6.0000000   6.0000000   6.0000000   6.0000000   1.0000000   1.0000000   1.0000000   7.0000000   8.0000000   8.0000000

  Atom        11          12          13          14          15
 IAtWgt=          12           1          12           1          79
 AtmWgt=  12.0000000   1.0078250  12.0000000   1.0078250  78.9183361
 NucSpn=           0           1           0           1           3
 AtZEff=  -0.0000000  -0.0000000  -0.0000000  -0.0000000  -0.0000000
 NQMom=    0.0000000   0.0000000   0.0000000   0.0000000  31.3000000
 NMagM=    0.0000000   2.7928460   0.0000000   2.7928460   2.1063990
 AtZNuc=   6.0000000   1.0000000   6.0000000   1.0000000  35.0000000
 Leave Link  101 at Thu May  2 13:58:21 2024, MaxMem=   134217728 cpu:               1.6 elap:               1.6
 (Enter /software/gaussian/g16-c01/sse4/g16/l202.exe)
                          Input orientation:                          
 ---------------------------------------------------------------------
 Center     Atomic      Atomic             Coordinates (Angstroms)
 Number     Number       Type             X           Y           Z
 ---------------------------------------------------------------------
      1          6           0        0.519300    1.233000   -0.031900
      2          6           0        1.944500    1.269200   -0.036700
      3          6           0        2.620400    0.092800   -0.025000
      4          6           0       -0.196000    0.030100    0.001000
      5          1           0       -0.020700    2.174200   -0.043400
      6          1           0        2.482800    2.208900   -0.036100
      7          1           0       -1.277700    0.039900    0.011700
      8          7           0        4.092100    0.095900    0.036600
      9          8           0        4.639300   -1.021700    0.144600
     10          8           0        4.664900    1.198400   -0.023300
     11          6           0        0.494300   -1.167100    0.021000
     12          1           0       -0.032500   -2.114900    0.054500
     13          6           0        1.962900   -1.216500   -0.021100
     14          1           0        2.443600   -1.963100    0.615100
     15         35           0        2.173000   -1.949100   -1.906200
 ---------------------------------------------------------------------
                    Distance matrix (angstroms):
                    1          2          3          4          5
     1  C    0.000000
     2  C    1.425668   0.000000
     3  C    2.390549   1.356796   0.000000
     4  C    1.399895   2.473566   2.817218   0.000000
     5  H    1.085168   2.163581   3.362733   2.151712   0.000000
     6  H    2.192654   1.082960   2.120598   3.453189   2.503751
     7  H    2.157452   3.449071   3.898632   1.081797   2.477564
     8  N    3.750012   2.448304   1.472992   4.288753   4.608780
     9  O    4.699917   3.541615   2.312322   4.950458   5.653735
    10  O    4.145753   2.721354   2.324292   4.999386   4.786171
    11  C    2.400813   2.835836   2.471794   1.382101   3.381369
    12  H    3.394169   3.920329   3.452266   2.151887   4.290233
    13  C    2.843264   2.485817   1.465124   2.493060   3.928360
    14  H    3.786370   3.334922   2.160489   3.364142   4.860416
    15  Br   4.046416   3.728900   2.812194   3.628609   5.028314
                    6          7          8          9         10
     6  H    0.000000
     7  H    4.341452   0.000000
     8  N    2.657047   5.370150   0.000000
     9  O    3.888434   6.012948   1.249048   0.000000
    10  O    2.404752   6.054572   1.243863   2.226587   0.000000
    11  C    3.918516   2.144043   3.813080   4.149391   4.794941
    12  H    5.003018   2.489080   4.679774   4.798846   5.748876
    13  C    3.464662   3.475788   2.501842   2.688591   3.623886
    14  H    4.222698   4.268978   2.700314   2.434893   3.916224
    15  Br   4.569706   4.420610   3.411663   3.338935   4.434144
                   11         12         13         14         15
    11  C    0.000000
    12  H    1.084880   0.000000
    13  C    1.470034   2.189625   0.000000
    14  H    2.187771   2.543302   1.092353   0.000000
    15  Br   2.672762   2.955683   2.033334   2.535818   0.000000
 Symmetry turned off by external request.
 Stoichiometry    C6H5BrNO2(1+)
 Framework group  C1[X(C6H5BrNO2)]
 Deg. of freedom    39
 Full point group                 C1      NOp   1
 Rotational constants (GHZ):           1.1632986           0.9594224           0.5957624
 Leave Link  202 at Thu May  2 13:58:23 2024, MaxMem=   134217728 cpu:               1.4 elap:               1.4
 (Enter /software/gaussian/g16-c01/sse4/g16/l301.exe)
 Standard basis: 6-311+G(d) (5D, 7F)
 Ernie: Thresh=  0.10000D-02 Tol=  0.10000D-05 Strict=F.
 The following finite field(s) will be applied:
 An electric field of              0.0000  0.0000 -0.0155
   261 basis functions,   443 primitive gaussians,   273 cartesian basis functions
    49 alpha electrons       49 beta electrons
       nuclear repulsion energy       772.8945969580 Hartrees.
 IExCor= 4639 DFT=T Ex+Corr=wB97XD ExCW=0 ScaHFX=  1.000000
 ScaDFX=  1.000000  1.000000  1.000000  1.000000 ScalE2=  1.000000  1.000000
 IRadAn=      5 IRanWt=     -1 IRanGd=            0 ICorTp=0 IEmpDi=121
 HFx  wShort=  0.000000 wLong=  0.200000 cFull=  0.222036 cShort=  0.000000 cLong=  0.777964
 DFx  wShort=  0.000000 wLong=  0.200000 cFull=  0.000000 cShort=  0.000000 cLong=  1.000000
 NAtoms=   15 NActive=   15 NUniq=   15 SFac= 1.00D+00 NAtFMM=   60 NAOKFM=F Big=F
 Integral buffers will be    131072 words long.
 Raffenetti 2 integral format.
 Two-electron integral symmetry is turned off.
 R6Disp:  Grimme-D2 Dispersion energy=       -0.0080346408 Hartrees.
 Nuclear repulsion after empirical dispersion term =      772.8865623173 Hartrees.
 Leave Link  301 at Thu May  2 13:58:24 2024, MaxMem=   134217728 cpu:               1.0 elap:               1.0
 (Enter /software/gaussian/g16-c01/sse4/g16/l302.exe)
 NPDir=0 NMtPBC=     1 NCelOv=     1 NCel=       1 NClECP=     1 NCelD=      1
         NCelK=      1 NCelE2=     1 NClLst=     1 CellRange=     0.0.
 One-electron integrals computed using PRISM.
 NBasis=   261 RedAO= T EigKep=  2.52D-06  NBF=   261
 NBsUse=   261 1.00D-06 EigRej= -1.00D+00 NBFU=   261
 Precomputing XC quadrature grid using
 IXCGrd= 4 IRadAn=           5 IRanWt=          -1 IRanGd=           0 AccXCQ= 0.00D+00.
 Generated NRdTot=       0 NPtTot=           0 NUsed=           0 NTot=          32
 NSgBfM=   273   273   273   273   273 MxSgAt=    15 MxSgA2=    15.
 Leave Link  302 at Thu May  2 13:58:46 2024, MaxMem=   134217728 cpu:              21.7 elap:              21.7
 (Enter /software/gaussian/g16-c01/sse4/g16/l303.exe)
 DipDrv:  MaxL=1.
 The nuclear repulsion energy is now       774.8034899156 hartrees.
 Leave Link  303 at Thu May  2 13:58:49 2024, MaxMem=   134217728 cpu:               3.3 elap:               3.3
 (Enter /software/gaussian/g16-c01/sse4/g16/l401.exe)
 ExpMin= 3.50D-02 ExpMax= 4.40D+05 ExpMxC= 1.51D+04 IAcc=3 IRadAn=         5 AccDes= 0.00D+00
 Harris functional with IExCor= 4639 and IRadAn=       5 diagonalized for initial guess.
 HarFok:  IExCor= 4639 AccDes= 0.00D+00 IRadAn=         5 IDoV= 1 UseB2=F ITyADJ=14
 ICtDFT=  3500011 ScaDFX=  1.000000  1.000000  1.000000  1.000000
 FoFCou: FMM=F IPFlag=           0 FMFlag=      100000 FMFlg1=           0
         NFxFlg=           0 DoJE=T BraDBF=F KetDBF=T FulRan=T
         wScrn=  0.000000 ICntrl=       500 IOpCl=  0 I1Cent=   200000004 NGrid=           0
         NMat0=    1 NMatS0=      1 NMatT0=    0 NMatD0=    1 NMtDS0=    0 NMtDT0=    0
 Symmetry not used in FoFCou.
 Harris En= -2970.62294559998    
 JPrj=0 DoOrth=F DoCkMO=F.
 Leave Link  401 at Thu May  2 13:59:20 2024, MaxMem=   134217728 cpu:              31.0 elap:              31.0
 (Enter /software/gaussian/g16-c01/sse4/g16/l502.exe)
 Two-electron integral symmetry not used.
 Closed shell SCF:
 Using DIIS extrapolation, IDIIS=  1040.
 NGot=   134217728 LenX=   134063053 LenY=   133988083
 Requested convergence on RMS density matrix=1.00D-08 within 128 cycles.
 Requested convergence on MAX density matrix=1.00D-06.
 Requested convergence on             energy=1.00D-06.
 No special actions if energy rises.
 Fock matrices will be formed incrementally for  20 cycles.

 Cycle   1  Pass 1  IDiag  1:
 FoFJK:  IHMeth= 1 ICntrl=       0 DoSepK=T KAlg= 0 I1Cent=           0 FoldK=F
 IRaf=         1 NMat=       1 IRICut=       1 DoRegI=T DoRafI=F ISym2E= 0 IDoP0=0 IntGTp=1.
 FoFCou: FMM=F IPFlag=           0 FMFlag=      100000 FMFlg1=           0
         NFxFlg=           0 DoJE=T BraDBF=F KetDBF=F FulRan=T
         wScrn=  0.000000 ICntrl=       500 IOpCl=  0 I1Cent=           0 NGrid=           0
         NMat0=    1 NMatS0=      1 NMatT0=    0 NMatD0=    1 NMtDS0=    0 NMtDT0=    0
 Symmetry not used in FoFCou.
 E= -3009.67325435025    
 DIIS: error= 2.90D-01 at cycle   1 NSaved=   1.
 NSaved= 1 IEnMin= 1 EnMin= -3009.67325435025     IErMin= 1 ErrMin= 2.90D-01
 ErrMax= 2.90D-01  0.00D+00 EMaxC= 1.00D-01 BMatC= 1.19D+01 BMatP= 1.19D+01
 IDIUse=3 WtCom= 0.00D+00 WtEn= 1.00D+00
 Coeff-Com:  0.100D+01
 Coeff-En:   0.100D+01
 Coeff:      0.100D+01
 Gap=     0.362 Goal=   None    Shift=    0.000
 GapD=    0.362 DampG=1.000 DampE=0.250 DampFc=0.2500 IDamp=-1.
 Damping current iteration by 2.50D-01
 RMSDP=7.24D-02 MaxDP=6.81D+00              OVMax= 2.61D-01

 Cycle   2  Pass 1  IDiag  1:
 RMSU=  7.87D-03    CP:  8.74D-01
 E= -3009.97258268802     Delta-E=       -0.299328337764 Rises=F Damp=T
 DIIS: error= 2.18D-01 at cycle   2 NSaved=   2.
 NSaved= 2 IEnMin= 2 EnMin= -3009.97258268802     IErMin= 2 ErrMin= 2.18D-01
 ErrMax= 2.18D-01  0.00D+00 EMaxC= 1.00D-01 BMatC= 5.46D+00 BMatP= 1.19D+01
 IDIUse=3 WtCom= 0.00D+00 WtEn= 1.00D+00
 Coeff-Com: -0.184D+01 0.284D+01
 Coeff-En:   0.000D+00 0.100D+01
 Coeff:      0.000D+00 0.100D+01
 Gap=     0.266 Goal=   None    Shift=    0.000
 RMSDP=5.62D-02 MaxDP=5.52D+00 DE=-2.99D-01 OVMax= 6.88D-02

 Cycle   3  Pass 1  IDiag  1:
 RMSU=  5.16D-03    CP:  4.64D-01  3.00D+00
 E= -3010.37992264559     Delta-E=       -0.407339957570 Rises=F Damp=F
 DIIS: error= 6.53D-02 at cycle   3 NSaved=   3.
 NSaved= 3 IEnMin= 3 EnMin= -3010.37992264559     IErMin= 3 ErrMin= 6.53D-02
 ErrMax= 6.53D-02  0.00D+00 EMaxC= 1.00D-01 BMatC= 7.22D-01 BMatP= 5.46D+00
 IDIUse=3 WtCom= 3.47D-01 WtEn= 6.53D-01
 Coeff-Com:  0.256D+01-0.334D+01 0.179D+01
 Coeff-En:   0.181D-01 0.000D+00 0.982D+00
 Coeff:      0.899D+00-0.116D+01 0.126D+01
 Gap=     0.268 Goal=   None    Shift=    0.000
 RMSDP=1.23D-02 MaxDP=8.82D-01 DE=-4.07D-01 OVMax= 7.34D-02

 Cycle   4  Pass 1  IDiag  1:
 RMSU=  8.42D-03    CP:  5.11D-01  2.40D+00  1.50D+00
 E= -3010.48446244690     Delta-E=       -0.104539801315 Rises=F Damp=F
 DIIS: error= 3.90D-02 at cycle   4 NSaved=   4.
 NSaved= 4 IEnMin= 4 EnMin= -3010.48446244690     IErMin= 4 ErrMin= 3.90D-02
 ErrMax= 3.90D-02  0.00D+00 EMaxC= 1.00D-01 BMatC= 2.40D-01 BMatP= 7.22D-01
 IDIUse=3 WtCom= 6.10D-01 WtEn= 3.90D-01
 Coeff-Com:  0.130D+00-0.159D+00 0.442D+00 0.587D+00
 Coeff-En:   0.000D+00 0.000D+00 0.208D+00 0.792D+00
 Coeff:      0.794D-01-0.969D-01 0.350D+00 0.667D+00
 Gap=     0.266 Goal=   None    Shift=    0.000
 RMSDP=5.53D-03 MaxDP=5.22D-01 DE=-1.05D-01 OVMax= 5.74D-02

 Cycle   5  Pass 1  IDiag  1:
 RMSU=  2.30D-03    CP:  4.76D-01  2.52D+00  1.47D+00  7.73D-01
 E= -3010.52965974986     Delta-E=       -0.045197302962 Rises=F Damp=F
 DIIS: error= 1.04D-02 at cycle   5 NSaved=   5.
 NSaved= 5 IEnMin= 5 EnMin= -3010.52965974986     IErMin= 5 ErrMin= 1.04D-02
 ErrMax= 1.04D-02  0.00D+00 EMaxC= 1.00D-01 BMatC= 1.29D-02 BMatP= 2.40D-01
 IDIUse=3 WtCom= 8.96D-01 WtEn= 1.04D-01
 Coeff-Com: -0.675D-01 0.962D-01 0.162D+00 0.406D+00 0.403D+00
 Coeff-En:   0.000D+00 0.000D+00 0.000D+00 0.000D+00 0.100D+01
 Coeff:     -0.605D-01 0.861D-01 0.145D+00 0.364D+00 0.466D+00
 Gap=     0.256 Goal=   None    Shift=    0.000
 RMSDP=1.41D-03 MaxDP=1.10D-01 DE=-4.52D-02 OVMax= 2.73D-02

 Cycle   6  Pass 1  IDiag  1:
 RMSU=  8.12D-04    CP:  4.76D-01  2.54D+00  1.47D+00  8.65D-01  6.34D-01
 E= -3010.53488148125     Delta-E=       -0.005221731392 Rises=F Damp=F
 DIIS: error= 3.72D-03 at cycle   6 NSaved=   6.
 NSaved= 6 IEnMin= 6 EnMin= -3010.53488148125     IErMin= 6 ErrMin= 3.72D-03
 ErrMax= 3.72D-03  0.00D+00 EMaxC= 1.00D-01 BMatC= 1.20D-03 BMatP= 1.29D-02
 IDIUse=3 WtCom= 9.63D-01 WtEn= 3.72D-02
 Coeff-Com: -0.868D-01 0.117D+00 0.579D-02 0.147D+00 0.318D+00 0.499D+00
 Coeff-En:   0.000D+00 0.000D+00 0.000D+00 0.000D+00 0.123D+00 0.877D+00
 Coeff:     -0.835D-01 0.113D+00 0.558D-02 0.142D+00 0.311D+00 0.513D+00
 Gap=     0.247 Goal=   None    Shift=    0.000
 RMSDP=4.98D-04 MaxDP=3.72D-02 DE=-5.22D-03 OVMax= 1.03D-02

 Cycle   7  Pass 1  IDiag  1:
 RMSU=  2.84D-04    CP:  4.76D-01  2.55D+00  1.47D+00  8.63D-01  7.57D-01
                    CP:  6.57D-01
 E= -3010.53574556025     Delta-E=       -0.000864078995 Rises=F Damp=F
 DIIS: error= 2.78D-04 at cycle   7 NSaved=   7.
 NSaved= 7 IEnMin= 7 EnMin= -3010.53574556025     IErMin= 7 ErrMin= 2.78D-04
 ErrMax= 2.78D-04  0.00D+00 EMaxC= 1.00D-01 BMatC= 1.74D-05 BMatP= 1.20D-03
 IDIUse=3 WtCom= 9.97D-01 WtEn= 2.78D-03
 Coeff-Com: -0.291D-01 0.387D-01-0.136D-01 0.185D-01 0.636D-01 0.165D+00
 Coeff-Com:  0.756D+00
 Coeff-En:   0.000D+00 0.000D+00 0.000D+00 0.000D+00 0.000D+00 0.000D+00
 Coeff-En:   0.100D+01
 Coeff:     -0.291D-01 0.386D-01-0.136D-01 0.184D-01 0.635D-01 0.165D+00
 Coeff:      0.757D+00
 Gap=     0.247 Goal=   None    Shift=    0.000
 RMSDP=2.56D-04 MaxDP=2.04D-02 DE=-8.64D-04 OVMax= 3.00D-03

 Cycle   8  Pass 1  IDiag  1:
 RMSU=  9.62D-05    CP:  4.76D-01  2.55D+00  1.47D+00  8.86D-01  8.05D-01
                    CP:  7.28D-01  1.12D+00
 E= -3010.53578075546     Delta-E=       -0.000035195206 Rises=F Damp=F
 DIIS: error= 1.01D-04 at cycle   8 NSaved=   8.
 NSaved= 8 IEnMin= 8 EnMin= -3010.53578075546     IErMin= 8 ErrMin= 1.01D-04
 ErrMax= 1.01D-04  0.00D+00 EMaxC= 1.00D-01 BMatC= 2.85D-06 BMatP= 1.74D-05
 IDIUse=3 WtCom= 9.99D-01 WtEn= 1.01D-03
 Coeff-Com:  0.920D-02-0.126D-01-0.345D-02-0.195D-01-0.417D-01-0.627D-01
 Coeff-Com:  0.150D+00 0.981D+00
 Coeff-En:   0.000D+00 0.000D+00 0.000D+00 0.000D+00 0.000D+00 0.000D+00
 Coeff-En:   0.000D+00 0.100D+01
 Coeff:      0.920D-02-0.125D-01-0.345D-02-0.194D-01-0.417D-01-0.626D-01
 Coeff:      0.150D+00 0.981D+00
 Gap=     0.246 Goal=   None    Shift=    0.000
 RMSDP=1.18D-04 MaxDP=6.09D-03 DE=-3.52D-05 OVMax= 2.97D-03

 Cycle   9  Pass 1  IDiag  1:
 RMSU=  4.17D-05    CP:  4.76D-01  2.55D+00  1.47D+00  8.94D-01  8.22D-01
                    CP:  7.17D-01  1.36D+00  1.32D+00
 E= -3010.53579421444     Delta-E=       -0.000013458982 Rises=F Damp=F
 DIIS: error= 4.19D-05 at cycle   9 NSaved=   9.
 NSaved= 9 IEnMin= 9 EnMin= -3010.53579421444     IErMin= 9 ErrMin= 4.19D-05
 ErrMax= 4.19D-05  0.00D+00 EMaxC= 1.00D-01 BMatC= 5.72D-07 BMatP= 2.85D-06
 IDIUse=1 WtCom= 1.00D+00 WtEn= 0.00D+00
 Coeff-Com:  0.777D-02-0.104D-01 0.131D-02-0.911D-02-0.205D-01-0.407D-01
 Coeff-Com: -0.960D-01 0.273D+00 0.895D+00
 Coeff:      0.777D-02-0.104D-01 0.131D-02-0.911D-02-0.205D-01-0.407D-01
 Coeff:     -0.960D-01 0.273D+00 0.895D+00
 Gap=     0.247 Goal=   None    Shift=    0.000
 RMSDP=4.68D-05 MaxDP=2.97D-03 DE=-1.35D-05 OVMax= 1.66D-03

 Cycle  10  Pass 1  IDiag  1:
 RMSU=  1.77D-05    CP:  4.76D-01  2.54D+00  1.47D+00  8.94D-01  8.29D-01
                    CP:  7.07D-01  1.45D+00  1.49D+00  1.47D+00
 E= -3010.53579763693     Delta-E=       -0.000003422490 Rises=F Damp=F
 DIIS: error= 2.88D-05 at cycle  10 NSaved=  10.
 NSaved=10 IEnMin=10 EnMin= -3010.53579763693     IErMin=10 ErrMin= 2.88D-05
 ErrMax= 2.88D-05  0.00D+00 EMaxC= 1.00D-01 BMatC= 1.56D-07 BMatP= 5.72D-07
 IDIUse=1 WtCom= 1.00D+00 WtEn= 0.00D+00
 Coeff-Com: -0.242D-03 0.374D-03 0.873D-03 0.164D-02 0.573D-02 0.934D-02
 Coeff-Com: -0.594D-01-0.158D+00 0.216D+00 0.984D+00
 Coeff:     -0.242D-03 0.374D-03 0.873D-03 0.164D-02 0.573D-02 0.934D-02
 Coeff:     -0.594D-01-0.158D+00 0.216D+00 0.984D+00
 Gap=     0.246 Goal=   None    Shift=    0.000
 RMSDP=2.82D-05 MaxDP=2.15D-03 DE=-3.42D-06 OVMax= 9.53D-04

 Cycle  11  Pass 1  IDiag  1:
 RMSU=  9.07D-06    CP:  4.76D-01  2.54D+00  1.47D+00  8.93D-01  8.33D-01
                    CP:  6.94D-01  1.48D+00  1.59D+00  1.80D+00  1.60D+00
 E= -3010.53579861781     Delta-E=       -0.000000980882 Rises=F Damp=F
 DIIS: error= 1.48D-05 at cycle  11 NSaved=  11.
 NSaved=11 IEnMin=11 EnMin= -3010.53579861781     IErMin=11 ErrMin= 1.48D-05
 ErrMax= 1.48D-05  0.00D+00 EMaxC= 1.00D-01 BMatC= 2.45D-08 BMatP= 1.56D-07
 IDIUse=1 WtCom= 1.00D+00 WtEn= 0.00D+00
 Coeff-Com: -0.937D-03 0.126D-02 0.689D-04 0.164D-02 0.368D-02 0.771D-02
 Coeff-Com:  0.138D-01-0.663D-01-0.166D+00 0.712D-01 0.113D+01
 Coeff:     -0.937D-03 0.126D-02 0.689D-04 0.164D-02 0.368D-02 0.771D-02
 Coeff:      0.138D-01-0.663D-01-0.166D+00 0.712D-01 0.113D+01
 Gap=     0.246 Goal=   None    Shift=    0.000
 RMSDP=1.58D-05 MaxDP=1.80D-03 DE=-9.81D-07 OVMax= 5.18D-04

 Cycle  12  Pass 1  IDiag  1:
 RMSU=  3.22D-06    CP:  4.76D-01  2.54D+00  1.47D+00  8.92D-01  8.34D-01
                    CP:  6.87D-01  1.49D+00  1.63D+00  1.97D+00  1.93D+00
                    CP:  1.51D+00
 E= -3010.53579883348     Delta-E=       -0.000000215669 Rises=F Damp=F
 DIIS: error= 7.19D-06 at cycle  12 NSaved=  12.
 NSaved=12 IEnMin=12 EnMin= -3010.53579883348     IErMin=12 ErrMin= 7.19D-06
 ErrMax= 7.19D-06  0.00D+00 EMaxC= 1.00D-01 BMatC= 1.14D-08 BMatP= 2.45D-08
 IDIUse=1 WtCom= 1.00D+00 WtEn= 0.00D+00
 Coeff-Com: -0.283D-03 0.371D-03-0.965D-04 0.411D-03 0.149D-03 0.909D-03
 Coeff-Com:  0.214D-01 0.546D-02-0.128D+00-0.202D+00 0.613D+00 0.689D+00
 Coeff:     -0.283D-03 0.371D-03-0.965D-04 0.411D-03 0.149D-03 0.909D-03
 Coeff:      0.214D-01 0.546D-02-0.128D+00-0.202D+00 0.613D+00 0.689D+00
 Gap=     0.246 Goal=   None    Shift=    0.000
 RMSDP=6.81D-06 MaxDP=8.69D-04 DE=-2.16D-07 OVMax= 1.61D-04

 Cycle  13  Pass 1  IDiag  1:
 RMSU=  1.72D-06    CP:  4.76D-01  2.54D+00  1.47D+00  8.92D-01  8.34D-01
                    CP:  6.85D-01  1.49D+00  1.63D+00  2.02D+00  2.09D+00
                    CP:  1.65D+00  1.07D+00
 E= -3010.53579886654     Delta-E=       -0.000000033063 Rises=F Damp=F
 DIIS: error= 3.38D-06 at cycle  13 NSaved=  13.
 NSaved=13 IEnMin=13 EnMin= -3010.53579886654     IErMin=13 ErrMin= 3.38D-06
 ErrMax= 3.38D-06  0.00D+00 EMaxC= 1.00D-01 BMatC= 8.69D-10 BMatP= 1.14D-08
 IDIUse=1 WtCom= 1.00D+00 WtEn= 0.00D+00
 Coeff-Com:  0.375D-05-0.541D-05-0.488D-04-0.164D-03-0.557D-03-0.133D-02
 Coeff-Com: -0.237D-02 0.748D-02 0.338D-01-0.116D-01-0.182D+00-0.444D-01
 Coeff-Com:  0.120D+01
 Coeff:      0.375D-05-0.541D-05-0.488D-04-0.164D-03-0.557D-03-0.133D-02
 Coeff:     -0.237D-02 0.748D-02 0.338D-01-0.116D-01-0.182D+00-0.444D-01
 Coeff:      0.120D+01
 Gap=     0.246 Goal=   None    Shift=    0.000
 RMSDP=2.06D-06 MaxDP=1.47D-04 DE=-3.31D-08 OVMax= 6.41D-05

 Cycle  14  Pass 1  IDiag  1:
 RMSU=  9.99D-07    CP:  4.76D-01  2.54D+00  1.47D+00  8.92D-01  8.34D-01
                    CP:  6.85D-01  1.49D+00  1.63D+00  2.04D+00  2.09D+00
                    CP:  1.63D+00  1.37D+00  1.52D+00
 E= -3010.53579887176     Delta-E=       -0.000000005219 Rises=F Damp=F
 DIIS: error= 1.15D-06 at cycle  14 NSaved=  14.
 NSaved=14 IEnMin=14 EnMin= -3010.53579887176     IErMin=14 ErrMin= 1.15D-06
 ErrMax= 1.15D-06  0.00D+00 EMaxC= 1.00D-01 BMatC= 1.88D-10 BMatP= 8.69D-10
 IDIUse=1 WtCom= 1.00D+00 WtEn= 0.00D+00
 Coeff-Com:  0.759D-05-0.912D-05-0.130D-04-0.921D-04-0.139D-03-0.453D-03
 Coeff-Com: -0.396D-02 0.132D-02 0.311D-01 0.279D-01-0.156D+00-0.134D+00
 Coeff-Com:  0.415D+00 0.819D+00
 Coeff:      0.759D-05-0.912D-05-0.130D-04-0.921D-04-0.139D-03-0.453D-03
 Coeff:     -0.396D-02 0.132D-02 0.311D-01 0.279D-01-0.156D+00-0.134D+00
 Coeff:      0.415D+00 0.819D+00
 Gap=     0.246 Goal=   None    Shift=    0.000
 RMSDP=5.43D-07 MaxDP=4.18D-05 DE=-5.22D-09 OVMax= 2.02D-05

 Cycle  15  Pass 1  IDiag  1:
 RMSU=  2.55D-07    CP:  4.76D-01  2.54D+00  1.47D+00  8.92D-01  8.34D-01
                    CP:  6.86D-01  1.49D+00  1.63D+00  2.04D+00  2.09D+00
                    CP:  1.61D+00  1.41D+00  1.72D+00  1.08D+00
 E= -3010.53579887240     Delta-E=       -0.000000000640 Rises=F Damp=F
 DIIS: error= 3.94D-07 at cycle  15 NSaved=  15.
 NSaved=15 IEnMin=15 EnMin= -3010.53579887240     IErMin=15 ErrMin= 3.94D-07
 ErrMax= 3.94D-07  0.00D+00 EMaxC= 1.00D-01 BMatC= 2.21D-11 BMatP= 1.88D-10
 IDIUse=1 WtCom= 1.00D+00 WtEn= 0.00D+00
 Coeff-Com:  0.177D-05-0.221D-05 0.523D-05 0.112D-04 0.790D-04 0.158D-03
 Coeff-Com: -0.249D-03-0.788D-03-0.948D-03 0.706D-02 0.369D-02-0.199D-01
 Coeff-Com: -0.124D+00 0.184D+00 0.952D+00
 Coeff:      0.177D-05-0.221D-05 0.523D-05 0.112D-04 0.790D-04 0.158D-03
 Coeff:     -0.249D-03-0.788D-03-0.948D-03 0.706D-02 0.369D-02-0.199D-01
 Coeff:     -0.124D+00 0.184D+00 0.952D+00
 Gap=     0.246 Goal=   None    Shift=    0.000
 RMSDP=2.94D-07 MaxDP=1.82D-05 DE=-6.40D-10 OVMax= 7.11D-06

 Cycle  16  Pass 1  IDiag  1:
 RMSU=  9.22D-08    CP:  4.76D-01  2.54D+00  1.47D+00  8.92D-01  8.34D-01
                    CP:  6.86D-01  1.49D+00  1.63D+00  2.04D+00  2.09D+00
                    CP:  1.60D+00  1.41D+00  1.77D+00  1.11D+00  1.54D+00
 E= -3010.53579887255     Delta-E=       -0.000000000145 Rises=F Damp=F
 DIIS: error= 9.04D-08 at cycle  16 NSaved=  16.
 NSaved=16 IEnMin=16 EnMin= -3010.53579887255     IErMin=16 ErrMin= 9.04D-08
 ErrMax= 9.04D-08  0.00D+00 EMaxC= 1.00D-01 BMatC= 2.23D-12 BMatP= 2.21D-11
 IDIUse=1 WtCom= 1.00D+00 WtEn= 0.00D+00
 Coeff-Com:  0.475D-06-0.692D-06 0.284D-05 0.117D-04 0.301D-04 0.685D-04
 Coeff-Com:  0.305D-03-0.296D-03-0.342D-02-0.507D-03 0.158D-01 0.906D-02
 Coeff-Com: -0.666D-01-0.463D-01 0.150D+00 0.942D+00
 Coeff:      0.475D-06-0.692D-06 0.284D-05 0.117D-04 0.301D-04 0.685D-04
 Coeff:      0.305D-03-0.296D-03-0.342D-02-0.507D-03 0.158D-01 0.906D-02
 Coeff:     -0.666D-01-0.463D-01 0.150D+00 0.942D+00
 Gap=     0.246 Goal=   None    Shift=    0.000
 RMSDP=8.62D-08 MaxDP=3.46D-06 DE=-1.45D-10 OVMax= 2.14D-06

 Cycle  17  Pass 1  IDiag  1:
 RMSU=  3.15D-08    CP:  4.76D-01  2.54D+00  1.47D+00  8.92D-01  8.34D-01
                    CP:  6.86D-01  1.49D+00  1.63D+00  2.04D+00  2.09D+00
                    CP:  1.59D+00  1.41D+00  1.77D+00  1.12D+00  1.73D+00
                    CP:  1.24D+00
 E= -3010.53579887252     Delta-E=        0.000000000030 Rises=F Damp=F
 DIIS: error= 5.09D-08 at cycle  17 NSaved=  17.
 NSaved=17 IEnMin=16 EnMin= -3010.53579887255     IErMin=17 ErrMin= 5.09D-08
 ErrMax= 5.09D-08  0.00D+00 EMaxC= 1.00D-01 BMatC= 4.45D-13 BMatP= 2.23D-12
 IDIUse=1 WtCom= 1.00D+00 WtEn= 0.00D+00
 Coeff-Com: -0.170D-05 0.226D-05-0.443D-06 0.208D-05-0.140D-05-0.651D-05
 Coeff-Com:  0.824D-04 0.982D-04-0.605D-03-0.756D-03 0.222D-02 0.385D-02
 Coeff-Com:  0.296D-02-0.284D-01-0.102D+00 0.165D+00 0.958D+00
 Coeff:     -0.170D-05 0.226D-05-0.443D-06 0.208D-05-0.140D-05-0.651D-05
 Coeff:      0.824D-04 0.982D-04-0.605D-03-0.756D-03 0.222D-02 0.385D-02
 Coeff:      0.296D-02-0.284D-01-0.102D+00 0.165D+00 0.958D+00
 Gap=     0.246 Goal=   None    Shift=    0.000
 RMSDP=4.55D-08 MaxDP=4.64D-06 DE= 3.00D-11 OVMax= 8.34D-07

 Cycle  18  Pass 1  IDiag  1:
 RMSU=  1.53D-08    CP:  4.76D-01  2.54D+00  1.47D+00  8.92D-01  8.34D-01
                    CP:  6.86D-01  1.49D+00  1.63D+00  2.04D+00  2.09D+00
                    CP:  1.59D+00  1.40D+00  1.77D+00  1.12D+00  1.79D+00
                    CP:  1.44D+00  1.16D+00
 E= -3010.53579887249     Delta-E=        0.000000000022 Rises=F Damp=F
 DIIS: error= 2.23D-08 at cycle  18 NSaved=  18.
 NSaved=18 IEnMin=16 EnMin= -3010.53579887255     IErMin=18 ErrMin= 2.23D-08
 ErrMax= 2.23D-08  0.00D+00 EMaxC= 1.00D-01 BMatC= 8.69D-14 BMatP= 4.45D-13
 IDIUse=1 WtCom= 1.00D+00 WtEn= 0.00D+00
 Coeff-Com: -0.582D-06 0.781D-06-0.617D-06-0.142D-05-0.665D-05-0.170D-04
 Coeff-Com: -0.210D-04 0.104D-03 0.286D-03-0.237D-03-0.176D-02-0.936D-04
 Coeff-Com:  0.126D-01-0.721D-03-0.618D-01-0.104D+00 0.304D+00 0.851D+00
 Coeff:     -0.582D-06 0.781D-06-0.617D-06-0.142D-05-0.665D-05-0.170D-04
 Coeff:     -0.210D-04 0.104D-03 0.286D-03-0.237D-03-0.176D-02-0.936D-04
 Coeff:      0.126D-01-0.721D-03-0.618D-01-0.104D+00 0.304D+00 0.851D+00
 Gap=     0.246 Goal=   None    Shift=    0.000
 RMSDP=2.06D-08 MaxDP=1.86D-06 DE= 2.18D-11 OVMax= 6.19D-07

 Cycle  19  Pass 1  IDiag  1:
 RMSU=  4.97D-09    CP:  4.76D-01  2.54D+00  1.47D+00  8.92D-01  8.34D-01
                    CP:  6.86D-01  1.49D+00  1.63D+00  2.04D+00  2.09D+00
                    CP:  1.59D+00  1.40D+00  1.77D+00  1.11D+00  1.81D+00
                    CP:  1.50D+00  1.35D+00  1.23D+00
 E= -3010.53579887253     Delta-E=       -0.000000000038 Rises=F Damp=F
 DIIS: error= 7.37D-09 at cycle  19 NSaved=  19.
 NSaved=19 IEnMin=16 EnMin= -3010.53579887255     IErMin=19 ErrMin= 7.37D-09
 ErrMax= 7.37D-09  0.00D+00 EMaxC= 1.00D-01 BMatC= 1.99D-14 BMatP= 8.69D-14
 IDIUse=1 WtCom= 1.00D+00 WtEn= 0.00D+00
 Coeff-Com: -0.109D-06 0.148D-06-0.147D-08 0.107D-06 0.109D-05 0.196D-05
 Coeff-Com: -0.875D-05-0.266D-04 0.816D-04 0.158D-03-0.238D-03-0.804D-03
 Coeff-Com: -0.115D-02 0.532D-02 0.190D-01-0.336D-01-0.212D+00 0.712D-01
 Coeff-Com:  0.115D+01
 Coeff:     -0.109D-06 0.148D-06-0.147D-08 0.107D-06 0.109D-05 0.196D-05
 Coeff:     -0.875D-05-0.266D-04 0.816D-04 0.158D-03-0.238D-03-0.804D-03
 Coeff:     -0.115D-02 0.532D-02 0.190D-01-0.336D-01-0.212D+00 0.712D-01
 Coeff:      0.115D+01
 Gap=     0.246 Goal=   None    Shift=    0.000
 RMSDP=1.05D-08 MaxDP=6.81D-07 DE=-3.82D-11 OVMax= 3.65D-07

 Cycle  20  Pass 1  IDiag  1:
 RMSU=  2.23D-09    CP:  4.76D-01  2.54D+00  1.47D+00  8.92D-01  8.34D-01
                    CP:  6.86D-01  1.49D+00  1.63D+00  2.04D+00  2.09D+00
                    CP:  1.59D+00  1.40D+00  1.77D+00  1.11D+00  1.81D+00
                    CP:  1.51D+00  1.42D+00  1.53D+00  1.77D+00
 E= -3010.53579887246     Delta-E=        0.000000000074 Rises=F Damp=F
 DIIS: error= 3.36D-09 at cycle  20 NSaved=  20.
 NSaved=20 IEnMin=16 EnMin= -3010.53579887255     IErMin=20 ErrMin= 3.36D-09
 ErrMax= 3.36D-09  0.00D+00 EMaxC= 1.00D-01 BMatC= 3.66D-15 BMatP= 1.99D-14
 IDIUse=1 WtCom= 1.00D+00 WtEn= 0.00D+00
 Large coefficients: NSaved= 20 BigCof=    0.00 CofMax=   10.00 Det=-8.13D-15
 Inversion failed.  Reducing to 19 matrices.
 Large coefficients: NSaved= 19 BigCof=    0.00 CofMax=   10.00 Det=-8.15D-15
 Inversion failed.  Reducing to 18 matrices.
 Large coefficients: NSaved= 18 BigCof=    0.00 CofMax=   10.00 Det=-8.14D-15
 Inversion failed.  Reducing to 17 matrices.
 Large coefficients: NSaved= 17 BigCof=    0.00 CofMax=   10.00 Det=-8.19D-15
 Inversion failed.  Reducing to 16 matrices.
 Large coefficients: NSaved= 16 BigCof=    0.00 CofMax=   10.00 Det=-8.26D-15
 Inversion failed.  Reducing to 15 matrices.
 Coeff-Com: -0.763D-07-0.583D-06-0.872D-05 0.196D-04 0.213D-04-0.118D-04
 Coeff-Com: -0.287D-03-0.609D-03 0.172D-02 0.983D-02-0.217D-03-0.941D-01
 Coeff-Com: -0.431D-01 0.334D+00 0.792D+00
 Coeff:     -0.763D-07-0.583D-06-0.872D-05 0.196D-04 0.213D-04-0.118D-04
 Coeff:     -0.287D-03-0.609D-03 0.172D-02 0.983D-02-0.217D-03-0.941D-01
 Coeff:     -0.431D-01 0.334D+00 0.792D+00
 Gap=     0.246 Goal=   None    Shift=    0.000
 RMSDP=4.56D-09 MaxDP=4.94D-07 DE= 7.37D-11 OVMax= 1.31D-07

 SCF Done:  E(RwB97XD) =  -3010.53579887     A.U. after   20 cycles
            NFock= 20  Conv=0.46D-08     -V/T= 2.0016
 KE= 3.005861015229D+03 PE=-8.701861640168D+03 EE= 1.910661336151D+03
 Leave Link  502 at Thu May  2 14:19:34 2024, MaxMem=   134217728 cpu:            1213.4 elap:            1213.7
 (Enter /software/gaussian/g16-c01/sse4/g16/l601.exe)
 Copying SCF densities to generalized density rwf, IOpCl= 0 IROHF=0.

 **********************************************************************

            Population analysis using the SCF Density.

 **********************************************************************

 Alpha  occ. eigenvalues -- -483.33764 -62.88820 -56.68468 -56.67960 -56.67954
 Alpha  occ. eigenvalues --  -19.46639 -19.46590 -14.86079 -10.60086 -10.59494
 Alpha  occ. eigenvalues --  -10.58205 -10.58024 -10.54233 -10.53550  -9.04649
 Alpha  occ. eigenvalues --   -6.87208  -6.85522  -6.85507  -2.97140  -2.96691
 Alpha  occ. eigenvalues --   -2.96677  -2.95328  -2.95327  -1.50306  -1.33254
 Alpha  occ. eigenvalues --   -1.23476  -1.14221  -1.13365  -1.06606  -1.01294
 Alpha  occ. eigenvalues --   -0.96313  -0.91418  -0.85544  -0.81574  -0.80888
 Alpha  occ. eigenvalues --   -0.80604  -0.78693  -0.76728  -0.76410  -0.73369
 Alpha  occ. eigenvalues --   -0.69436  -0.68452  -0.64781  -0.61630  -0.59338
 Alpha  occ. eigenvalues --   -0.57842  -0.57443  -0.56363  -0.55998
 Alpha virt. eigenvalues --   -0.31351  -0.21053  -0.17954  -0.13924  -0.13824
 Alpha virt. eigenvalues --   -0.10525  -0.09238  -0.07878  -0.06786  -0.05677
 Alpha virt. eigenvalues --   -0.04720  -0.03976  -0.02409  -0.01573  -0.01351
 Alpha virt. eigenvalues --   -0.01266  -0.00020   0.00754   0.02330   0.02679
 Alpha virt. eigenvalues --    0.04178   0.04844   0.05333   0.05538   0.06591
 Alpha virt. eigenvalues --    0.07085   0.07363   0.08027   0.08570   0.09526
 Alpha virt. eigenvalues --    0.09784   0.11098   0.11293   0.11940   0.12806
 Alpha virt. eigenvalues --    0.12988   0.13266   0.13647   0.14404   0.15895
 Alpha virt. eigenvalues --    0.16434   0.16998   0.17975   0.18621   0.19642
 Alpha virt. eigenvalues --    0.20217   0.20690   0.21292   0.22214   0.23723
 Alpha virt. eigenvalues --    0.23822   0.26366   0.26875   0.27942   0.29040
 Alpha virt. eigenvalues --    0.30875   0.32806   0.33588   0.33884   0.35439
 Alpha virt. eigenvalues --    0.36638   0.37452   0.38764   0.39586   0.40920
 Alpha virt. eigenvalues --    0.43133   0.43895   0.44715   0.46504   0.47054
 Alpha virt. eigenvalues --    0.47912   0.49589   0.49672   0.50783   0.53026
 Alpha virt. eigenvalues --    0.54169   0.55426   0.57423   0.57686   0.59477
 Alpha virt. eigenvalues --    0.60337   0.61562   0.63275   0.65811   0.67480
 Alpha virt. eigenvalues --    0.70733   0.70929   0.72404   0.73486   0.73981
 Alpha virt. eigenvalues --    0.74110   0.76923   0.79298   0.81211   0.84665
 Alpha virt. eigenvalues --    0.85979   0.87124   0.90945   0.93249   0.98246
 Alpha virt. eigenvalues --    0.99853   1.01711   1.03209   1.04905   1.06380
 Alpha virt. eigenvalues --    1.08166   1.12288   1.12990   1.13615   1.17372
 Alpha virt. eigenvalues --    1.20691   1.22459   1.27477   1.32709   1.35634
 Alpha virt. eigenvalues --    1.36223   1.38300   1.42117   1.54083   1.56076
 Alpha virt. eigenvalues --    1.56762   1.59294   1.60572   1.63328   1.64906
 Alpha virt. eigenvalues --    1.67580   1.70647   1.73522   1.74626   1.78712
 Alpha virt. eigenvalues --    1.83294   1.84668   1.86580   1.92046   1.94029
 Alpha virt. eigenvalues --    1.97164   2.01278   2.02244   2.06344   2.07656
 Alpha virt. eigenvalues --    2.11751   2.13778   2.21712   2.23191   2.26812
 Alpha virt. eigenvalues --    2.32892   2.39391   2.41051   2.43831   2.52571
 Alpha virt. eigenvalues --    2.57488   2.62528   2.65261   2.68077   2.71347
 Alpha virt. eigenvalues --    2.73206   2.75965   2.76882   2.80118   2.81271
 Alpha virt. eigenvalues --    2.92345   2.97504   3.00822   3.05021   3.08237
 Alpha virt. eigenvalues --    3.14175   3.15713   3.16949   3.22071   3.26166
 Alpha virt. eigenvalues --    3.27234   3.37421   3.45908   3.49572   3.54256
 Alpha virt. eigenvalues --    3.56984   3.68510   3.73838   3.82897   3.86568
 Alpha virt. eigenvalues --    4.07233   4.08053   4.16918   4.20953   4.40881
 Alpha virt. eigenvalues --    4.44726   4.53841   4.59343   4.93213   4.96080
 Alpha virt. eigenvalues --    5.04899   5.09407   5.61624   6.14815   6.65329
 Alpha virt. eigenvalues --    7.46024   7.48396   7.58631  23.21327  23.60540
 Alpha virt. eigenvalues --   23.70635  23.77138  23.94947  24.01375  35.31085
 Alpha virt. eigenvalues --   47.91511  49.84850  49.93513 289.79180 289.81522
 Alpha virt. eigenvalues --  289.941751020.92739
          Condensed to atoms (all electrons):
               1          2          3          4          5          6
     1  C    8.168988  -3.045674   1.188943  -0.210122   0.305210   0.049307
     2  C   -3.045674  17.930267  -5.601185   0.664169  -0.031645   0.182184
     3  C    1.188943  -5.601185  19.309465  -1.553203   0.043906   0.128291
     4  C   -0.210122   0.664169  -1.553203   6.531548   0.008040  -0.017087
     5  H    0.305210  -0.031645   0.043906   0.008040   0.327159  -0.001537
     6  H    0.049307   0.182184   0.128291  -0.017087  -0.001537   0.308359
     7  H    0.021007  -0.022882   0.025216   0.314030  -0.002728  -0.000005
     8  N   -0.119348   0.443118  -1.618411   0.020690  -0.000762  -0.030544
     9  O   -0.043439   0.127217  -0.366333  -0.008417  -0.000041  -0.002355
    10  O    0.278250  -0.381611  -0.051826  -0.033039   0.000063   0.021723
    11  C    0.920979  -1.324818   2.242308  -0.349413  -0.022290   0.009736
    12  H   -0.009651   0.011466   0.015809   0.004822   0.000005  -0.000017
    13  C   -1.395460  -2.967897  -7.433902   0.908422   0.024835  -0.002615
    14  H   -0.005866   0.013780   0.015339   0.007874  -0.000021   0.000013
    15  Br  -0.033472  -0.114809  -0.250056   0.062254  -0.000231  -0.000533
               7          8          9         10         11         12
     1  C    0.021007  -0.119348  -0.043439   0.278250   0.920979  -0.009651
     2  C   -0.022882   0.443118   0.127217  -0.381611  -1.324818   0.011466
     3  C    0.025216  -1.618411  -0.366333  -0.051826   2.242308   0.015809
     4  C    0.314030   0.020690  -0.008417  -0.033039  -0.349413   0.004822
     5  H   -0.002728  -0.000762  -0.000041   0.000063  -0.022290   0.000005
     6  H   -0.000005  -0.030544  -0.002355   0.021723   0.009736  -0.000017
     7  H    0.332414  -0.000013   0.000014  -0.000012   0.031172  -0.002172
     8  N   -0.000013   7.630765   0.136697   0.103991  -0.276627   0.000174
     9  O    0.000014   0.136697   7.822325   0.010624   0.230622   0.000086
    10  O   -0.000012   0.103991   0.010624   7.865211   0.031519  -0.000004
    11  C    0.031172  -0.276627   0.230622   0.031519   8.293391   0.327094
    12  H   -0.002172   0.000174   0.000086  -0.000004   0.327094   0.312076
    13  C   -0.032856   0.813404   0.039557   0.084723  -3.947379  -0.016001
    14  H   -0.000001  -0.017724   0.004045  -0.001859  -0.014889  -0.003047
    15  Br  -0.000472   0.125208  -0.041370  -0.001363   0.006000  -0.003896
              13         14         15
     1  C   -1.395460  -0.005866  -0.033472
     2  C   -2.967897   0.013780  -0.114809
     3  C   -7.433902   0.015339  -0.250056
     4  C    0.908422   0.007874   0.062254
     5  H    0.024835  -0.000021  -0.000231
     6  H   -0.002615   0.000013  -0.000533
     7  H   -0.032856  -0.000001  -0.000472
     8  N    0.813404  -0.017724   0.125208
     9  O    0.039557   0.004045  -0.041370
    10  O    0.084723  -0.001859  -0.001363
    11  C   -3.947379  -0.014889   0.006000
    12  H   -0.016001  -0.003047  -0.003896
    13  C   19.581177   0.305723   0.334596
    14  H    0.305723   0.261644  -0.026099
    15  Br   0.334596  -0.026099  34.914755
 Mulliken charges:
               1
     1  C   -0.069652
     2  C    0.118319
     3  C   -0.094361
     4  C   -0.350568
     5  H    0.350035
     6  H    0.355080
     7  H    0.337287
     8  N   -0.210619
     9  O    0.090767
    10  O    0.073612
    11  C   -0.157404
    12  H    0.363254
    13  C   -0.296328
    14  H    0.461088
    15  Br   0.029490
 Sum of Mulliken charges =   1.00000
 Mulliken charges with hydrogens summed into heavy atoms:
               1
     1  C    0.280383
     2  C    0.473399
     3  C   -0.094361
     4  C   -0.013281
     8  N   -0.210619
     9  O    0.090767
    10  O    0.073612
    11  C    0.205850
    13  C    0.164760
    15  Br   0.029490
 Electronic spatial extent (au):  <R**2>=           3949.6408
 Charge=              1.0000 electrons
 Dipole moment (field-independent basis, Debye):
    X=              2.5738    Y=             -0.2986    Z=              2.0297  Tot=              3.2914
 Quadrupole moment (field-independent basis, Debye-Ang):
   XX=            -67.7979   YY=            -52.1349   ZZ=            -65.9529
   XY=             -1.7637   XZ=              3.1690   YZ=             -0.2642
 Traceless Quadrupole moment (field-independent basis, Debye-Ang):
   XX=             -5.8360   YY=              9.8270   ZZ=             -3.9910
   XY=             -1.7637   XZ=              3.1690   YZ=             -0.2642
 Octapole moment (field-independent basis, Debye-Ang**2):
  XXX=           -510.8981  YYY=             96.8255  ZZZ=             97.9511  XYY=           -139.3141
  XXY=             27.0294  XXZ=             43.2903  XZZ=           -140.8462  YZZ=             24.8384
  YYZ=             34.7869  XYZ=              1.9280
 Hexadecapole moment (field-independent basis, Debye-Ang**3):
 XXXX=          -3429.7698 YYYY=           -713.3891 ZZZZ=           -434.1118 XXXY=            184.5532
 XXXZ=            245.5641 YYYX=            195.5040 YYYZ=           -189.6084 ZZZX=            199.2553
 ZZZY=           -168.3897 XXYY=           -630.4210 XXZZ=           -547.0232 YYZZ=           -189.8129
 XXYZ=            -56.6410 YYXZ=             68.9773 ZZXY=             45.6855
 N-N= 7.748034899156D+02 E-N=-8.701861639793D+03  KE= 3.005861015229D+03
 No NMR shielding tensors so no spin-rotation constants.
 Leave Link  601 at Thu May  2 14:19:41 2024, MaxMem=   134217728 cpu:               7.3 elap:               7.3
 (Enter /software/gaussian/g16-c01/sse4/g16/l9999.exe)
 Unable to Open any file for archive entry.
 1\1\GINC-BHX0015\SP\RwB97XD\6-311+G(d)\C6H5Br1N1O2(1+)\BWEIGHT\02-May-
 2024\0\\#P wB97XD/6-311+G* NoSymm #P Field=Z-155\\TitleMe\\1,1\C,0,0.5
 193,1.233,-0.0319\C,0,1.9445,1.2692,-0.0367\C,0,2.6204,0.0928,-0.025\C
 ,0,-0.196,0.0301,0.001\H,0,-0.0207,2.1742,-0.0434\H,0,2.4828,2.2089,-0
 .0361\H,0,-1.2777,0.0399,0.0117\N,0,4.0921,0.0959,0.0366\O,0,4.6393,-1
 .0217,0.1446\O,0,4.6649,1.1984,-0.0233\C,0,0.4943,-1.1671,0.021\H,0,-0
 .0325,-2.1149,0.0545\C,0,1.9629,-1.2165,-0.0211\H,0,2.4436,-1.9631,0.6
 151\Br,0,2.173,-1.9491,-1.9062\\Version=ES64L-G16RevC.01\HF=-3010.5357
 989\RMSD=4.558e-09\Dipole=-3.3166136,1.110646,2.0477701\Quadrupole=-4.
 338898,7.306127,-2.967229,-1.3112384,2.3560974,-0.1963927\PG=C01 [X(C6
 H5Br1N1O2)]\\@
 The archive entry for this job was punched.


 TRUTH, IN SCIENCE, CAN BE DEFINED AS THE WORKING HYPOTHESIS 
 BEST FITTED TO OPEN THE WAY TO THE NEXT BETTER ONE.

                              -- KONRAD LORENZ
 Job cpu time:       0 days  0 hours 21 minutes 23.6 seconds.
 Elapsed time:       0 days  0 hours 21 minutes 23.8 seconds.
 File lengths (MBytes):  RWF=     40 Int=      0 D2E=      0 Chk=     32 Scr=      1
 Normal termination of Gaussian 16 at Thu May  2 14:19:42 2024.
