 Entering Gaussian System, Link 0=g16
 Initial command:
 /software/gaussian/g16-c01/sse4/g16/l1.exe "/local_scratch/24657499/Gau-14340.inp" -scrdir="/local_scratch/24657499/"
 Entering Link 1 = /software/gaussian/g16-c01/sse4/g16/l1.exe PID=     14349.
  
 Copyright (c) 1988-2019, Gaussian, Inc.  All Rights Reserved.
  
 This is part of the Gaussian(R) 16 program.  It is based on
 the Gaussian(R) 09 system (copyright 2009, Gaussian, Inc.),
 the Gaussian(R) 03 system (copyright 2003, Gaussian, Inc.),
 the Gaussian(R) 98 system (copyright 1998, Gaussian, Inc.),
 the Gaussian(R) 94 system (copyright 1995, Gaussian, Inc.),
 the Gaussian 92(TM) system (copyright 1992, Gaussian, Inc.),
 the Gaussian 90(TM) system (copyright 1990, Gaussian, Inc.),
 the Gaussian 88(TM) system (copyright 1988, Gaussian, Inc.),
 the Gaussian 86(TM) system (copyright 1986, Carnegie Mellon
 University), and the Gaussian 82(TM) system (copyright 1983,
 Carnegie Mellon University). Gaussian is a federally registered
 trademark of Gaussian, Inc.
  
 This software contains proprietary and confidential information,
 including trade secrets, belonging to Gaussian, Inc.
  
 This software is provided under written license and may be
 used, copied, transmitted, or stored only in accord with that
 written license.
  
 The following legend is applicable only to US Government
 contracts under FAR:
  
                    RESTRICTED RIGHTS LEGEND
  
 Use, reproduction and disclosure by the US Government is
 subject to restrictions as set forth in subparagraphs (a)
 and (c) of the Commercial Computer Software - Restricted
 Rights clause in FAR 52.227-19.
  
 Gaussian, Inc.
 340 Quinnipiac St., Bldg. 40, Wallingford CT 06492
  
  
 ---------------------------------------------------------------
 Warning -- This program may not be used in any manner that
 competes with the business of Gaussian, Inc. or will provide
 assistance to any competitor of Gaussian, Inc.  The licensee
 of this program is prohibited from giving any competitor of
 Gaussian, Inc. access to this program.  By using this program,
 the user acknowledges that Gaussian, Inc. is engaged in the
 business of creating and licensing software in the field of
 computational chemistry and represents and warrants to the
 licensee that it is not a competitor of Gaussian, Inc. and that
 it will not use this program in any manner prohibited above.
 ---------------------------------------------------------------
  

 Cite this work as:
 Gaussian 16, Revision C.01,
 M. J. Frisch, G. W. Trucks, H. B. Schlegel, G. E. Scuseria, 
 M. A. Robb, J. R. Cheeseman, G. Scalmani, V. Barone, 
 G. A. Petersson, H. Nakatsuji, X. Li, M. Caricato, A. V. Marenich, 
 J. Bloino, B. G. Janesko, R. Gomperts, B. Mennucci, H. P. Hratchian, 
 J. V. Ortiz, A. F. Izmaylov, J. L. Sonnenberg, D. Williams-Young, 
 F. Ding, F. Lipparini, F. Egidi, J. Goings, B. Peng, A. Petrone, 
 T. Henderson, D. Ranasinghe, V. G. Zakrzewski, J. Gao, N. Rega, 
 G. Zheng, W. Liang, M. Hada, M. Ehara, K. Toyota, R. Fukuda, 
 J. Hasegawa, M. Ishida, T. Nakajima, Y. Honda, O. Kitao, H. Nakai, 
 T. Vreven, K. Throssell, J. A. Montgomery, Jr., J. E. Peralta, 
 F. Ogliaro, M. J. Bearpark, J. J. Heyd, E. N. Brothers, K. N. Kudin, 
 V. N. Staroverov, T. A. Keith, R. Kobayashi, J. Normand, 
 K. Raghavachari, A. P. Rendell, J. C. Burant, S. S. Iyengar, 
 J. Tomasi, M. Cossi, J. M. Millam, M. Klene, C. Adamo, R. Cammi, 
 J. W. Ochterski, R. L. Martin, K. Morokuma, O. Farkas, 
 J. B. Foresman, and D. J. Fox, Gaussian, Inc., Wallingford CT, 2019.
 
 ******************************************
 Gaussian 16:  ES64L-G16RevC.01  3-Jul-2019
                 1-May-2024 
 ******************************************
 %chk=geometry.chk
 %mem=9GB
 %nprocshared=12
 Will use up to   12 processors via shared memory.
 ---------------------------------------
 #P wB97XD/6-311+G* NoSymm #P Field=Y-19
 ---------------------------------------
 1/38=1,172=1/1;
 2/12=2,15=1,17=6,18=5,40=1/2;
 3/5=4,6=6,7=11,11=2,14=2,15=-19,25=1,30=1,74=-58/1,2,3;
 4//1;
 5/5=2,38=5/2;
 6/7=2,8=2,9=2,10=2,28=1/1;
 99/5=1,9=1/99;
 Leave Link    1 at Wed May  1 14:47:54 2024, MaxMem=  1207959552 cpu:               1.3 elap:               1.3
 (Enter /software/gaussian/g16-c01/sse4/g16/l101.exe)
 -------
 TitleMe
 -------
 Symbolic Z-matrix:
 Charge =  1 Multiplicity = 1
 C                     0.0295    1.3397    0.0682 
 C                     1.4348    1.2867    0.0064 
 C                     2.1118    0.0511   -0.0054 
 C                     1.4451   -1.1372    0.0312 
 C                    -0.6879    0.1682    0.11 
 H                    -0.4713    2.2984    0.0781 
 H                     2.0273    2.1965   -0.0322 
 H                     1.9897   -2.0764    0.0232 
 H                    -1.7716    0.1804    0.1582 
 N                     3.5864    0.051    -0.0675 
 O                     4.1471   -1.0597   -0.0881 
 O                     4.145     1.1639   -0.0901 
 C                    -0.0236   -1.1458    0.0835 
 H                    -0.4367   -1.8725    0.7889 
 Br                   -0.5359   -1.8697   -1.7408 
 
 ITRead=  0  0  0  0  0  0  0  0  0  0  0  0  0  0  0
 MicOpt= -1 -1 -1 -1 -1 -1 -1 -1 -1 -1 -1 -1 -1 -1 -1
 NAtoms=     15 NQM=       15 NQMF=       0 NMMI=      0 NMMIF=      0
                NMic=       0 NMicF=      0.
                    Isotopes and Nuclear Properties:
 (Nuclear quadrupole moments (NQMom) in fm**2, nuclear magnetic moments (NMagM)
  in nuclear magnetons)

  Atom         1           2           3           4           5           6           7           8           9          10
 IAtWgt=          12          12          12          12          12           1           1           1           1          14
 AtmWgt=  12.0000000  12.0000000  12.0000000  12.0000000  12.0000000   1.0078250   1.0078250   1.0078250   1.0078250  14.0030740
 NucSpn=           0           0           0           0           0           1           1           1           1           2
 AtZEff=  -0.0000000  -0.0000000  -0.0000000  -0.0000000  -0.0000000  -0.0000000  -0.0000000  -0.0000000  -0.0000000  -0.0000000
 NQMom=    0.0000000   0.0000000   0.0000000   0.0000000   0.0000000   0.0000000   0.0000000   0.0000000   0.0000000   2.0440000
 NMagM=    0.0000000   0.0000000   0.0000000   0.0000000   0.0000000   2.7928460   2.7928460   2.7928460   2.7928460   0.4037610
 AtZNuc=   6.0000000   6.0000000   6.0000000   6.0000000   6.0000000   1.0000000   1.0000000   1.0000000   1.0000000   7.0000000

  Atom        11          12          13          14          15
 IAtWgt=          16          16          12           1          79
 AtmWgt=  15.9949146  15.9949146  12.0000000   1.0078250  78.9183361
 NucSpn=           0           0           0           1           3
 AtZEff=  -0.0000000  -0.0000000  -0.0000000  -0.0000000  -0.0000000
 NQMom=    0.0000000   0.0000000   0.0000000   0.0000000  31.3000000
 NMagM=    0.0000000   0.0000000   0.0000000   2.7928460   2.1063990
 AtZNuc=   8.0000000   8.0000000   6.0000000   1.0000000  35.0000000
 Leave Link  101 at Wed May  1 14:47:56 2024, MaxMem=  1207959552 cpu:               1.3 elap:               1.3
 (Enter /software/gaussian/g16-c01/sse4/g16/l202.exe)
                          Input orientation:                          
 ---------------------------------------------------------------------
 Center     Atomic      Atomic             Coordinates (Angstroms)
 Number     Number       Type             X           Y           Z
 ---------------------------------------------------------------------
      1          6           0        0.029500    1.339700    0.068200
      2          6           0        1.434800    1.286700    0.006400
      3          6           0        2.111800    0.051100   -0.005400
      4          6           0        1.445100   -1.137200    0.031200
      5          6           0       -0.687900    0.168200    0.110000
      6          1           0       -0.471300    2.298400    0.078100
      7          1           0        2.027300    2.196500   -0.032200
      8          1           0        1.989700   -2.076400    0.023200
      9          1           0       -1.771600    0.180400    0.158200
     10          7           0        3.586400    0.051000   -0.067500
     11          8           0        4.147100   -1.059700   -0.088100
     12          8           0        4.145000    1.163900   -0.090100
     13          6           0       -0.023600   -1.145800    0.083500
     14          1           0       -0.436700   -1.872500    0.788900
     15         35           0       -0.535900   -1.869700   -1.740800
 ---------------------------------------------------------------------
                    Distance matrix (angstroms):
                    1          2          3          4          5
     1  C    0.000000
     2  C    1.407656   0.000000
     3  C    2.449874   1.408963   0.000000
     4  C    2.853126   2.424049   1.363043   0.000000
     5  C    1.374344   2.401589   2.804523   2.501993   0.000000
     6  H    1.081667   2.159142   3.424870   3.934226   2.141421
     7  H    2.176095   1.086408   2.147231   3.384750   3.392128
     8  H    3.938800   3.408612   2.131193   1.085702   3.495040
     9  H    2.143837   3.395283   3.888995   3.478413   1.084840
    10  N    3.785591   2.482297   1.475907   2.450862   4.279589
    11  O    4.768247   3.587631   2.320164   2.705743   4.992415
    12  O    4.122294   2.714696   2.319353   3.549540   4.938459
    13  C    2.486114   2.837240   2.449573   1.469656   1.472614
    14  H    3.324903   3.754379   3.290289   2.157764   2.165286
    15  Br   3.727252   4.110867   3.702891   2.756973   2.757100
                    6          7          8          9         10
     6  H    0.000000
     7  H    2.503108   0.000000
     8  H    5.019802   4.273425   0.000000
     9  H    2.486588   4.304945   4.388479   0.000000
    10  N    4.640790   2.652397   2.661486   5.364313   0.000000
    11  O    5.712624   3.885809   2.387560   6.052233   1.244373
    12  O    4.756638   2.356750   3.893289   6.002923   1.245428
    13  C    3.473180   3.923079   2.218790   2.195425   3.806210
    14  H    4.231175   4.827242   2.552506   2.528663   4.540772
    15  Br   4.548146   5.101303   3.087568   3.055498   4.845862
                   11         12         13         14         15
    11  O    0.000000
    12  O    2.223602   0.000000
    13  C    4.175117   4.768865   0.000000
    14  H    4.737193   5.566358   1.093770   0.000000
    15  Br   5.031700   5.817075   2.028436   2.531646   0.000000
 Symmetry turned off by external request.
 Stoichiometry    C6H5BrNO2(1+)
 Framework group  C1[X(C6H5BrNO2)]
 Deg. of freedom    39
 Full point group                 C1      NOp   1
 Rotational constants (GHZ):           1.8252210           0.5518633           0.4576002
 Leave Link  202 at Wed May  1 14:47:57 2024, MaxMem=  1207959552 cpu:               1.2 elap:               1.2
 (Enter /software/gaussian/g16-c01/sse4/g16/l301.exe)
 Standard basis: 6-311+G(d) (5D, 7F)
 Ernie: Thresh=  0.10000D-02 Tol=  0.10000D-05 Strict=F.
 The following finite field(s) will be applied:
 An electric field of              0.0000 -0.0019  0.0000
   261 basis functions,   443 primitive gaussians,   273 cartesian basis functions
    49 alpha electrons       49 beta electrons
       nuclear repulsion energy       739.2122215416 Hartrees.
 IExCor= 4639 DFT=T Ex+Corr=wB97XD ExCW=0 ScaHFX=  1.000000
 ScaDFX=  1.000000  1.000000  1.000000  1.000000 ScalE2=  1.000000  1.000000
 IRadAn=      5 IRanWt=     -1 IRanGd=            0 ICorTp=0 IEmpDi=121
 HFx  wShort=  0.000000 wLong=  0.200000 cFull=  0.222036 cShort=  0.000000 cLong=  0.777964
 DFx  wShort=  0.000000 wLong=  0.200000 cFull=  0.000000 cShort=  0.000000 cLong=  1.000000
 NAtoms=   15 NActive=   15 NUniq=   15 SFac= 1.00D+00 NAtFMM=   60 NAOKFM=F Big=F
 Integral buffers will be    131072 words long.
 Raffenetti 2 integral format.
 Two-electron integral symmetry is turned off.
 R6Disp:  Grimme-D2 Dispersion energy=       -0.0077368520 Hartrees.
 Nuclear repulsion after empirical dispersion term =      739.2044846896 Hartrees.
 Leave Link  301 at Wed May  1 14:47:58 2024, MaxMem=  1207959552 cpu:               1.0 elap:               1.0
 (Enter /software/gaussian/g16-c01/sse4/g16/l302.exe)
 NPDir=0 NMtPBC=     1 NCelOv=     1 NCel=       1 NClECP=     1 NCelD=      1
         NCelK=      1 NCelE2=     1 NClLst=     1 CellRange=     0.0.
 One-electron integrals computed using PRISM.
 NBasis=   261 RedAO= T EigKep=  2.35D-06  NBF=   261
 NBsUse=   261 1.00D-06 EigRej= -1.00D+00 NBFU=   261
 Precomputing XC quadrature grid using
 IXCGrd= 4 IRadAn=           5 IRanWt=          -1 IRanGd=           0 AccXCQ= 0.00D+00.
 Generated NRdTot=       0 NPtTot=           0 NUsed=           0 NTot=          32
 NSgBfM=   273   273   273   273   273 MxSgAt=    15 MxSgA2=    15.
 Leave Link  302 at Wed May  1 14:48:19 2024, MaxMem=  1207959552 cpu:              20.9 elap:              20.9
 (Enter /software/gaussian/g16-c01/sse4/g16/l303.exe)
 DipDrv:  MaxL=1.
 The nuclear repulsion energy is now       739.4204387549 hartrees.
 Leave Link  303 at Wed May  1 14:48:22 2024, MaxMem=  1207959552 cpu:               3.1 elap:               3.1
 (Enter /software/gaussian/g16-c01/sse4/g16/l401.exe)
 ExpMin= 3.50D-02 ExpMax= 4.40D+05 ExpMxC= 1.51D+04 IAcc=3 IRadAn=         5 AccDes= 0.00D+00
 Harris functional with IExCor= 4639 and IRadAn=       5 diagonalized for initial guess.
 HarFok:  IExCor= 4639 AccDes= 0.00D+00 IRadAn=         5 IDoV= 1 UseB2=F ITyADJ=14
 ICtDFT=  3500011 ScaDFX=  1.000000  1.000000  1.000000  1.000000
 FoFCou: FMM=F IPFlag=           0 FMFlag=      100000 FMFlg1=           0
         NFxFlg=           0 DoJE=T BraDBF=F KetDBF=T FulRan=T
         wScrn=  0.000000 ICntrl=       500 IOpCl=  0 I1Cent=   200000004 NGrid=           0
         NMat0=    1 NMatS0=      1 NMatT0=    0 NMatD0=    1 NMtDS0=    0 NMtDT0=    0
 Symmetry not used in FoFCou.
 Harris En= -2970.59628551690    
 JPrj=0 DoOrth=F DoCkMO=F.
 Leave Link  401 at Wed May  1 14:48:52 2024, MaxMem=  1207959552 cpu:              29.6 elap:              29.6
 (Enter /software/gaussian/g16-c01/sse4/g16/l502.exe)
 Two-electron integral symmetry not used.
 Closed shell SCF:
 Using DIIS extrapolation, IDIIS=  1040.
 NGot=  1207959552 LenX=  1207804877 LenY=  1207729907
 Requested convergence on RMS density matrix=1.00D-08 within 128 cycles.
 Requested convergence on MAX density matrix=1.00D-06.
 Requested convergence on             energy=1.00D-06.
 No special actions if energy rises.
 Fock matrices will be formed incrementally for  20 cycles.

 Cycle   1  Pass 1  IDiag  1:
 FoFJK:  IHMeth= 1 ICntrl=       0 DoSepK=T KAlg= 0 I1Cent=           0 FoldK=F
 IRaf=         1 NMat=       1 IRICut=       1 DoRegI=T DoRafI=F ISym2E= 0 IDoP0=0 IntGTp=1.
 FoFCou: FMM=F IPFlag=           0 FMFlag=      100000 FMFlg1=           0
         NFxFlg=           0 DoJE=T BraDBF=F KetDBF=F FulRan=T
         wScrn=  0.000000 ICntrl=       500 IOpCl=  0 I1Cent=           0 NGrid=           0
         NMat0=    1 NMatS0=      1 NMatT0=    0 NMatD0=    1 NMtDS0=    0 NMtDT0=    0
 Symmetry not used in FoFCou.
 E= -3009.72651063678    
 DIIS: error= 3.20D-01 at cycle   1 NSaved=   1.
 NSaved= 1 IEnMin= 1 EnMin= -3009.72651063678     IErMin= 1 ErrMin= 3.20D-01
 ErrMax= 3.20D-01  0.00D+00 EMaxC= 1.00D-01 BMatC= 1.19D+01 BMatP= 1.19D+01
 IDIUse=3 WtCom= 0.00D+00 WtEn= 1.00D+00
 Coeff-Com:  0.100D+01
 Coeff-En:   0.100D+01
 Coeff:      0.100D+01
 Gap=     0.329 Goal=   None    Shift=    0.000
 GapD=    0.329 DampG=1.000 DampE=0.250 DampFc=0.2500 IDamp=-1.
 Damping current iteration by 2.50D-01
 RMSDP=4.05D-02 MaxDP=4.40D+00              OVMax= 2.55D-01

 Cycle   2  Pass 1  IDiag  1:
 RMSU=  4.06D-03    CP:  8.96D-01
 E= -3010.00824469240     Delta-E=       -0.281734055623 Rises=F Damp=T
 DIIS: error= 2.25D-01 at cycle   2 NSaved=   2.
 NSaved= 2 IEnMin= 2 EnMin= -3010.00824469240     IErMin= 2 ErrMin= 2.25D-01
 ErrMax= 2.25D-01  0.00D+00 EMaxC= 1.00D-01 BMatC= 5.45D+00 BMatP= 1.19D+01
 IDIUse=3 WtCom= 0.00D+00 WtEn= 1.00D+00
 Coeff-Com: -0.184D+01 0.284D+01
 Coeff-En:   0.000D+00 0.100D+01
 Coeff:      0.000D+00 0.100D+01
 Gap=     0.294 Goal=   None    Shift=    0.000
 RMSDP=3.18D-02 MaxDP=3.38D+00 DE=-2.82D-01 OVMax= 7.54D-02

 Cycle   3  Pass 1  IDiag  1:
 RMSU=  4.31D-03    CP:  5.61D-01  3.00D+00
 E= -3010.38737251121     Delta-E=       -0.379127818809 Rises=F Damp=F
 DIIS: error= 6.54D-02 at cycle   3 NSaved=   3.
 NSaved= 3 IEnMin= 3 EnMin= -3010.38737251121     IErMin= 3 ErrMin= 6.54D-02
 ErrMax= 6.54D-02  0.00D+00 EMaxC= 1.00D-01 BMatC= 7.27D-01 BMatP= 5.45D+00
 IDIUse=3 WtCom= 3.46D-01 WtEn= 6.54D-01
 Coeff-Com:  0.274D+01-0.360D+01 0.186D+01
 Coeff-En:   0.217D-01 0.000D+00 0.978D+00
 Coeff:      0.961D+00-0.124D+01 0.128D+01
 Gap=     0.258 Goal=   None    Shift=    0.000
 RMSDP=8.29D-03 MaxDP=4.60D-01 DE=-3.79D-01 OVMax= 6.66D-02

 Cycle   4  Pass 1  IDiag  1:
 RMSU=  4.61D-03    CP:  5.76D-01  2.15D+00  2.10D+00
 E= -3010.48808878240     Delta-E=       -0.100716271191 Rises=F Damp=F
 DIIS: error= 3.85D-02 at cycle   4 NSaved=   4.
 NSaved= 4 IEnMin= 4 EnMin= -3010.48808878240     IErMin= 4 ErrMin= 3.85D-02
 ErrMax= 3.85D-02  0.00D+00 EMaxC= 1.00D-01 BMatC= 2.33D-01 BMatP= 7.27D-01
 IDIUse=3 WtCom= 6.15D-01 WtEn= 3.85D-01
 Coeff-Com: -0.354D-01 0.609D-01 0.351D+00 0.623D+00
 Coeff-En:   0.000D+00 0.000D+00 0.201D+00 0.799D+00
 Coeff:     -0.218D-01 0.374D-01 0.293D+00 0.691D+00
 Gap=     0.269 Goal=   None    Shift=    0.000
 RMSDP=3.30D-03 MaxDP=2.46D-01 DE=-1.01D-01 OVMax= 3.58D-02

 Cycle   5  Pass 1  IDiag  1:
 RMSU=  1.38D-03    CP:  5.48D-01  2.52D+00  1.97D+00  8.59D-01
 E= -3010.53154430420     Delta-E=       -0.043455521801 Rises=F Damp=F
 DIIS: error= 6.59D-03 at cycle   5 NSaved=   5.
 NSaved= 5 IEnMin= 5 EnMin= -3010.53154430420     IErMin= 5 ErrMin= 6.59D-03
 ErrMax= 6.59D-03  0.00D+00 EMaxC= 1.00D-01 BMatC= 9.65D-03 BMatP= 2.33D-01
 IDIUse=3 WtCom= 9.34D-01 WtEn= 6.59D-02
 Coeff-Com: -0.146D+00 0.200D+00 0.103D+00 0.403D+00 0.440D+00
 Coeff-En:   0.000D+00 0.000D+00 0.000D+00 0.000D+00 0.100D+01
 Coeff:     -0.136D+00 0.187D+00 0.961D-01 0.376D+00 0.477D+00
 Gap=     0.265 Goal=   None    Shift=    0.000
 RMSDP=7.36D-04 MaxDP=5.81D-02 DE=-4.35D-02 OVMax= 2.65D-02

 Cycle   6  Pass 1  IDiag  1:
 RMSU=  4.60D-04    CP:  5.46D-01  2.52D+00  1.98D+00  8.83D-01  6.34D-01
 E= -3010.53466227984     Delta-E=       -0.003117975642 Rises=F Damp=F
 DIIS: error= 2.33D-03 at cycle   6 NSaved=   6.
 NSaved= 6 IEnMin= 6 EnMin= -3010.53466227984     IErMin= 6 ErrMin= 2.33D-03
 ErrMax= 2.33D-03  0.00D+00 EMaxC= 1.00D-01 BMatC= 6.00D-04 BMatP= 9.65D-03
 IDIUse=3 WtCom= 9.77D-01 WtEn= 2.33D-02
 Coeff-Com: -0.118D+00 0.159D+00-0.519D-03 0.177D+00 0.319D+00 0.463D+00
 Coeff-En:   0.000D+00 0.000D+00 0.000D+00 0.000D+00 0.579D-01 0.942D+00
 Coeff:     -0.116D+00 0.156D+00-0.507D-03 0.173D+00 0.313D+00 0.475D+00
 Gap=     0.257 Goal=   None    Shift=    0.000
 RMSDP=2.15D-04 MaxDP=9.26D-03 DE=-3.12D-03 OVMax= 8.15D-03

 Cycle   7  Pass 1  IDiag  1:
 RMSU=  1.61D-04    CP:  5.45D-01  2.52D+00  1.97D+00  8.73D-01  7.17D-01
                    CP:  8.71D-01
 E= -3010.53508367971     Delta-E=       -0.000421399868 Rises=F Damp=F
 DIIS: error= 2.58D-04 at cycle   7 NSaved=   7.
 NSaved= 7 IEnMin= 7 EnMin= -3010.53508367971     IErMin= 7 ErrMin= 2.58D-04
 ErrMax= 2.58D-04  0.00D+00 EMaxC= 1.00D-01 BMatC= 1.37D-05 BMatP= 6.00D-04
 IDIUse=3 WtCom= 9.97D-01 WtEn= 2.58D-03
 Coeff-Com: -0.323D-01 0.430D-01-0.125D-01 0.258D-01 0.559D-01 0.144D+00
 Coeff-Com:  0.776D+00
 Coeff-En:   0.000D+00 0.000D+00 0.000D+00 0.000D+00 0.000D+00 0.000D+00
 Coeff-En:   0.100D+01
 Coeff:     -0.323D-01 0.429D-01-0.124D-01 0.258D-01 0.558D-01 0.144D+00
 Coeff:      0.776D+00
 Gap=     0.258 Goal=   None    Shift=    0.000
 RMSDP=1.24D-04 MaxDP=8.92D-03 DE=-4.21D-04 OVMax= 2.79D-03

 Cycle   8  Pass 1  IDiag  1:
 RMSU=  5.71D-05    CP:  5.45D-01  2.50D+00  1.99D+00  8.82D-01  7.48D-01
                    CP:  9.54D-01  9.63D-01
 E= -3010.53510238732     Delta-E=       -0.000018707604 Rises=F Damp=F
 DIIS: error= 1.31D-04 at cycle   8 NSaved=   8.
 NSaved= 8 IEnMin= 8 EnMin= -3010.53510238732     IErMin= 8 ErrMin= 1.31D-04
 ErrMax= 1.31D-04  0.00D+00 EMaxC= 1.00D-01 BMatC= 2.44D-06 BMatP= 1.37D-05
 IDIUse=3 WtCom= 9.99D-01 WtEn= 1.31D-03
 Coeff-Com:  0.644D-02-0.885D-02-0.354D-02-0.147D-01-0.282D-01-0.366D-01
 Coeff-Com:  0.230D+00 0.855D+00
 Coeff-En:   0.000D+00 0.000D+00 0.000D+00 0.000D+00 0.000D+00 0.000D+00
 Coeff-En:   0.000D+00 0.100D+01
 Coeff:      0.643D-02-0.884D-02-0.353D-02-0.147D-01-0.282D-01-0.365D-01
 Coeff:      0.230D+00 0.856D+00
 Gap=     0.257 Goal=   None    Shift=    0.000
 RMSDP=5.37D-05 MaxDP=4.71D-03 DE=-1.87D-05 OVMax= 1.95D-03

 Cycle   9  Pass 1  IDiag  1:
 RMSU=  2.40D-05    CP:  5.45D-01  2.50D+00  1.99D+00  8.83D-01  7.48D-01
                    CP:  1.00D+00  1.16D+00  1.28D+00
 E= -3010.53510758696     Delta-E=       -0.000005199646 Rises=F Damp=F
 DIIS: error= 4.89D-05 at cycle   9 NSaved=   9.
 NSaved= 9 IEnMin= 9 EnMin= -3010.53510758696     IErMin= 9 ErrMin= 4.89D-05
 ErrMax= 4.89D-05  0.00D+00 EMaxC= 1.00D-01 BMatC= 2.37D-07 BMatP= 2.44D-06
 IDIUse=1 WtCom= 1.00D+00 WtEn= 0.00D+00
 Coeff-Com:  0.576D-02-0.773D-02 0.715D-03-0.728D-02-0.130D-01-0.287D-01
 Coeff-Com: -0.732D-01 0.207D+00 0.917D+00
 Coeff:      0.576D-02-0.773D-02 0.715D-03-0.728D-02-0.130D-01-0.287D-01
 Coeff:     -0.732D-01 0.207D+00 0.917D+00
 Gap=     0.257 Goal=   None    Shift=    0.000
 RMSDP=1.92D-05 MaxDP=1.34D-03 DE=-5.20D-06 OVMax= 1.12D-03

 Cycle  10  Pass 1  IDiag  1:
 RMSU=  7.37D-06    CP:  5.45D-01  2.50D+00  1.99D+00  8.83D-01  7.52D-01
                    CP:  1.02D+00  1.22D+00  1.41D+00  1.18D+00
 E= -3010.53510854885     Delta-E=       -0.000000961889 Rises=F Damp=F
 DIIS: error= 1.56D-05 at cycle  10 NSaved=  10.
 NSaved=10 IEnMin=10 EnMin= -3010.53510854885     IErMin=10 ErrMin= 1.56D-05
 ErrMax= 1.56D-05  0.00D+00 EMaxC= 1.00D-01 BMatC= 5.71D-08 BMatP= 2.37D-07
 IDIUse=1 WtCom= 1.00D+00 WtEn= 0.00D+00
 Coeff-Com:  0.507D-03-0.654D-03 0.355D-03-0.471D-03 0.881D-03-0.920D-03
 Coeff-Com: -0.514D-01-0.453D-01 0.285D+00 0.812D+00
 Coeff:      0.507D-03-0.654D-03 0.355D-03-0.471D-03 0.881D-03-0.920D-03
 Coeff:     -0.514D-01-0.453D-01 0.285D+00 0.812D+00
 Gap=     0.257 Goal=   None    Shift=    0.000
 RMSDP=7.16D-06 MaxDP=5.05D-04 DE=-9.62D-07 OVMax= 3.78D-04

 Cycle  11  Pass 1  IDiag  1:
 RMSU=  3.98D-06    CP:  5.46D-01  2.50D+00  1.99D+00  8.82D-01  7.52D-01
                    CP:  1.03D+00  1.23D+00  1.44D+00  1.29D+00  1.12D+00
 E= -3010.53510867908     Delta-E=       -0.000000130229 Rises=F Damp=F
 DIIS: error= 7.23D-06 at cycle  11 NSaved=  11.
 NSaved=11 IEnMin=11 EnMin= -3010.53510867908     IErMin=11 ErrMin= 7.23D-06
 ErrMax= 7.23D-06  0.00D+00 EMaxC= 1.00D-01 BMatC= 3.62D-09 BMatP= 5.71D-08
 IDIUse=1 WtCom= 1.00D+00 WtEn= 0.00D+00
 Coeff-Com: -0.341D-03 0.458D-03 0.514D-04 0.741D-03 0.162D-02 0.372D-02
 Coeff-Com:  0.104D-01-0.248D-01-0.126D+00-0.129D-01 0.115D+01
 Coeff:     -0.341D-03 0.458D-03 0.514D-04 0.741D-03 0.162D-02 0.372D-02
 Coeff:      0.104D-01-0.248D-01-0.126D+00-0.129D-01 0.115D+01
 Gap=     0.257 Goal=   None    Shift=    0.000
 RMSDP=3.70D-06 MaxDP=1.84D-04 DE=-1.30D-07 OVMax= 2.08D-04

 Cycle  12  Pass 1  IDiag  1:
 RMSU=  1.04D-06    CP:  5.46D-01  2.50D+00  1.99D+00  8.82D-01  7.52D-01
                    CP:  1.03D+00  1.23D+00  1.44D+00  1.34D+00  1.31D+00
                    CP:  1.38D+00
 E= -3010.53510870123     Delta-E=       -0.000000022147 Rises=F Damp=F
 DIIS: error= 1.69D-06 at cycle  12 NSaved=  12.
 NSaved=12 IEnMin=12 EnMin= -3010.53510870123     IErMin=12 ErrMin= 1.69D-06
 ErrMax= 1.69D-06  0.00D+00 EMaxC= 1.00D-01 BMatC= 1.14D-09 BMatP= 3.62D-09
 IDIUse=1 WtCom= 1.00D+00 WtEn= 0.00D+00
 Coeff-Com: -0.158D-03 0.210D-03 0.198D-05 0.349D-03 0.460D-03 0.127D-02
 Coeff-Com:  0.987D-02-0.587D-02-0.850D-01-0.101D+00 0.512D+00 0.668D+00
 Coeff:     -0.158D-03 0.210D-03 0.198D-05 0.349D-03 0.460D-03 0.127D-02
 Coeff:      0.987D-02-0.587D-02-0.850D-01-0.101D+00 0.512D+00 0.668D+00
 Gap=     0.257 Goal=   None    Shift=    0.000
 RMSDP=1.00D-06 MaxDP=4.79D-05 DE=-2.21D-08 OVMax= 4.80D-05

 Cycle  13  Pass 1  IDiag  1:
 RMSU=  4.22D-07    CP:  5.46D-01  2.50D+00  1.99D+00  8.82D-01  7.52D-01
                    CP:  1.03D+00  1.24D+00  1.44D+00  1.35D+00  1.34D+00
                    CP:  1.53D+00  7.86D-01
 E= -3010.53510870336     Delta-E=       -0.000000002130 Rises=F Damp=F
 DIIS: error= 5.16D-07 at cycle  13 NSaved=  13.
 NSaved=13 IEnMin=13 EnMin= -3010.53510870336     IErMin=13 ErrMin= 5.16D-07
 ErrMax= 5.16D-07  0.00D+00 EMaxC= 1.00D-01 BMatC= 8.37D-11 BMatP= 1.14D-09
 IDIUse=1 WtCom= 1.00D+00 WtEn= 0.00D+00
 Coeff-Com: -0.307D-04 0.410D-04-0.141D-04 0.253D-05-0.134D-03-0.390D-03
 Coeff-Com:  0.240D-05 0.132D-02 0.405D-02-0.138D-01-0.537D-01 0.105D+00
 Coeff-Com:  0.958D+00
 Coeff:     -0.307D-04 0.410D-04-0.141D-04 0.253D-05-0.134D-03-0.390D-03
 Coeff:      0.240D-05 0.132D-02 0.405D-02-0.138D-01-0.537D-01 0.105D+00
 Coeff:      0.958D+00
 Gap=     0.257 Goal=   None    Shift=    0.000
 RMSDP=3.43D-07 MaxDP=2.84D-05 DE=-2.13D-09 OVMax= 1.45D-05

 Cycle  14  Pass 1  IDiag  1:
 RMSU=  1.15D-07    CP:  5.46D-01  2.50D+00  1.99D+00  8.82D-01  7.52D-01
                    CP:  1.03D+00  1.24D+00  1.44D+00  1.35D+00  1.34D+00
                    CP:  1.58D+00  9.03D-01  1.24D+00
 E= -3010.53510870357     Delta-E=       -0.000000000211 Rises=F Damp=F
 DIIS: error= 1.95D-07 at cycle  14 NSaved=  14.
 NSaved=14 IEnMin=14 EnMin= -3010.53510870357     IErMin=14 ErrMin= 1.95D-07
 ErrMax= 1.95D-07  0.00D+00 EMaxC= 1.00D-01 BMatC= 1.05D-11 BMatP= 8.37D-11
 IDIUse=1 WtCom= 1.00D+00 WtEn= 0.00D+00
 Coeff-Com:  0.261D-06-0.242D-06-0.611D-05-0.289D-04-0.849D-04-0.259D-03
 Coeff-Com: -0.884D-03 0.107D-02 0.980D-02 0.389D-02-0.678D-01-0.389D-01
 Coeff-Com:  0.313D+00 0.780D+00
 Coeff:      0.261D-06-0.242D-06-0.611D-05-0.289D-04-0.849D-04-0.259D-03
 Coeff:     -0.884D-03 0.107D-02 0.980D-02 0.389D-02-0.678D-01-0.389D-01
 Coeff:      0.313D+00 0.780D+00
 Gap=     0.257 Goal=   None    Shift=    0.000
 RMSDP=9.63D-08 MaxDP=4.44D-06 DE=-2.11D-10 OVMax= 3.01D-06

 Cycle  15  Pass 1  IDiag  1:
 RMSU=  3.56D-08    CP:  5.45D-01  2.50D+00  1.99D+00  8.82D-01  7.52D-01
                    CP:  1.03D+00  1.24D+00  1.44D+00  1.35D+00  1.34D+00
                    CP:  1.59D+00  8.97D-01  1.37D+00  1.11D+00
 E= -3010.53510870350     Delta-E=        0.000000000070 Rises=F Damp=F
 DIIS: error= 7.70D-08 at cycle  15 NSaved=  15.
 NSaved=15 IEnMin=14 EnMin= -3010.53510870357     IErMin=15 ErrMin= 7.70D-08
 ErrMax= 7.70D-08  0.00D+00 EMaxC= 1.00D-01 BMatC= 1.65D-12 BMatP= 1.05D-11
 IDIUse=1 WtCom= 1.00D+00 WtEn= 0.00D+00
 Coeff-Com:  0.343D-05-0.455D-05 0.181D-06-0.680D-05-0.792D-06-0.115D-04
 Coeff-Com: -0.206D-03 0.858D-04 0.216D-02 0.245D-02-0.105D-01-0.315D-01
 Coeff-Com: -0.408D-01 0.245D+00 0.833D+00
 Coeff:      0.343D-05-0.455D-05 0.181D-06-0.680D-05-0.792D-06-0.115D-04
 Coeff:     -0.206D-03 0.858D-04 0.216D-02 0.245D-02-0.105D-01-0.315D-01
 Coeff:     -0.408D-01 0.245D+00 0.833D+00
 Gap=     0.257 Goal=   None    Shift=    0.000
 RMSDP=5.80D-08 MaxDP=5.89D-06 DE= 6.96D-11 OVMax= 1.67D-06

 Cycle  16  Pass 1  IDiag  1:
 RMSU=  2.89D-08    CP:  5.45D-01  2.50D+00  1.99D+00  8.82D-01  7.52D-01
                    CP:  1.03D+00  1.24D+00  1.44D+00  1.35D+00  1.33D+00
                    CP:  1.60D+00  9.00D-01  1.42D+00  1.19D+00  9.45D-01
 E= -3010.53510870353     Delta-E=       -0.000000000033 Rises=F Damp=F
 DIIS: error= 2.91D-08 at cycle  16 NSaved=  16.
 NSaved=16 IEnMin=14 EnMin= -3010.53510870357     IErMin=16 ErrMin= 2.91D-08
 ErrMax= 2.91D-08  0.00D+00 EMaxC= 1.00D-01 BMatC= 3.61D-13 BMatP= 1.65D-12
 IDIUse=1 WtCom= 1.00D+00 WtEn= 0.00D+00
 Coeff-Com:  0.100D-05-0.134D-05 0.956D-06 0.229D-05 0.125D-04 0.340D-04
 Coeff-Com:  0.575D-04-0.181D-03-0.739D-03 0.286D-03 0.796D-02-0.572D-02
 Coeff-Com: -0.496D-01-0.772D-01 0.220D+00 0.905D+00
 Coeff:      0.100D-05-0.134D-05 0.956D-06 0.229D-05 0.125D-04 0.340D-04
 Coeff:      0.575D-04-0.181D-03-0.739D-03 0.286D-03 0.796D-02-0.572D-02
 Coeff:     -0.496D-01-0.772D-01 0.220D+00 0.905D+00
 Gap=     0.257 Goal=   None    Shift=    0.000
 RMSDP=2.08D-08 MaxDP=1.06D-06 DE=-3.32D-11 OVMax= 1.27D-06

 Cycle  17  Pass 1  IDiag  1:
 RMSU=  6.83D-09    CP:  5.45D-01  2.50D+00  1.99D+00  8.82D-01  7.52D-01
                    CP:  1.03D+00  1.24D+00  1.44D+00  1.35D+00  1.33D+00
                    CP:  1.60D+00  8.96D-01  1.45D+00  1.22D+00  1.15D+00
                    CP:  1.26D+00
 E= -3010.53510870356     Delta-E=       -0.000000000029 Rises=F Damp=F
 DIIS: error= 1.23D-08 at cycle  17 NSaved=  17.
 NSaved=17 IEnMin=14 EnMin= -3010.53510870357     IErMin=17 ErrMin= 1.23D-08
 ErrMax= 1.23D-08  0.00D+00 EMaxC= 1.00D-01 BMatC= 1.15D-13 BMatP= 3.61D-13
 IDIUse=1 WtCom= 1.00D+00 WtEn= 0.00D+00
 Coeff-Com: -0.682D-06 0.908D-06 0.220D-06 0.248D-05 0.559D-05 0.163D-04
 Coeff-Com:  0.621D-04-0.902D-04-0.678D-03-0.429D-03 0.505D-02 0.218D-02
 Coeff-Com: -0.664D-02-0.873D-01-0.107D+00 0.351D+00 0.843D+00
 Coeff:     -0.682D-06 0.908D-06 0.220D-06 0.248D-05 0.559D-05 0.163D-04
 Coeff:      0.621D-04-0.902D-04-0.678D-03-0.429D-03 0.505D-02 0.218D-02
 Coeff:     -0.664D-02-0.873D-01-0.107D+00 0.351D+00 0.843D+00
 Gap=     0.257 Goal=   None    Shift=    0.000
 RMSDP=1.48D-08 MaxDP=9.14D-07 DE=-2.86D-11 OVMax= 7.25D-07

 Cycle  18  Pass 1  IDiag  1:
 RMSU=  3.54D-09    CP:  5.45D-01  2.50D+00  1.99D+00  8.82D-01  7.52D-01
                    CP:  1.03D+00  1.24D+00  1.44D+00  1.35D+00  1.33D+00
                    CP:  1.60D+00  8.93D-01  1.46D+00  1.22D+00  1.20D+00
                    CP:  1.55D+00  1.44D+00
 E= -3010.53510870358     Delta-E=       -0.000000000024 Rises=F Damp=F
 DIIS: error= 6.00D-09 at cycle  18 NSaved=  18.
 NSaved=18 IEnMin=18 EnMin= -3010.53510870358     IErMin=18 ErrMin= 6.00D-09
 ErrMax= 6.00D-09  0.00D+00 EMaxC= 1.00D-01 BMatC= 1.86D-14 BMatP= 1.15D-13
 IDIUse=1 WtCom= 1.00D+00 WtEn= 0.00D+00
 Coeff-Com: -0.594D-07 0.777D-07-0.225D-06-0.868D-06-0.460D-05-0.114D-04
 Coeff-Com: -0.113D-04 0.607D-04 0.180D-03-0.283D-03-0.189D-02 0.147D-02
 Coeff-Com:  0.226D-01 0.117D-01-0.115D+00-0.216D+00 0.106D+00 0.119D+01
 Coeff:     -0.594D-07 0.777D-07-0.225D-06-0.868D-06-0.460D-05-0.114D-04
 Coeff:     -0.113D-04 0.607D-04 0.180D-03-0.283D-03-0.189D-02 0.147D-02
 Coeff:      0.226D-01 0.117D-01-0.115D+00-0.216D+00 0.106D+00 0.119D+01
 Gap=     0.257 Goal=   None    Shift=    0.000
 RMSDP=1.08D-08 MaxDP=9.77D-07 DE=-2.36D-11 OVMax= 5.78D-07

 Cycle  19  Pass 1  IDiag  1:
 RMSU=  1.64D-09    CP:  5.45D-01  2.50D+00  1.99D+00  8.82D-01  7.52D-01
                    CP:  1.03D+00  1.24D+00  1.44D+00  1.35D+00  1.33D+00
                    CP:  1.60D+00  8.92D-01  1.47D+00  1.21D+00  1.22D+00
                    CP:  1.75D+00  1.95D+00  1.68D+00
 E= -3010.53510870355     Delta-E=        0.000000000039 Rises=F Damp=F
 DIIS: error= 3.10D-09 at cycle  19 NSaved=  19.
 NSaved=19 IEnMin=18 EnMin= -3010.53510870358     IErMin=19 ErrMin= 3.10D-09
 ErrMax= 3.10D-09  0.00D+00 EMaxC= 1.00D-01 BMatC= 1.66D-15 BMatP= 1.86D-14
 IDIUse=1 WtCom= 1.00D+00 WtEn= 0.00D+00
 Large coefficients: NSaved= 19 BigCof=    0.00 CofMax=   10.00 Det=-3.77D-15
 Inversion failed.  Reducing to 18 matrices.
 Large coefficients: NSaved= 18 BigCof=    0.00 CofMax=   10.00 Det=-3.74D-15
 Inversion failed.  Reducing to 17 matrices.
 Large coefficients: NSaved= 17 BigCof=    0.00 CofMax=   10.00 Det=-3.67D-15
 Inversion failed.  Reducing to 16 matrices.
 Large coefficients: NSaved= 16 BigCof=    0.00 CofMax=   10.00 Det=-3.91D-15
 Inversion failed.  Reducing to 15 matrices.
 Coeff-Com: -0.215D-06-0.184D-06 0.139D-05 0.469D-06 0.851D-06-0.403D-04
 Coeff-Com: -0.192D-04 0.767D-05 0.148D-02 0.607D-02-0.829D-02-0.296D-01
 Coeff-Com: -0.709D-01 0.118D+00 0.983D+00
 Coeff:     -0.215D-06-0.184D-06 0.139D-05 0.469D-06 0.851D-06-0.403D-04
 Coeff:     -0.192D-04 0.767D-05 0.148D-02 0.607D-02-0.829D-02-0.296D-01
 Coeff:     -0.709D-01 0.118D+00 0.983D+00
 Gap=     0.257 Goal=   None    Shift=    0.000
 RMSDP=2.10D-09 MaxDP=1.38D-07 DE= 3.87D-11 OVMax= 1.09D-07

 SCF Done:  E(RwB97XD) =  -3010.53510870     A.U. after   19 cycles
            NFock= 19  Conv=0.21D-08     -V/T= 2.0016
 KE= 3.005857032712D+03 PE=-8.632427990661D+03 EE= 1.876615410491D+03
 Leave Link  502 at Wed May  1 15:06:42 2024, MaxMem=  1207959552 cpu:            1069.7 elap:            1069.9
 (Enter /software/gaussian/g16-c01/sse4/g16/l601.exe)
 Copying SCF densities to generalized density rwf, IOpCl= 0 IROHF=0.

 **********************************************************************

            Population analysis using the SCF Density.

 **********************************************************************

 Alpha  occ. eigenvalues -- -483.31376 -62.86407 -56.66092 -56.65530 -56.65528
 Alpha  occ. eigenvalues --  -19.45731 -19.45624 -14.85216 -10.58357 -10.57281
 Alpha  occ. eigenvalues --  -10.57060 -10.56900 -10.56539 -10.52650  -9.02217
 Alpha  occ. eigenvalues --   -6.84875  -6.83032  -6.83019  -2.94784  -2.94294
 Alpha  occ. eigenvalues --   -2.94282  -2.92808  -2.92808  -1.49477  -1.32451
 Alpha  occ. eigenvalues --   -1.22512  -1.13992  -1.11562  -1.04447  -1.00864
 Alpha  occ. eigenvalues --   -0.95327  -0.90785  -0.85095  -0.80584  -0.80472
 Alpha  occ. eigenvalues --   -0.79825  -0.78181  -0.75926  -0.75729  -0.72190
 Alpha  occ. eigenvalues --   -0.69167  -0.67349  -0.63539  -0.60078  -0.57034
 Alpha  occ. eigenvalues --   -0.56543  -0.55984  -0.55464  -0.55259
 Alpha virt. eigenvalues --   -0.29511  -0.21156  -0.15591  -0.13259  -0.08772
 Alpha virt. eigenvalues --   -0.05833  -0.05494  -0.04763  -0.04595  -0.03137
 Alpha virt. eigenvalues --   -0.02537  -0.02066  -0.01576  -0.01128   0.00065
 Alpha virt. eigenvalues --    0.00938   0.01830   0.01921   0.02639   0.02813
 Alpha virt. eigenvalues --    0.04334   0.04882   0.05241   0.06218   0.06640
 Alpha virt. eigenvalues --    0.07187   0.07750   0.07926   0.08805   0.09576
 Alpha virt. eigenvalues --    0.10637   0.11043   0.11302   0.11997   0.12675
 Alpha virt. eigenvalues --    0.12866   0.13249   0.13683   0.15101   0.16414
 Alpha virt. eigenvalues --    0.16449   0.17533   0.17912   0.18886   0.19181
 Alpha virt. eigenvalues --    0.19308   0.20997   0.21499   0.21772   0.24512
 Alpha virt. eigenvalues --    0.25460   0.27883   0.28190   0.29093   0.31033
 Alpha virt. eigenvalues --    0.32827   0.33604   0.34016   0.34945   0.36153
 Alpha virt. eigenvalues --    0.37241   0.38232   0.39112   0.40656   0.41657
 Alpha virt. eigenvalues --    0.42665   0.43844   0.44389   0.46464   0.47517
 Alpha virt. eigenvalues --    0.47917   0.50082   0.50929   0.52184   0.53689
 Alpha virt. eigenvalues --    0.54158   0.55136   0.56598   0.56953   0.59851
 Alpha virt. eigenvalues --    0.61297   0.62262   0.63995   0.66769   0.68679
 Alpha virt. eigenvalues --    0.70211   0.72178   0.72904   0.73349   0.74428
 Alpha virt. eigenvalues --    0.74633   0.79497   0.79990   0.82945   0.85183
 Alpha virt. eigenvalues --    0.86406   0.88098   0.91874   0.93114   0.98624
 Alpha virt. eigenvalues --    0.99723   1.01204   1.04690   1.05472   1.06623
 Alpha virt. eigenvalues --    1.09150   1.11096   1.12156   1.12579   1.14337
 Alpha virt. eigenvalues --    1.22177   1.24601   1.26822   1.33093   1.36584
 Alpha virt. eigenvalues --    1.36966   1.38001   1.45173   1.54462   1.57205
 Alpha virt. eigenvalues --    1.58583   1.58824   1.60717   1.62436   1.66373
 Alpha virt. eigenvalues --    1.69220   1.69757   1.73667   1.75398   1.79139
 Alpha virt. eigenvalues --    1.81174   1.85587   1.87505   1.93227   1.95336
 Alpha virt. eigenvalues --    1.97837   2.03008   2.03885   2.06764   2.08061
 Alpha virt. eigenvalues --    2.09564   2.14824   2.20537   2.22801   2.29650
 Alpha virt. eigenvalues --    2.37683   2.41216   2.42541   2.43554   2.52583
 Alpha virt. eigenvalues --    2.56780   2.63151   2.66183   2.68293   2.71868
 Alpha virt. eigenvalues --    2.73457   2.76606   2.77470   2.81151   2.81815
 Alpha virt. eigenvalues --    2.93539   2.96354   3.00776   3.05537   3.09010
 Alpha virt. eigenvalues --    3.13099   3.15124   3.19229   3.23828   3.24370
 Alpha virt. eigenvalues --    3.27485   3.39234   3.47822   3.51343   3.54555
 Alpha virt. eigenvalues --    3.56938   3.70056   3.74242   3.82264   3.87236
 Alpha virt. eigenvalues --    4.08699   4.08935   4.16462   4.21666   4.42498
 Alpha virt. eigenvalues --    4.44486   4.57503   4.60010   4.93334   4.96000
 Alpha virt. eigenvalues --    5.04648   5.08819   5.62961   6.15904   6.64418
 Alpha virt. eigenvalues --    7.47376   7.48950   7.58746  23.21390  23.61378
 Alpha virt. eigenvalues --   23.69494  23.79599  23.96170  24.01494  35.32742
 Alpha virt. eigenvalues --   47.91022  49.85710  49.94522 289.80357 289.82025
 Alpha virt. eigenvalues --  289.944711020.91452
          Condensed to atoms (all electrons):
               1          2          3          4          5          6
     1  C    8.754741  -2.201110   0.192856  -1.532117  -0.635242   0.309446
     2  C   -2.201110  12.566008  -1.721004  -2.647911   0.746423  -0.013594
     3  C    0.192856  -1.721004  12.937486  -3.028887  -1.233531   0.023574
     4  C   -1.532117  -2.647911  -3.028887  14.654157   1.189452   0.009390
     5  C   -0.635242   0.746423  -1.233531   1.189452   7.339400   0.013150
     6  H    0.309446  -0.013594   0.023574   0.009390   0.013150   0.328553
     7  H    0.065240   0.235380   0.072749  -0.031176  -0.018874  -0.001697
     8  H    0.004320  -0.012635   0.077190   0.240214  -0.019652   0.000002
     9  H    0.034559  -0.015092   0.004233  -0.008455   0.308677  -0.002286
    10  N   -0.135365   0.332135  -0.912530   0.318478   0.017804  -0.000602
    11  O    0.016539  -0.073467  -0.260045  -0.019995  -0.057256  -0.000023
    12  O    0.318115  -0.027136  -0.281661  -0.086863  -0.041968   0.000012
    13  C    1.352401  -1.686878   0.800149  -3.328717  -1.645276  -0.007260
    14  H   -0.011354   0.000555   0.001583  -0.051624  -0.019530  -0.000048
    15  Br   0.040707   0.010598   0.034345   0.042782   0.046477  -0.000387
               7          8          9         10         11         12
     1  C    0.065240   0.004320   0.034559  -0.135365   0.016539   0.318115
     2  C    0.235380  -0.012635  -0.015092   0.332135  -0.073467  -0.027136
     3  C    0.072749   0.077190   0.004233  -0.912530  -0.260045  -0.281661
     4  C   -0.031176   0.240214  -0.008455   0.318478  -0.019995  -0.086863
     5  C   -0.018874  -0.019652   0.308677   0.017804  -0.057256  -0.041968
     6  H   -0.001697   0.000002  -0.002286  -0.000602  -0.000023   0.000012
     7  H    0.295512  -0.000001   0.000017  -0.024894  -0.001432   0.021694
     8  H   -0.000001   0.299997   0.000101  -0.024311   0.023240  -0.000935
     9  H    0.000017   0.000101   0.325028   0.000379   0.000006   0.000006
    10  N   -0.024894  -0.024311   0.000379   7.350296   0.182279   0.162307
    11  O   -0.001432   0.023240   0.000006   0.182279   7.854895   0.000873
    12  O    0.021694  -0.000935   0.000006   0.162307   0.000873   7.854983
    13  C    0.014374   0.046582   0.005426  -0.163697   0.313055   0.039798
    14  H   -0.000019  -0.004278  -0.005446  -0.000163  -0.000254  -0.000073
    15  Br  -0.000068   0.002781   0.001504   0.005314   0.000165   0.002029
              13         14         15
     1  C    1.352401  -0.011354   0.040707
     2  C   -1.686878   0.000555   0.010598
     3  C    0.800149   0.001583   0.034345
     4  C   -3.328717  -0.051624   0.042782
     5  C   -1.645276  -0.019530   0.046477
     6  H   -0.007260  -0.000048  -0.000387
     7  H    0.014374  -0.000019  -0.000068
     8  H    0.046582  -0.004278   0.002781
     9  H    0.005426  -0.005446   0.001504
    10  N   -0.163697  -0.000163   0.005314
    11  O    0.313055  -0.000254   0.000165
    12  O    0.039798  -0.000073   0.002029
    13  C   10.349214   0.386478  -0.008955
    14  H    0.386478   0.347911  -0.042827
    15  Br  -0.008955  -0.042827  34.703142
 Mulliken charges:
               1
     1  C   -0.573736
     2  C    0.507728
     3  C   -0.706510
     4  C    0.281272
     5  C    0.009945
     6  H    0.341772
     7  H    0.373195
     8  H    0.367387
     9  H    0.351345
    10  N   -0.107429
    11  O    0.021421
    12  O    0.038819
    13  C   -0.466693
    14  H    0.399089
    15  Br   0.162395
 Sum of Mulliken charges =   1.00000
 Mulliken charges with hydrogens summed into heavy atoms:
               1
     1  C   -0.231965
     2  C    0.880923
     3  C   -0.706510
     4  C    0.648659
     5  C    0.361290
    10  N   -0.107429
    11  O    0.021421
    12  O    0.038819
    13  C   -0.067604
    15  Br   0.162395
 Electronic spatial extent (au):  <R**2>=           2798.6006
 Charge=              1.0000 electrons
 Dipole moment (field-independent basis, Debye):
    X=             -0.7643    Y=             -0.0406    Z=              0.0515  Tot=              0.7671
 Quadrupole moment (field-independent basis, Debye-Ang):
   XX=            -71.1446   YY=            -52.2372   ZZ=            -62.7785
   XY=              1.9096   XZ=              1.0497   YZ=              1.4118
 Traceless Quadrupole moment (field-independent basis, Debye-Ang):
   XX=             -9.0912   YY=              9.8162   ZZ=             -0.7251
   XY=              1.9096   XZ=              1.0497   YZ=              1.4118
 Octapole moment (field-independent basis, Debye-Ang**2):
  XXX=           -298.9000  YYY=             90.8502  ZZZ=             77.7623  XYY=            -75.7344
  XXY=             32.9568  XXZ=             32.2925  XZZ=            -77.9877  YZZ=             17.0855
  YYZ=             26.0990  XYZ=             -3.2657
 Hexadecapole moment (field-independent basis, Debye-Ang**3):
 XXXX=          -2276.9235 YYYY=           -679.4780 ZZZZ=           -348.6904 XXXY=            -58.2518
 XXXZ=            -21.7975 YYYX=            -57.7237 YYYZ=           -157.4860 ZZZX=            -18.5073
 ZZZY=           -136.7789 XXYY=           -455.9813 XXZZ=           -370.4168 YYZZ=           -164.7396
 XXYZ=            -54.9846 YYXZ=             -2.4981 ZZXY=             -8.4355
 N-N= 7.394204387549D+02 E-N=-8.632427990294D+03  KE= 3.005857032712D+03
 No NMR shielding tensors so no spin-rotation constants.
 Leave Link  601 at Wed May  1 15:06:49 2024, MaxMem=  1207959552 cpu:               7.2 elap:               7.2
 (Enter /software/gaussian/g16-c01/sse4/g16/l9999.exe)
 Unable to Open any file for archive entry.
 1\1\GINC-BHX0024\SP\RwB97XD\6-311+G(d)\C6H5Br1N1O2(1+)\BWEIGHT\01-May-
 2024\0\\#P wB97XD/6-311+G* NoSymm #P Field=Y-19\\TitleMe\\1,1\C,0,0.02
 95,1.3397,0.0682\C,0,1.4348,1.2867,0.0064\C,0,2.1118,0.0511,-0.0054\C,
 0,1.4451,-1.1372,0.0312\C,0,-0.6879,0.1682,0.11\H,0,-0.4713,2.2984,0.0
 781\H,0,2.0273,2.1965,-0.0322\H,0,1.9897,-2.0764,0.0232\H,0,-1.7716,0.
 1804,0.1582\N,0,3.5864,0.051,-0.0675\O,0,4.1471,-1.0597,-0.0881\O,0,4.
 145,1.1639,-0.0901\C,0,-0.0236,-1.1458,0.0835\H,0,-0.4367,-1.8725,0.78
 89\Br,0,-0.5359,-1.8697,-1.7408\\Version=ES64L-G16RevC.01\HF=-3010.535
 1087\RMSD=2.098e-09\Dipole=-2.2072375,1.1321002,1.1664222\Quadrupole=-
 6.7590626,7.2981341,-0.5390715,1.4197491,0.7804494,1.0496645\PG=C01 [X
 (C6H5Br1N1O2)]\\@
 The archive entry for this job was punched.


 HONESTY IN A LAWYER IS LIKE A HEN'S HIND LEGS.
  -- MAGNUS OLESON, LAKE WOBEGON PATRIARCH, C.1875
 Job cpu time:       0 days  0 hours 18 minutes 56.3 seconds.
 Elapsed time:       0 days  0 hours 18 minutes 56.4 seconds.
 File lengths (MBytes):  RWF=     40 Int=      0 D2E=      0 Chk=     32 Scr=      1
 Normal termination of Gaussian 16 at Wed May  1 15:06:50 2024.
