 Entering Gaussian System, Link 0=g16
 Initial command:
 /software/gaussian/g16-c01/sse4/g16/l1.exe "/local_scratch/24665355/Gau-10231.inp" -scrdir="/local_scratch/24665355/"
 Entering Link 1 = /software/gaussian/g16-c01/sse4/g16/l1.exe PID=     10253.
  
 Copyright (c) 1988-2019, Gaussian, Inc.  All Rights Reserved.
  
 This is part of the Gaussian(R) 16 program.  It is based on
 the Gaussian(R) 09 system (copyright 2009, Gaussian, Inc.),
 the Gaussian(R) 03 system (copyright 2003, Gaussian, Inc.),
 the Gaussian(R) 98 system (copyright 1998, Gaussian, Inc.),
 the Gaussian(R) 94 system (copyright 1995, Gaussian, Inc.),
 the Gaussian 92(TM) system (copyright 1992, Gaussian, Inc.),
 the Gaussian 90(TM) system (copyright 1990, Gaussian, Inc.),
 the Gaussian 88(TM) system (copyright 1988, Gaussian, Inc.),
 the Gaussian 86(TM) system (copyright 1986, Carnegie Mellon
 University), and the Gaussian 82(TM) system (copyright 1983,
 Carnegie Mellon University). Gaussian is a federally registered
 trademark of Gaussian, Inc.
  
 This software contains proprietary and confidential information,
 including trade secrets, belonging to Gaussian, Inc.
  
 This software is provided under written license and may be
 used, copied, transmitted, or stored only in accord with that
 written license.
  
 The following legend is applicable only to US Government
 contracts under FAR:
  
                    RESTRICTED RIGHTS LEGEND
  
 Use, reproduction and disclosure by the US Government is
 subject to restrictions as set forth in subparagraphs (a)
 and (c) of the Commercial Computer Software - Restricted
 Rights clause in FAR 52.227-19.
  
 Gaussian, Inc.
 340 Quinnipiac St., Bldg. 40, Wallingford CT 06492
  
  
 ---------------------------------------------------------------
 Warning -- This program may not be used in any manner that
 competes with the business of Gaussian, Inc. or will provide
 assistance to any competitor of Gaussian, Inc.  The licensee
 of this program is prohibited from giving any competitor of
 Gaussian, Inc. access to this program.  By using this program,
 the user acknowledges that Gaussian, Inc. is engaged in the
 business of creating and licensing software in the field of
 computational chemistry and represents and warrants to the
 licensee that it is not a competitor of Gaussian, Inc. and that
 it will not use this program in any manner prohibited above.
 ---------------------------------------------------------------
  

 Cite this work as:
 Gaussian 16, Revision C.01,
 M. J. Frisch, G. W. Trucks, H. B. Schlegel, G. E. Scuseria, 
 M. A. Robb, J. R. Cheeseman, G. Scalmani, V. Barone, 
 G. A. Petersson, H. Nakatsuji, X. Li, M. Caricato, A. V. Marenich, 
 J. Bloino, B. G. Janesko, R. Gomperts, B. Mennucci, H. P. Hratchian, 
 J. V. Ortiz, A. F. Izmaylov, J. L. Sonnenberg, D. Williams-Young, 
 F. Ding, F. Lipparini, F. Egidi, J. Goings, B. Peng, A. Petrone, 
 T. Henderson, D. Ranasinghe, V. G. Zakrzewski, J. Gao, N. Rega, 
 G. Zheng, W. Liang, M. Hada, M. Ehara, K. Toyota, R. Fukuda, 
 J. Hasegawa, M. Ishida, T. Nakajima, Y. Honda, O. Kitao, H. Nakai, 
 T. Vreven, K. Throssell, J. A. Montgomery, Jr., J. E. Peralta, 
 F. Ogliaro, M. J. Bearpark, J. J. Heyd, E. N. Brothers, K. N. Kudin, 
 V. N. Staroverov, T. A. Keith, R. Kobayashi, J. Normand, 
 K. Raghavachari, A. P. Rendell, J. C. Burant, S. S. Iyengar, 
 J. Tomasi, M. Cossi, J. M. Millam, M. Klene, C. Adamo, R. Cammi, 
 J. W. Ochterski, R. L. Martin, K. Morokuma, O. Farkas, 
 J. B. Foresman, and D. J. Fox, Gaussian, Inc., Wallingford CT, 2019.
 
 ******************************************
 Gaussian 16:  ES64L-G16RevC.01  3-Jul-2019
                 2-May-2024 
 ******************************************
 %chk=geometry.chk
 %mem=1GB
 %nprocshared=12
 Will use up to   12 processors via shared memory.
 ----------------------------------------
 #P wB97XD/6-311+G* NoSymm #P Field=Z-272
 ----------------------------------------
 1/38=1,172=1/1;
 2/12=2,15=1,17=6,18=5,40=1/2;
 3/5=4,6=6,7=11,11=2,14=3,15=-272,25=1,30=1,74=-58/1,2,3;
 4//1;
 5/5=2,38=5/2;
 6/7=2,8=2,9=2,10=2,28=1/1;
 99/5=1,9=1/99;
 Leave Link    1 at Thu May  2 13:58:20 2024, MaxMem=   134217728 cpu:               2.8 elap:               2.8
 (Enter /software/gaussian/g16-c01/sse4/g16/l101.exe)
 -------
 TitleMe
 -------
 Symbolic Z-matrix:
 Charge =  1 Multiplicity = 1
 C                     0.5193    1.233    -0.0319 
 C                     1.9445    1.2692   -0.0367 
 C                     2.6204    0.0928   -0.025 
 C                    -0.196     0.0301    0.001 
 H                    -0.0207    2.1742   -0.0434 
 H                     2.4828    2.2089   -0.0361 
 H                    -1.2777    0.0399    0.0117 
 N                     4.0921    0.0959    0.0366 
 O                     4.6393   -1.0217    0.1446 
 O                     4.6649    1.1984   -0.0233 
 C                     0.4943   -1.1671    0.021 
 H                    -0.0325   -2.1149    0.0545 
 C                     1.9629   -1.2165   -0.0211 
 H                     2.4436   -1.9631    0.6151 
 Br                    2.173    -1.9491   -1.9062 
 
 ITRead=  0  0  0  0  0  0  0  0  0  0  0  0  0  0  0
 MicOpt= -1 -1 -1 -1 -1 -1 -1 -1 -1 -1 -1 -1 -1 -1 -1
 NAtoms=     15 NQM=       15 NQMF=       0 NMMI=      0 NMMIF=      0
                NMic=       0 NMicF=      0.
                    Isotopes and Nuclear Properties:
 (Nuclear quadrupole moments (NQMom) in fm**2, nuclear magnetic moments (NMagM)
  in nuclear magnetons)

  Atom         1           2           3           4           5           6           7           8           9          10
 IAtWgt=          12          12          12          12           1           1           1          14          16          16
 AtmWgt=  12.0000000  12.0000000  12.0000000  12.0000000   1.0078250   1.0078250   1.0078250  14.0030740  15.9949146  15.9949146
 NucSpn=           0           0           0           0           1           1           1           2           0           0
 AtZEff=  -0.0000000  -0.0000000  -0.0000000  -0.0000000  -0.0000000  -0.0000000  -0.0000000  -0.0000000  -0.0000000  -0.0000000
 NQMom=    0.0000000   0.0000000   0.0000000   0.0000000   0.0000000   0.0000000   0.0000000   2.0440000   0.0000000   0.0000000
 NMagM=    0.0000000   0.0000000   0.0000000   0.0000000   2.7928460   2.7928460   2.7928460   0.4037610   0.0000000   0.0000000
 AtZNuc=   6.0000000   6.0000000   6.0000000   6.0000000   1.0000000   1.0000000   1.0000000   7.0000000   8.0000000   8.0000000

  Atom        11          12          13          14          15
 IAtWgt=          12           1          12           1          79
 AtmWgt=  12.0000000   1.0078250  12.0000000   1.0078250  78.9183361
 NucSpn=           0           1           0           1           3
 AtZEff=  -0.0000000  -0.0000000  -0.0000000  -0.0000000  -0.0000000
 NQMom=    0.0000000   0.0000000   0.0000000   0.0000000  31.3000000
 NMagM=    0.0000000   2.7928460   0.0000000   2.7928460   2.1063990
 AtZNuc=   6.0000000   1.0000000   6.0000000   1.0000000  35.0000000
 Leave Link  101 at Thu May  2 13:58:22 2024, MaxMem=   134217728 cpu:               1.5 elap:               1.7
 (Enter /software/gaussian/g16-c01/sse4/g16/l202.exe)
                          Input orientation:                          
 ---------------------------------------------------------------------
 Center     Atomic      Atomic             Coordinates (Angstroms)
 Number     Number       Type             X           Y           Z
 ---------------------------------------------------------------------
      1          6           0        0.519300    1.233000   -0.031900
      2          6           0        1.944500    1.269200   -0.036700
      3          6           0        2.620400    0.092800   -0.025000
      4          6           0       -0.196000    0.030100    0.001000
      5          1           0       -0.020700    2.174200   -0.043400
      6          1           0        2.482800    2.208900   -0.036100
      7          1           0       -1.277700    0.039900    0.011700
      8          7           0        4.092100    0.095900    0.036600
      9          8           0        4.639300   -1.021700    0.144600
     10          8           0        4.664900    1.198400   -0.023300
     11          6           0        0.494300   -1.167100    0.021000
     12          1           0       -0.032500   -2.114900    0.054500
     13          6           0        1.962900   -1.216500   -0.021100
     14          1           0        2.443600   -1.963100    0.615100
     15         35           0        2.173000   -1.949100   -1.906200
 ---------------------------------------------------------------------
                    Distance matrix (angstroms):
                    1          2          3          4          5
     1  C    0.000000
     2  C    1.425668   0.000000
     3  C    2.390549   1.356796   0.000000
     4  C    1.399895   2.473566   2.817218   0.000000
     5  H    1.085168   2.163581   3.362733   2.151712   0.000000
     6  H    2.192654   1.082960   2.120598   3.453189   2.503751
     7  H    2.157452   3.449071   3.898632   1.081797   2.477564
     8  N    3.750012   2.448304   1.472992   4.288753   4.608780
     9  O    4.699917   3.541615   2.312322   4.950458   5.653735
    10  O    4.145753   2.721354   2.324292   4.999386   4.786171
    11  C    2.400813   2.835836   2.471794   1.382101   3.381369
    12  H    3.394169   3.920329   3.452266   2.151887   4.290233
    13  C    2.843264   2.485817   1.465124   2.493060   3.928360
    14  H    3.786370   3.334922   2.160489   3.364142   4.860416
    15  Br   4.046416   3.728900   2.812194   3.628609   5.028314
                    6          7          8          9         10
     6  H    0.000000
     7  H    4.341452   0.000000
     8  N    2.657047   5.370150   0.000000
     9  O    3.888434   6.012948   1.249048   0.000000
    10  O    2.404752   6.054572   1.243863   2.226587   0.000000
    11  C    3.918516   2.144043   3.813080   4.149391   4.794941
    12  H    5.003018   2.489080   4.679774   4.798846   5.748876
    13  C    3.464662   3.475788   2.501842   2.688591   3.623886
    14  H    4.222698   4.268978   2.700314   2.434893   3.916224
    15  Br   4.569706   4.420610   3.411663   3.338935   4.434144
                   11         12         13         14         15
    11  C    0.000000
    12  H    1.084880   0.000000
    13  C    1.470034   2.189625   0.000000
    14  H    2.187771   2.543302   1.092353   0.000000
    15  Br   2.672762   2.955683   2.033334   2.535818   0.000000
 Symmetry turned off by external request.
 Stoichiometry    C6H5BrNO2(1+)
 Framework group  C1[X(C6H5BrNO2)]
 Deg. of freedom    39
 Full point group                 C1      NOp   1
 Rotational constants (GHZ):           1.1632986           0.9594224           0.5957624
 Leave Link  202 at Thu May  2 13:58:23 2024, MaxMem=   134217728 cpu:               1.3 elap:               1.3
 (Enter /software/gaussian/g16-c01/sse4/g16/l301.exe)
 Standard basis: 6-311+G(d) (5D, 7F)
 Ernie: Thresh=  0.10000D-02 Tol=  0.10000D-05 Strict=F.
 The following finite field(s) will be applied:
 An electric field of              0.0000  0.0000 -0.0272
   261 basis functions,   443 primitive gaussians,   273 cartesian basis functions
    49 alpha electrons       49 beta electrons
       nuclear repulsion energy       772.8945969580 Hartrees.
 IExCor= 4639 DFT=T Ex+Corr=wB97XD ExCW=0 ScaHFX=  1.000000
 ScaDFX=  1.000000  1.000000  1.000000  1.000000 ScalE2=  1.000000  1.000000
 IRadAn=      5 IRanWt=     -1 IRanGd=            0 ICorTp=0 IEmpDi=121
 HFx  wShort=  0.000000 wLong=  0.200000 cFull=  0.222036 cShort=  0.000000 cLong=  0.777964
 DFx  wShort=  0.000000 wLong=  0.200000 cFull=  0.000000 cShort=  0.000000 cLong=  1.000000
 NAtoms=   15 NActive=   15 NUniq=   15 SFac= 1.00D+00 NAtFMM=   60 NAOKFM=F Big=F
 Integral buffers will be    131072 words long.
 Raffenetti 2 integral format.
 Two-electron integral symmetry is turned off.
 R6Disp:  Grimme-D2 Dispersion energy=       -0.0080346408 Hartrees.
 Nuclear repulsion after empirical dispersion term =      772.8865623173 Hartrees.
 Leave Link  301 at Thu May  2 13:58:24 2024, MaxMem=   134217728 cpu:               1.0 elap:               1.0
 (Enter /software/gaussian/g16-c01/sse4/g16/l302.exe)
 NPDir=0 NMtPBC=     1 NCelOv=     1 NCel=       1 NClECP=     1 NCelD=      1
         NCelK=      1 NCelE2=     1 NClLst=     1 CellRange=     0.0.
 One-electron integrals computed using PRISM.
 NBasis=   261 RedAO= T EigKep=  2.52D-06  NBF=   261
 NBsUse=   261 1.00D-06 EigRej= -1.00D+00 NBFU=   261
 Precomputing XC quadrature grid using
 IXCGrd= 4 IRadAn=           5 IRanWt=          -1 IRanGd=           0 AccXCQ= 0.00D+00.
 Generated NRdTot=       0 NPtTot=           0 NUsed=           0 NTot=          32
 NSgBfM=   273   273   273   273   273 MxSgAt=    15 MxSgA2=    15.
 Leave Link  302 at Thu May  2 13:58:47 2024, MaxMem=   134217728 cpu:              22.1 elap:              22.1
 (Enter /software/gaussian/g16-c01/sse4/g16/l303.exe)
 DipDrv:  MaxL=1.
 The nuclear repulsion energy is now       776.2504610704 hartrees.
 Leave Link  303 at Thu May  2 13:58:50 2024, MaxMem=   134217728 cpu:               3.3 elap:               3.3
 (Enter /software/gaussian/g16-c01/sse4/g16/l401.exe)
 ExpMin= 3.50D-02 ExpMax= 4.40D+05 ExpMxC= 1.51D+04 IAcc=3 IRadAn=         5 AccDes= 0.00D+00
 Harris functional with IExCor= 4639 and IRadAn=       5 diagonalized for initial guess.
 HarFok:  IExCor= 4639 AccDes= 0.00D+00 IRadAn=         5 IDoV= 1 UseB2=F ITyADJ=14
 ICtDFT=  3500011 ScaDFX=  1.000000  1.000000  1.000000  1.000000
 FoFCou: FMM=F IPFlag=           0 FMFlag=      100000 FMFlg1=           0
         NFxFlg=           0 DoJE=T BraDBF=F KetDBF=T FulRan=T
         wScrn=  0.000000 ICntrl=       500 IOpCl=  0 I1Cent=   200000004 NGrid=           0
         NMat0=    1 NMatS0=      1 NMatT0=    0 NMatD0=    1 NMtDS0=    0 NMtDT0=    0
 Symmetry not used in FoFCou.
 Harris En= -2970.78979215592    
 JPrj=0 DoOrth=F DoCkMO=F.
 Leave Link  401 at Thu May  2 13:59:21 2024, MaxMem=   134217728 cpu:              31.1 elap:              31.1
 (Enter /software/gaussian/g16-c01/sse4/g16/l502.exe)
 Two-electron integral symmetry not used.
 Closed shell SCF:
 Using DIIS extrapolation, IDIIS=  1040.
 NGot=   134217728 LenX=   134063053 LenY=   133988083
 Requested convergence on RMS density matrix=1.00D-08 within 128 cycles.
 Requested convergence on MAX density matrix=1.00D-06.
 Requested convergence on             energy=1.00D-06.
 No special actions if energy rises.
 Fock matrices will be formed incrementally for  20 cycles.

 Cycle   1  Pass 1  IDiag  1:
 FoFJK:  IHMeth= 1 ICntrl=       0 DoSepK=T KAlg= 0 I1Cent=           0 FoldK=F
 IRaf=         1 NMat=       1 IRICut=       1 DoRegI=T DoRafI=F ISym2E= 0 IDoP0=0 IntGTp=1.
 FoFCou: FMM=F IPFlag=           0 FMFlag=      100000 FMFlg1=           0
         NFxFlg=           0 DoJE=T BraDBF=F KetDBF=F FulRan=T
         wScrn=  0.000000 ICntrl=       500 IOpCl=  0 I1Cent=           0 NGrid=           0
         NMat0=    1 NMatS0=      1 NMatT0=    0 NMatD0=    1 NMtDS0=    0 NMtDT0=    0
 Symmetry not used in FoFCou.
 E= -3008.12425106249    
 DIIS: error= 2.93D-01 at cycle   1 NSaved=   1.
 NSaved= 1 IEnMin= 1 EnMin= -3008.12425106249     IErMin= 1 ErrMin= 2.93D-01
 ErrMax= 2.93D-01  0.00D+00 EMaxC= 1.00D-01 BMatC= 1.26D+01 BMatP= 1.26D+01
 IDIUse=3 WtCom= 0.00D+00 WtEn= 1.00D+00
 Coeff-Com:  0.100D+01
 Coeff-En:   0.100D+01
 Coeff:      0.100D+01
 Gap=     0.127 Goal=   None    Shift=    0.000
 GapD=    0.127 DampG=1.000 DampE=0.250 DampFc=0.2500 IDamp=-1.
 Damping current iteration by 2.50D-01
 RMSDP=3.32D+00 MaxDP=3.50D+02              OVMax= 8.91D-01

 Cycle   2  Pass 1  IDiag  1:
 RMSU=  2.62D-02    CP:  7.54D-01
 E= -3008.73136032083     Delta-E=       -0.607109258342 Rises=F Damp=T
 DIIS: error= 2.20D-01 at cycle   2 NSaved=   2.
 NSaved= 2 IEnMin= 2 EnMin= -3008.73136032083     IErMin= 2 ErrMin= 2.20D-01
 ErrMax= 2.20D-01  0.00D+00 EMaxC= 1.00D-01 BMatC= 5.65D+00 BMatP= 1.26D+01
 IDIUse=3 WtCom= 0.00D+00 WtEn= 1.00D+00
 Coeff-Com: -0.134D+01 0.234D+01
 Coeff-En:   0.160D+00 0.840D+00
 Coeff:      0.160D+00 0.840D+00
 Gap=     0.564 Goal=   None    Shift=    0.000
 RMSDP=2.48D+00 MaxDP=2.62D+02 DE=-6.07D-01 OVMax= 7.25D-01

 Cycle   3  Pass 1  IDiag  1:
 RMSU=  2.25D-02    CP:  1.54D-02  2.77D+00
 E= -3010.06423884740     Delta-E=       -1.332878526561 Rises=F Damp=F
 DIIS: error= 8.36D-02 at cycle   3 NSaved=   3.
 NSaved= 3 IEnMin= 3 EnMin= -3010.06423884740     IErMin= 3 ErrMin= 8.36D-02
 ErrMax= 8.36D-02  0.00D+00 EMaxC= 1.00D-01 BMatC= 1.46D+00 BMatP= 5.65D+00
 IDIUse=3 WtCom= 1.64D-01 WtEn= 8.36D-01
 Coeff-Com:  0.112D+00 0.146D+00 0.742D+00
 Coeff-En:   0.887D-01 0.000D+00 0.911D+00
 Coeff:      0.924D-01 0.240D-01 0.884D+00
 Gap=     0.214 Goal=   None    Shift=    0.000
 RMSDP=3.47D-02 MaxDP=2.36D+00 DE=-1.33D+00 OVMax= 3.04D-01

 Cycle   4  Pass 1  IDiag  1:
 RMSU=  3.16D-02    CP:  1.56D-02  2.26D+00  7.59D-01
 E= -3010.16845511070     Delta-E=       -0.104216263309 Rises=F Damp=F
 DIIS: error= 5.99D-02 at cycle   4 NSaved=   4.
 NSaved= 4 IEnMin= 4 EnMin= -3010.16845511070     IErMin= 4 ErrMin= 5.99D-02
 ErrMax= 5.99D-02  0.00D+00 EMaxC= 1.00D-01 BMatC= 9.22D-01 BMatP= 1.46D+00
 IDIUse=3 WtCom= 4.01D-01 WtEn= 5.99D-01
 Coeff-Com:  0.772D-01-0.579D-01 0.474D+00 0.507D+00
 Coeff-En:   0.000D+00 0.000D+00 0.439D+00 0.561D+00
 Coeff:      0.309D-01-0.232D-01 0.453D+00 0.539D+00
 Gap=     0.295 Goal=   None    Shift=    0.000
 RMSDP=1.94D-02 MaxDP=1.87D+00 DE=-1.04D-01 OVMax= 2.14D-01

 Cycle   5  Pass 1  IDiag  1:
 RMSU=  9.11D-03    CP:  1.33D-02  2.08D+00  8.09D-01  5.43D-01
 E= -3010.47625791562     Delta-E=       -0.307802804914 Rises=F Damp=F
 DIIS: error= 3.74D-02 at cycle   5 NSaved=   5.
 NSaved= 5 IEnMin= 5 EnMin= -3010.47625791562     IErMin= 5 ErrMin= 3.74D-02
 ErrMax= 3.74D-02  0.00D+00 EMaxC= 1.00D-01 BMatC= 1.03D-01 BMatP= 9.22D-01
 IDIUse=3 WtCom= 6.26D-01 WtEn= 3.74D-01
 Coeff-Com:  0.436D-01-0.485D-01 0.275D+00 0.345D+00 0.384D+00
 Coeff-En:   0.000D+00 0.000D+00 0.000D+00 0.141D+00 0.859D+00
 Coeff:      0.273D-01-0.304D-01 0.172D+00 0.269D+00 0.562D+00
 Gap=     0.285 Goal=   None    Shift=    0.000
 RMSDP=7.75D-03 MaxDP=6.40D-01 DE=-3.08D-01 OVMax= 1.79D-01

 Cycle   6  Pass 1  IDiag  1:
 RMSU=  4.89D-03    CP:  1.36D-02  1.88D+00  7.90D-01  6.03D-01  7.53D-01
 E= -3010.52604458934     Delta-E=       -0.049786673721 Rises=F Damp=F
 DIIS: error= 2.32D-02 at cycle   6 NSaved=   6.
 NSaved= 6 IEnMin= 6 EnMin= -3010.52604458934     IErMin= 6 ErrMin= 2.32D-02
 ErrMax= 2.32D-02  0.00D+00 EMaxC= 1.00D-01 BMatC= 3.58D-02 BMatP= 1.03D-01
 IDIUse=3 WtCom= 7.68D-01 WtEn= 2.32D-01
 Coeff-Com:  0.374D-02-0.526D-02 0.355D-01 0.657D-01 0.371D+00 0.530D+00
 Coeff-En:   0.000D+00 0.000D+00 0.000D+00 0.000D+00 0.290D+00 0.710D+00
 Coeff:      0.287D-02-0.404D-02 0.273D-01 0.505D-01 0.352D+00 0.571D+00
 Gap=     0.243 Goal=   None    Shift=    0.000
 RMSDP=3.47D-03 MaxDP=3.54D-01 DE=-4.98D-02 OVMax= 8.08D-02

 Cycle   7  Pass 1  IDiag  1:
 RMSU=  1.59D-03    CP:  1.42D-02  1.92D+00  8.21D-01  5.76D-01  9.09D-01
                    CP:  7.43D-01
 E= -3010.54900474218     Delta-E=       -0.022960152838 Rises=F Damp=F
 DIIS: error= 3.82D-03 at cycle   7 NSaved=   7.
 NSaved= 7 IEnMin= 7 EnMin= -3010.54900474218     IErMin= 7 ErrMin= 3.82D-03
 ErrMax= 3.82D-03  0.00D+00 EMaxC= 1.00D-01 BMatC= 1.38D-03 BMatP= 3.58D-02
 IDIUse=3 WtCom= 9.62D-01 WtEn= 3.82D-02
 Coeff-Com:  0.219D-03-0.506D-03-0.108D-01-0.658D-02 0.133D+00 0.311D+00
 Coeff-Com:  0.573D+00
 Coeff-En:   0.000D+00 0.000D+00 0.000D+00 0.000D+00 0.000D+00 0.000D+00
 Coeff-En:   0.100D+01
 Coeff:      0.211D-03-0.487D-03-0.103D-01-0.633D-02 0.128D+00 0.299D+00
 Coeff:      0.590D+00
 Gap=     0.242 Goal=   None    Shift=    0.000
 RMSDP=1.08D-03 MaxDP=1.28D-01 DE=-2.30D-02 OVMax= 1.21D-02

 Cycle   8  Pass 1  IDiag  1:
 RMSU=  5.66D-04    CP:  1.41D-02  1.90D+00  8.14D-01  5.74D-01  9.38D-01
                    CP:  8.70D-01  9.22D-01
 E= -3010.54995054851     Delta-E=       -0.000945806330 Rises=F Damp=F
 DIIS: error= 7.00D-04 at cycle   8 NSaved=   8.
 NSaved= 8 IEnMin= 8 EnMin= -3010.54995054851     IErMin= 8 ErrMin= 7.00D-04
 ErrMax= 7.00D-04  0.00D+00 EMaxC= 1.00D-01 BMatC= 8.78D-05 BMatP= 1.38D-03
 IDIUse=3 WtCom= 9.93D-01 WtEn= 7.00D-03
 Coeff-Com: -0.111D-02 0.119D-02-0.762D-02-0.806D-02 0.118D-01 0.572D-01
 Coeff-Com:  0.271D+00 0.676D+00
 Coeff-En:   0.000D+00 0.000D+00 0.000D+00 0.000D+00 0.000D+00 0.000D+00
 Coeff-En:   0.000D+00 0.100D+01
 Coeff:     -0.111D-02 0.118D-02-0.757D-02-0.801D-02 0.118D-01 0.568D-01
 Coeff:      0.269D+00 0.678D+00
 Gap=     0.239 Goal=   None    Shift=    0.000
 RMSDP=4.05D-04 MaxDP=4.13D-02 DE=-9.46D-04 OVMax= 2.44D-03

 Cycle   9  Pass 1  IDiag  1:
 RMSU=  9.67D-05    CP:  1.42D-02  1.90D+00  8.16D-01  5.75D-01  9.49D-01
                    CP:  8.77D-01  1.01D+00  1.09D+00
 E= -3010.55001517446     Delta-E=       -0.000064625948 Rises=F Damp=F
 DIIS: error= 1.51D-04 at cycle   9 NSaved=   9.
 NSaved= 9 IEnMin= 9 EnMin= -3010.55001517446     IErMin= 9 ErrMin= 1.51D-04
 ErrMax= 1.51D-04  0.00D+00 EMaxC= 1.00D-01 BMatC= 4.94D-06 BMatP= 8.78D-05
 IDIUse=3 WtCom= 9.98D-01 WtEn= 1.51D-03
 Coeff-Com: -0.647D-03 0.818D-03-0.152D-02-0.184D-02-0.616D-02-0.559D-02
 Coeff-Com:  0.495D-01 0.255D+00 0.710D+00
 Coeff-En:   0.000D+00 0.000D+00 0.000D+00 0.000D+00 0.000D+00 0.000D+00
 Coeff-En:   0.000D+00 0.000D+00 0.100D+01
 Coeff:     -0.646D-03 0.817D-03-0.152D-02-0.184D-02-0.615D-02-0.558D-02
 Coeff:      0.494D-01 0.255D+00 0.711D+00
 Gap=     0.239 Goal=   None    Shift=    0.000
 RMSDP=8.91D-05 MaxDP=9.45D-03 DE=-6.46D-05 OVMax= 1.07D-03

 Cycle  10  Pass 1  IDiag  1:
 RMSU=  6.50D-05    CP:  1.42D-02  1.90D+00  8.16D-01  5.75D-01  9.47D-01
                    CP:  8.77D-01  1.01D+00  1.07D+00  8.52D-01
 E= -3010.55002161606     Delta-E=       -0.000006441604 Rises=F Damp=F
 DIIS: error= 8.31D-05 at cycle  10 NSaved=  10.
 NSaved=10 IEnMin=10 EnMin= -3010.55002161606     IErMin=10 ErrMin= 8.31D-05
 ErrMax= 8.31D-05  0.00D+00 EMaxC= 1.00D-01 BMatC= 1.05D-06 BMatP= 4.94D-06
 IDIUse=1 WtCom= 1.00D+00 WtEn= 0.00D+00
 Coeff-Com: -0.510D-03 0.725D-03 0.324D-03 0.260D-03-0.458D-02-0.107D-01
 Coeff-Com: -0.254D-01-0.144D-01 0.286D+00 0.768D+00
 Coeff:     -0.510D-03 0.725D-03 0.324D-03 0.260D-03-0.458D-02-0.107D-01
 Coeff:     -0.254D-01-0.144D-01 0.286D+00 0.768D+00
 Gap=     0.240 Goal=   None    Shift=    0.000
 RMSDP=4.88D-05 MaxDP=3.91D-03 DE=-6.44D-06 OVMax= 6.37D-04

 Cycle  11  Pass 1  IDiag  1:
 RMSU=  1.85D-05    CP:  1.42D-02  1.90D+00  8.16D-01  5.74D-01  9.45D-01
                    CP:  8.77D-01  1.01D+00  1.03D+00  8.72D-01  1.34D+00
 E= -3010.55002343065     Delta-E=       -0.000001814587 Rises=F Damp=F
 DIIS: error= 2.28D-05 at cycle  11 NSaved=  11.
 NSaved=11 IEnMin=11 EnMin= -3010.55002343065     IErMin=11 ErrMin= 2.28D-05
 ErrMax= 2.28D-05  0.00D+00 EMaxC= 1.00D-01 BMatC= 1.75D-07 BMatP= 1.05D-06
 IDIUse=1 WtCom= 1.00D+00 WtEn= 0.00D+00
 Coeff-Com: -0.314D-03 0.438D-03 0.187D-03 0.366D-03-0.396D-03-0.197D-02
 Coeff-Com: -0.164D-01-0.408D-01-0.167D-01 0.225D+00 0.850D+00
 Coeff:     -0.314D-03 0.438D-03 0.187D-03 0.366D-03-0.396D-03-0.197D-02
 Coeff:     -0.164D-01-0.408D-01-0.167D-01 0.225D+00 0.850D+00
 Gap=     0.240 Goal=   None    Shift=    0.000
 RMSDP=3.13D-05 MaxDP=2.95D-03 DE=-1.81D-06 OVMax= 4.39D-04

 Cycle  12  Pass 1  IDiag  1:
 RMSU=  8.47D-06    CP:  1.42D-02  1.90D+00  8.15D-01  5.74D-01  9.44D-01
                    CP:  8.77D-01  1.00D+00  1.02D+00  8.94D-01  1.52D+00
                    CP:  1.30D+00
 E= -3010.55002384631     Delta-E=       -0.000000415668 Rises=F Damp=F
 DIIS: error= 9.73D-06 at cycle  12 NSaved=  12.
 NSaved=12 IEnMin=12 EnMin= -3010.55002384631     IErMin=12 ErrMin= 9.73D-06
 ErrMax= 9.73D-06  0.00D+00 EMaxC= 1.00D-01 BMatC= 4.57D-08 BMatP= 1.75D-07
 IDIUse=1 WtCom= 1.00D+00 WtEn= 0.00D+00
 Coeff-Com: -0.139D-03 0.182D-03-0.598D-04 0.125D-03 0.756D-03 0.131D-02
 Coeff-Com: -0.949D-03-0.901D-02-0.642D-01-0.886D-01 0.289D+00 0.871D+00
 Coeff:     -0.139D-03 0.182D-03-0.598D-04 0.125D-03 0.756D-03 0.131D-02
 Coeff:     -0.949D-03-0.901D-02-0.642D-01-0.886D-01 0.289D+00 0.871D+00
 Gap=     0.240 Goal=   None    Shift=    0.000
 RMSDP=2.07D-05 MaxDP=2.26D-03 DE=-4.16D-07 OVMax= 3.08D-04

 Cycle  13  Pass 1  IDiag  1:
 RMSU=  3.08D-06    CP:  1.42D-02  1.90D+00  8.15D-01  5.74D-01  9.43D-01
                    CP:  8.76D-01  9.98D-01  1.01D+00  8.73D-01  1.63D+00
                    CP:  1.60D+00  1.38D+00
 E= -3010.55002398077     Delta-E=       -0.000000134452 Rises=F Damp=F
 DIIS: error= 7.77D-06 at cycle  13 NSaved=  13.
 NSaved=13 IEnMin=13 EnMin= -3010.55002398077     IErMin=13 ErrMin= 7.77D-06
 ErrMax= 7.77D-06  0.00D+00 EMaxC= 1.00D-01 BMatC= 7.86D-09 BMatP= 4.57D-08
 IDIUse=1 WtCom= 1.00D+00 WtEn= 0.00D+00
 Coeff-Com: -0.213D-04 0.267D-04-0.367D-04-0.214D-04 0.192D-03 0.483D-03
 Coeff-Com:  0.363D-02 0.871D-02-0.359D-03-0.501D-01-0.160D+00 0.119D+00
 Coeff-Com:  0.108D+01
 Coeff:     -0.213D-04 0.267D-04-0.367D-04-0.214D-04 0.192D-03 0.483D-03
 Coeff:      0.363D-02 0.871D-02-0.359D-03-0.501D-01-0.160D+00 0.119D+00
 Coeff:      0.108D+01
 Gap=     0.240 Goal=   None    Shift=    0.000
 RMSDP=1.04D-05 MaxDP=1.05D-03 DE=-1.34D-07 OVMax= 1.98D-04

 Cycle  14  Pass 1  IDiag  1:
 RMSU=  1.70D-06    CP:  1.42D-02  1.90D+00  8.15D-01  5.74D-01  9.43D-01
                    CP:  8.76D-01  9.97D-01  1.00D+00  8.66D-01  1.66D+00
                    CP:  1.73D+00  1.80D+00  1.65D+00
 E= -3010.55002401781     Delta-E=       -0.000000037040 Rises=F Damp=F
 DIIS: error= 2.73D-06 at cycle  14 NSaved=  14.
 NSaved=14 IEnMin=14 EnMin= -3010.55002401781     IErMin=14 ErrMin= 2.73D-06
 ErrMax= 2.73D-06  0.00D+00 EMaxC= 1.00D-01 BMatC= 1.25D-09 BMatP= 7.86D-09
 IDIUse=1 WtCom= 1.00D+00 WtEn= 0.00D+00
 Coeff-Com:  0.139D-04-0.176D-04 0.215D-05-0.314D-04-0.104D-03-0.137D-03
 Coeff-Com:  0.146D-02 0.476D-02 0.135D-01 0.276D-02-0.117D+00-0.138D+00
 Coeff-Com:  0.368D+00 0.865D+00
 Coeff:      0.139D-04-0.176D-04 0.215D-05-0.314D-04-0.104D-03-0.137D-03
 Coeff:      0.146D-02 0.476D-02 0.135D-01 0.276D-02-0.117D+00-0.138D+00
 Coeff:      0.368D+00 0.865D+00
 Gap=     0.240 Goal=   None    Shift=    0.000
 RMSDP=3.04D-06 MaxDP=2.75D-04 DE=-3.70D-08 OVMax= 9.50D-05

 Cycle  15  Pass 1  IDiag  1:
 RMSU=  8.07D-07    CP:  1.42D-02  1.90D+00  8.15D-01  5.74D-01  9.43D-01
                    CP:  8.76D-01  9.97D-01  1.00D+00  8.64D-01  1.67D+00
                    CP:  1.79D+00  1.95D+00  1.97D+00  1.49D+00
 E= -3010.55002402514     Delta-E=       -0.000000007334 Rises=F Damp=F
 DIIS: error= 1.77D-06 at cycle  15 NSaved=  15.
 NSaved=15 IEnMin=15 EnMin= -3010.55002402514     IErMin=15 ErrMin= 1.77D-06
 ErrMax= 1.77D-06  0.00D+00 EMaxC= 1.00D-01 BMatC= 2.27D-10 BMatP= 1.25D-09
 IDIUse=1 WtCom= 1.00D+00 WtEn= 0.00D+00
 Coeff-Com:  0.134D-04-0.181D-04 0.541D-05-0.178D-05-0.453D-04-0.708D-04
 Coeff-Com: -0.518D-03-0.138D-02 0.184D-03 0.846D-02 0.222D-01-0.296D-01
 Coeff-Com: -0.158D+00 0.588D-01 0.110D+01
 Coeff:      0.134D-04-0.181D-04 0.541D-05-0.178D-05-0.453D-04-0.708D-04
 Coeff:     -0.518D-03-0.138D-02 0.184D-03 0.846D-02 0.222D-01-0.296D-01
 Coeff:     -0.158D+00 0.588D-01 0.110D+01
 Gap=     0.240 Goal=   None    Shift=    0.000
 RMSDP=2.30D-06 MaxDP=1.94D-04 DE=-7.33D-09 OVMax= 4.74D-05

 Cycle  16  Pass 1  IDiag  1:
 RMSU=  3.21D-07    CP:  1.42D-02  1.90D+00  8.15D-01  5.74D-01  9.43D-01
                    CP:  8.76D-01  9.97D-01  1.00D+00  8.65D-01  1.67D+00
                    CP:  1.81D+00  2.01D+00  2.12D+00  1.94D+00  1.43D+00
 E= -3010.55002402671     Delta-E=       -0.000000001572 Rises=F Damp=F
 DIIS: error= 7.29D-07 at cycle  16 NSaved=  16.
 NSaved=16 IEnMin=16 EnMin= -3010.55002402671     IErMin=16 ErrMin= 7.29D-07
 ErrMax= 7.29D-07  0.00D+00 EMaxC= 1.00D-01 BMatC= 6.78D-11 BMatP= 2.27D-10
 IDIUse=1 WtCom= 1.00D+00 WtEn= 0.00D+00
 Coeff-Com:  0.633D-05-0.882D-05-0.944D-07 0.202D-05 0.169D-04 0.379D-04
 Coeff-Com: -0.294D-03-0.109D-02-0.302D-02-0.806D-03 0.260D-01 0.254D-01
 Coeff-Com: -0.795D-01-0.180D+00 0.717D-01 0.114D+01
 Coeff:      0.633D-05-0.882D-05-0.944D-07 0.202D-05 0.169D-04 0.379D-04
 Coeff:     -0.294D-03-0.109D-02-0.302D-02-0.806D-03 0.260D-01 0.254D-01
 Coeff:     -0.795D-01-0.180D+00 0.717D-01 0.114D+01
 Gap=     0.240 Goal=   None    Shift=    0.000
 RMSDP=1.21D-06 MaxDP=9.03D-05 DE=-1.57D-09 OVMax= 2.41D-05

 Cycle  17  Pass 1  IDiag  1:
 RMSU=  1.56D-07    CP:  1.42D-02  1.90D+00  8.15D-01  5.74D-01  9.43D-01
                    CP:  8.76D-01  9.97D-01  1.00D+00  8.66D-01  1.67D+00
                    CP:  1.81D+00  2.03D+00  2.19D+00  2.15D+00  1.77D+00
                    CP:  1.40D+00
 E= -3010.55002402701     Delta-E=       -0.000000000295 Rises=F Damp=F
 DIIS: error= 1.71D-07 at cycle  17 NSaved=  17.
 NSaved=17 IEnMin=17 EnMin= -3010.55002402701     IErMin=17 ErrMin= 1.71D-07
 ErrMax= 1.71D-07  0.00D+00 EMaxC= 1.00D-01 BMatC= 1.41D-11 BMatP= 6.78D-11
 IDIUse=1 WtCom= 1.00D+00 WtEn= 0.00D+00
 Coeff-Com:  0.194D-05-0.271D-05-0.790D-06-0.159D-06 0.163D-04 0.306D-04
 Coeff-Com:  0.221D-04-0.735D-04-0.106D-02-0.230D-02 0.406D-02 0.145D-01
 Coeff-Com:  0.908D-02-0.705D-01-0.188D+00 0.367D+00 0.867D+00
 Coeff:      0.194D-05-0.271D-05-0.790D-06-0.159D-06 0.163D-04 0.306D-04
 Coeff:      0.221D-04-0.735D-04-0.106D-02-0.230D-02 0.406D-02 0.145D-01
 Coeff:      0.908D-02-0.705D-01-0.188D+00 0.367D+00 0.867D+00
 Gap=     0.240 Goal=   None    Shift=    0.000
 RMSDP=2.68D-07 MaxDP=2.50D-05 DE=-2.95D-10 OVMax= 7.17D-06

 Cycle  18  Pass 1  IDiag  1:
 RMSU=  4.59D-08    CP:  1.42D-02  1.90D+00  8.15D-01  5.74D-01  9.43D-01
                    CP:  8.76D-01  9.97D-01  1.00D+00  8.66D-01  1.67D+00
                    CP:  1.81D+00  2.03D+00  2.21D+00  2.19D+00  1.88D+00
                    CP:  1.53D+00  1.33D+00
 E= -3010.55002402704     Delta-E=       -0.000000000034 Rises=F Damp=F
 DIIS: error= 7.01D-08 at cycle  18 NSaved=  18.
 NSaved=18 IEnMin=18 EnMin= -3010.55002402704     IErMin=18 ErrMin= 7.01D-08
 ErrMax= 7.01D-08  0.00D+00 EMaxC= 1.00D-01 BMatC= 1.63D-12 BMatP= 1.41D-11
 IDIUse=1 WtCom= 1.00D+00 WtEn= 0.00D+00
 Coeff-Com:  0.161D-06-0.196D-06 0.291D-06-0.258D-06 0.385D-05 0.445D-05
 Coeff-Com:  0.538D-04 0.145D-03 0.167D-03-0.586D-03-0.317D-02-0.679D-04
 Coeff-Com:  0.159D-01 0.121D-01-0.581D-01-0.985D-01 0.175D+00 0.957D+00
 Coeff:      0.161D-06-0.196D-06 0.291D-06-0.258D-06 0.385D-05 0.445D-05
 Coeff:      0.538D-04 0.145D-03 0.167D-03-0.586D-03-0.317D-02-0.679D-04
 Coeff:      0.159D-01 0.121D-01-0.581D-01-0.985D-01 0.175D+00 0.957D+00
 Gap=     0.240 Goal=   None    Shift=    0.000
 RMSDP=7.72D-08 MaxDP=5.93D-06 DE=-3.37D-11 OVMax= 2.43D-06

 Cycle  19  Pass 1  IDiag  1:
 RMSU=  2.15D-08    CP:  1.42D-02  1.90D+00  8.15D-01  5.74D-01  9.43D-01
                    CP:  8.76D-01  9.97D-01  1.00D+00  8.66D-01  1.67D+00
                    CP:  1.82D+00  2.03D+00  2.21D+00  2.20D+00  1.92D+00
                    CP:  1.57D+00  1.50D+00  1.34D+00
 E= -3010.55002402698     Delta-E=        0.000000000057 Rises=F Damp=F
 DIIS: error= 2.51D-08 at cycle  19 NSaved=  19.
 NSaved=19 IEnMin=18 EnMin= -3010.55002402704     IErMin=19 ErrMin= 2.51D-08
 ErrMax= 2.51D-08  0.00D+00 EMaxC= 1.00D-01 BMatC= 2.52D-13 BMatP= 1.63D-12
 IDIUse=1 WtCom= 1.00D+00 WtEn= 0.00D+00
 Coeff-Com: -0.451D-07 0.817D-07 0.210D-06-0.780D-07-0.475D-06-0.206D-05
 Coeff-Com:  0.119D-04 0.490D-04 0.173D-03 0.547D-04-0.147D-02-0.183D-02
 Coeff-Com:  0.220D-02 0.125D-01 0.140D-01-0.691D-01-0.832D-01 0.306D+00
 Coeff-Com:  0.820D+00
 Coeff:     -0.451D-07 0.817D-07 0.210D-06-0.780D-07-0.475D-06-0.206D-05
 Coeff:      0.119D-04 0.490D-04 0.173D-03 0.547D-04-0.147D-02-0.183D-02
 Coeff:      0.220D-02 0.125D-01 0.140D-01-0.691D-01-0.832D-01 0.306D+00
 Coeff:      0.820D+00
 Gap=     0.240 Goal=   None    Shift=    0.000
 RMSDP=5.06D-08 MaxDP=4.18D-06 DE= 5.73D-11 OVMax= 6.46D-07

 Cycle  20  Pass 1  IDiag  1:
 RMSU=  8.19D-09    CP:  1.42D-02  1.90D+00  8.15D-01  5.74D-01  9.43D-01
                    CP:  8.76D-01  9.97D-01  1.00D+00  8.66D-01  1.67D+00
                    CP:  1.82D+00  2.03D+00  2.21D+00  2.20D+00  1.91D+00
                    CP:  1.57D+00  1.53D+00  1.50D+00  1.27D+00
 E= -3010.55002402704     Delta-E=       -0.000000000060 Rises=F Damp=F
 DIIS: error= 1.25D-08 at cycle  20 NSaved=  20.
 NSaved=20 IEnMin=20 EnMin= -3010.55002402704     IErMin=20 ErrMin= 1.25D-08
 ErrMax= 1.25D-08  0.00D+00 EMaxC= 1.00D-01 BMatC= 3.76D-14 BMatP= 2.52D-13
 IDIUse=1 WtCom= 1.00D+00 WtEn= 0.00D+00
 Coeff-Com: -0.101D-06 0.135D-06-0.165D-07 0.773D-07-0.564D-06-0.115D-05
 Coeff-Com: -0.885D-05-0.200D-04 0.331D-05 0.121D-03 0.386D-03-0.166D-03
 Coeff-Com: -0.313D-02-0.271D-03 0.137D-01 0.737D-02-0.555D-01-0.936D-01
 Coeff-Com:  0.122D+00 0.101D+01
 Coeff:     -0.101D-06 0.135D-06-0.165D-07 0.773D-07-0.564D-06-0.115D-05
 Coeff:     -0.885D-05-0.200D-04 0.331D-05 0.121D-03 0.386D-03-0.166D-03
 Coeff:     -0.313D-02-0.271D-03 0.137D-01 0.737D-02-0.555D-01-0.936D-01
 Coeff:      0.122D+00 0.101D+01
 Gap=     0.240 Goal=   None    Shift=    0.000
 RMSDP=2.22D-08 MaxDP=2.14D-06 DE=-6.00D-11 OVMax= 3.26D-07

 Cycle  21  Pass 1  IDiag  1:
 Restarting incremental Fock formation.
 E= -3010.55002402705     Delta-E=       -0.000000000010 Rises=F Damp=F
 DIIS: error= 7.35D-09 at cycle  21 NSaved=  20.
 NSaved=20 IEnMin=20 EnMin= -3010.55002402705     IErMin=20 ErrMin= 7.35D-09
 ErrMax= 7.35D-09  0.00D+00 EMaxC= 1.00D-01 BMatC= 1.38D-14 BMatP= 3.76D-14
 IDIUse=1 WtCom= 1.00D+00 WtEn= 0.00D+00
 Coeff-Com: -0.346D-08-0.253D-07 0.400D-07 0.927D-08 0.877D-07-0.338D-05
 Coeff-Com: -0.139D-04-0.326D-04 0.464D-05 0.319D-03 0.299D-03-0.118D-02
 Coeff-Com: -0.240D-02 0.179D-03 0.168D-01 0.645D-02-0.593D-01-0.164D+00
 Coeff-Com:  0.188D+00 0.102D+01
 Coeff:     -0.346D-08-0.253D-07 0.400D-07 0.927D-08 0.877D-07-0.338D-05
 Coeff:     -0.139D-04-0.326D-04 0.464D-05 0.319D-03 0.299D-03-0.118D-02
 Coeff:     -0.240D-02 0.179D-03 0.168D-01 0.645D-02-0.593D-01-0.164D+00
 Coeff:      0.188D+00 0.102D+01
 Gap=     0.240 Goal=   None    Shift=    0.000
 RMSDP=1.27D-08 MaxDP=1.19D-06 DE=-1.00D-11 OVMax= 1.65D-07

 Cycle  22  Pass 1  IDiag  1:
 RMSU=  1.08D-08    CP:  1.00D+00
 E= -3010.55002402707     Delta-E=       -0.000000000013 Rises=F Damp=F
 DIIS: error= 4.40D-09 at cycle  22 NSaved=  20.
 NSaved=20 IEnMin=20 EnMin= -3010.55002402707     IErMin=20 ErrMin= 4.40D-09
 ErrMax= 4.40D-09  0.00D+00 EMaxC= 1.00D-01 BMatC= 1.92D-15 BMatP= 1.38D-14
 IDIUse=1 WtCom= 1.00D+00 WtEn= 0.00D+00
 Large coefficients: NSaved= 20 BigCof=    0.00 CofMax=   10.00 Det=-4.47D-15
 Inversion failed.  Reducing to 19 matrices.
 Large coefficients: NSaved= 19 BigCof=    0.00 CofMax=   10.00 Det=-4.86D-15
 Inversion failed.  Reducing to 18 matrices.
 Large coefficients: NSaved= 18 BigCof=    0.00 CofMax=   10.00 Det=-5.26D-15
 Inversion failed.  Reducing to 17 matrices.
 Large coefficients: NSaved= 17 BigCof=    0.00 CofMax=   10.00 Det=-5.41D-15
 Inversion failed.  Reducing to 16 matrices.
 Large coefficients: NSaved= 16 BigCof=    0.00 CofMax=   10.00 Det=-5.41D-15
 Inversion failed.  Reducing to 15 matrices.
 Coeff-Com: -0.227D-05-0.873D-05-0.301D-05 0.512D-04 0.127D-03 0.124D-03
 Coeff-Com: -0.537D-03-0.215D-02 0.233D-02 0.842D-02-0.513D-03-0.612D-01
 Coeff-Com: -0.136D+00 0.258D+00 0.931D+00
 Coeff:     -0.227D-05-0.873D-05-0.301D-05 0.512D-04 0.127D-03 0.124D-03
 Coeff:     -0.537D-03-0.215D-02 0.233D-02 0.842D-02-0.513D-03-0.612D-01
 Coeff:     -0.136D+00 0.258D+00 0.931D+00
 Gap=     0.240 Goal=   None    Shift=    0.000
 RMSDP=3.24D-09 MaxDP=2.31D-07 DE=-1.27D-11 OVMax= 1.04D-07

 SCF Done:  E(RwB97XD) =  -3010.55002403     A.U. after   22 cycles
            NFock= 22  Conv=0.32D-08     -V/T= 2.0016
 KE= 3.005855563057D+03 PE=-8.703501449597D+03 EE= 1.910845401442D+03
 Leave Link  502 at Thu May  2 14:21:38 2024, MaxMem=   134217728 cpu:            1336.2 elap:            1336.5
 (Enter /software/gaussian/g16-c01/sse4/g16/l601.exe)
 Copying SCF densities to generalized density rwf, IOpCl= 0 IROHF=0.

 **********************************************************************

            Population analysis using the SCF Density.

 **********************************************************************

 Alpha  occ. eigenvalues -- -483.36094 -62.91169 -56.70783 -56.70324 -56.70320
 Alpha  occ. eigenvalues --  -19.47087 -19.47003 -14.86528 -10.60908 -10.60844
 Alpha  occ. eigenvalues --  -10.59056 -10.58984 -10.55055 -10.54336  -9.07011
 Alpha  occ. eigenvalues --   -6.89474  -6.87935  -6.87929  -2.99429  -2.99014
 Alpha  occ. eigenvalues --   -2.99009  -2.97776  -2.97775  -1.50725  -1.33666
 Alpha  occ. eigenvalues --   -1.24480  -1.15671  -1.14122  -1.08205  -1.02137
 Alpha  occ. eigenvalues --   -0.97202  -0.92222  -0.86155  -0.82278  -0.81592
 Alpha  occ. eigenvalues --   -0.81169  -0.79447  -0.77430  -0.77025  -0.74685
 Alpha  occ. eigenvalues --   -0.70303  -0.69292  -0.66002  -0.63620  -0.61860
 Alpha  occ. eigenvalues --   -0.58680  -0.58097  -0.56828  -0.56556
 Alpha virt. eigenvalues --   -0.32583  -0.23453  -0.21560  -0.19015  -0.16613
 Alpha virt. eigenvalues --   -0.15209  -0.14193  -0.11411  -0.09851  -0.09216
 Alpha virt. eigenvalues --   -0.06469  -0.06181  -0.04127  -0.03489  -0.02694
 Alpha virt. eigenvalues --   -0.02188  -0.00537   0.00675   0.01506   0.01854
 Alpha virt. eigenvalues --    0.03454   0.04193   0.04408   0.05095   0.06403
 Alpha virt. eigenvalues --    0.07295   0.07619   0.08067   0.08558   0.09029
 Alpha virt. eigenvalues --    0.09790   0.10806   0.11126   0.11748   0.12730
 Alpha virt. eigenvalues --    0.13219   0.13447   0.14444   0.15305   0.15662
 Alpha virt. eigenvalues --    0.16409   0.17795   0.18058   0.18415   0.18909
 Alpha virt. eigenvalues --    0.19974   0.20829   0.21846   0.22461   0.22959
 Alpha virt. eigenvalues --    0.23935   0.24698   0.26458   0.28149   0.28522
 Alpha virt. eigenvalues --    0.30167   0.32706   0.33082   0.33804   0.34835
 Alpha virt. eigenvalues --    0.36221   0.37570   0.37871   0.38772   0.40226
 Alpha virt. eigenvalues --    0.42951   0.43636   0.44478   0.45834   0.46911
 Alpha virt. eigenvalues --    0.47307   0.48316   0.49003   0.50002   0.52484
 Alpha virt. eigenvalues --    0.53294   0.54908   0.56717   0.57239   0.58743
 Alpha virt. eigenvalues --    0.59684   0.60949   0.62258   0.64367   0.66793
 Alpha virt. eigenvalues --    0.70072   0.70348   0.72023   0.72535   0.73238
 Alpha virt. eigenvalues --    0.73698   0.76542   0.78889   0.79602   0.83722
 Alpha virt. eigenvalues --    0.85020   0.86709   0.90387   0.92397   0.97736
 Alpha virt. eigenvalues --    0.99256   1.00975   1.02532   1.04162   1.05815
 Alpha virt. eigenvalues --    1.07541   1.11895   1.12607   1.13198   1.16885
 Alpha virt. eigenvalues --    1.20314   1.22030   1.26827   1.31927   1.34932
 Alpha virt. eigenvalues --    1.35483   1.37568   1.41082   1.53221   1.55401
 Alpha virt. eigenvalues --    1.56162   1.58645   1.59887   1.62665   1.63999
 Alpha virt. eigenvalues --    1.67002   1.69812   1.72969   1.73955   1.77908
 Alpha virt. eigenvalues --    1.82582   1.83886   1.85797   1.89591   1.91909
 Alpha virt. eigenvalues --    1.96478   2.00134   2.01515   2.05309   2.06521
 Alpha virt. eigenvalues --    2.10745   2.12910   2.21023   2.22639   2.26173
 Alpha virt. eigenvalues --    2.32206   2.38809   2.40505   2.43229   2.51815
 Alpha virt. eigenvalues --    2.56815   2.61827   2.64504   2.67347   2.70941
 Alpha virt. eigenvalues --    2.72661   2.75498   2.76279   2.79424   2.80577
 Alpha virt. eigenvalues --    2.91429   2.96786   3.00206   3.04173   3.07433
 Alpha virt. eigenvalues --    3.13428   3.15006   3.16265   3.21590   3.25684
 Alpha virt. eigenvalues --    3.26634   3.36846   3.45150   3.48921   3.53756
 Alpha virt. eigenvalues --    3.56324   3.68087   3.73427   3.82079   3.85719
 Alpha virt. eigenvalues --    4.04743   4.05540   4.14651   4.18610   4.38638
 Alpha virt. eigenvalues --    4.44292   4.52976   4.58808   4.92836   4.95729
 Alpha virt. eigenvalues --    5.04511   5.09041   5.61209   6.14435   6.62908
 Alpha virt. eigenvalues --    7.43478   7.45887   7.56232  23.20432  23.59712
 Alpha virt. eigenvalues --   23.69379  23.76225  23.94132  24.00554  35.30637
 Alpha virt. eigenvalues --   47.89148  49.84423  49.93088 289.76830 289.79176
 Alpha virt. eigenvalues --  289.918541020.90403
          Condensed to atoms (all electrons):
               1          2          3          4          5          6
     1  C    8.673025  -3.316889   1.509723  -0.366671   0.312980   0.038284
     2  C   -3.316889  20.309447  -7.111894   0.939496  -0.044719   0.175611
     3  C    1.509723  -7.111894  22.101837  -1.967067   0.058180   0.136315
     4  C   -0.366671   0.939496  -1.967067   6.786508  -0.006046  -0.017884
     5  H    0.312980  -0.044719   0.058180  -0.006046   0.322468  -0.001409
     6  H    0.038284   0.175611   0.136315  -0.017884  -0.001409   0.304237
     7  H    0.009914  -0.017180   0.025864   0.329045  -0.002534  -0.000006
     8  N   -0.171224   0.792176  -1.998061   0.037009  -0.000931  -0.032565
     9  O   -0.052166   0.131399  -0.484142  -0.001155  -0.000048  -0.002215
    10  O    0.271429  -0.655793   0.168506  -0.042185   0.000124   0.022198
    11  C    1.225148  -2.049173   2.352428  -0.542596  -0.022728   0.010855
    12  H   -0.012241   0.008935   0.014864  -0.002741   0.000020  -0.000020
    13  C   -1.970795  -3.211764  -8.394736   1.081161   0.028977   0.006142
    14  H   -0.002173   0.019758   0.050036   0.005168  -0.000023   0.000013
    15  Br  -0.107117  -0.032757  -0.358419   0.143799   0.000077  -0.000610
               7          8          9         10         11         12
     1  C    0.009914  -0.171224  -0.052166   0.271429   1.225148  -0.012241
     2  C   -0.017180   0.792176   0.131399  -0.655793  -2.049173   0.008935
     3  C    0.025864  -1.998061  -0.484142   0.168506   2.352428   0.014864
     4  C    0.329045   0.037009  -0.001155  -0.042185  -0.542596  -0.002741
     5  H   -0.002534  -0.000931  -0.000048   0.000124  -0.022728   0.000020
     6  H   -0.000006  -0.032565  -0.002215   0.022198   0.010855  -0.000020
     7  H    0.326237   0.000031   0.000018  -0.000023   0.022189  -0.001870
     8  N    0.000031   7.796392   0.151808   0.003284  -0.261119   0.000098
     9  O    0.000018   0.151808   7.802743   0.005577   0.191636   0.000074
    10  O   -0.000023   0.003284   0.005577   7.928815   0.054327   0.000008
    11  C    0.022189  -0.261119   0.191636   0.054327   9.196820   0.324033
    12  H   -0.001870   0.000098   0.000074   0.000008   0.324033   0.304859
    13  C   -0.036236   0.792187   0.188639   0.172377  -4.206438   0.000153
    14  H    0.000025  -0.014045  -0.001277  -0.001898  -0.024713  -0.002424
    15  Br  -0.000210   0.096521  -0.025240  -0.005691  -0.151157  -0.003578
              13         14         15
     1  C   -1.970795  -0.002173  -0.107117
     2  C   -3.211764   0.019758  -0.032757
     3  C   -8.394736   0.050036  -0.358419
     4  C    1.081161   0.005168   0.143799
     5  H    0.028977  -0.000023   0.000077
     6  H    0.006142   0.000013  -0.000610
     7  H   -0.036236   0.000025  -0.000210
     8  N    0.792187  -0.014045   0.096521
     9  O    0.188639  -0.001277  -0.025240
    10  O    0.172377  -0.001898  -0.005691
    11  C   -4.206438  -0.024713  -0.151157
    12  H    0.000153  -0.002424  -0.003578
    13  C   21.117876   0.261536   0.415003
    14  H    0.261536   0.226777  -0.015236
    15  Br   0.415003  -0.015236  35.135312
 Mulliken charges:
               1
     1  C   -0.041228
     2  C    0.063347
     3  C   -0.103433
     4  C   -0.375841
     5  H    0.355612
     6  H    0.361055
     7  H    0.344736
     8  N   -0.191560
     9  O    0.094349
    10  O    0.078945
    11  C   -0.119511
    12  H    0.369830
    13  C   -0.244083
    14  H    0.498477
    15  Br  -0.090696
 Sum of Mulliken charges =   1.00000
 Mulliken charges with hydrogens summed into heavy atoms:
               1
     1  C    0.314384
     2  C    0.424402
     3  C   -0.103433
     4  C   -0.031105
     8  N   -0.191560
     9  O    0.094349
    10  O    0.078945
    11  C    0.250319
    13  C    0.254394
    15  Br  -0.090696
 Electronic spatial extent (au):  <R**2>=           3952.5988
 Charge=              1.0000 electrons
 Dipole moment (field-independent basis, Debye):
    X=              2.4335    Y=              0.1482    Z=              4.1595  Tot=              4.8214
 Quadrupole moment (field-independent basis, Debye-Ang):
   XX=            -67.7554   YY=            -52.9128   ZZ=            -69.1962
   XY=             -0.8923   XZ=              7.5424   YZ=             -2.3532
 Traceless Quadrupole moment (field-independent basis, Debye-Ang):
   XX=             -4.4673   YY=             10.3753   ZZ=             -5.9081
   XY=             -0.8923   XZ=              7.5424   YZ=             -2.3532
 Octapole moment (field-independent basis, Debye-Ang**2):
  XXX=           -509.3072  YYY=            100.5762  ZZZ=            110.5571  XYY=           -141.4322
  XXY=             29.0035  XXZ=             56.9962  XZZ=           -147.8409  YZZ=             31.0551
  YYZ=             41.8810  XYZ=             -2.6770
 Hexadecapole moment (field-independent basis, Debye-Ang**3):
 XXXX=          -3415.9926 YYYY=           -723.2060 ZZZZ=           -469.7561 XXXY=            188.8808
 XXXZ=            293.5333 YYYX=            203.5784 YYYZ=           -203.7638 ZZZX=            225.6906
 ZZZY=           -188.5239 XXYY=           -635.5935 XXZZ=           -565.2124 YYZZ=           -205.3170
 XXYZ=            -68.5797 YYXZ=             84.1279 ZZXY=             59.1363
 N-N= 7.762504610704D+02 E-N=-8.703501449882D+03  KE= 3.005855563057D+03
 No NMR shielding tensors so no spin-rotation constants.
 Leave Link  601 at Thu May  2 14:21:45 2024, MaxMem=   134217728 cpu:               7.5 elap:               7.5
 (Enter /software/gaussian/g16-c01/sse4/g16/l9999.exe)
 Unable to Open any file for archive entry.
 1\1\GINC-BHX0014\SP\RwB97XD\6-311+G(d)\C6H5Br1N1O2(1+)\BWEIGHT\02-May-
 2024\0\\#P wB97XD/6-311+G* NoSymm #P Field=Z-272\\TitleMe\\1,1\C,0,0.5
 193,1.233,-0.0319\C,0,1.9445,1.2692,-0.0367\C,0,2.6204,0.0928,-0.025\C
 ,0,-0.196,0.0301,0.001\H,0,-0.0207,2.1742,-0.0434\H,0,2.4828,2.2089,-0
 .0361\H,0,-1.2777,0.0399,0.0117\N,0,4.0921,0.0959,0.0366\O,0,4.6393,-1
 .0217,0.1446\O,0,4.6649,1.1984,-0.0233\C,0,0.4943,-1.1671,0.021\H,0,-0
 .0325,-2.1149,0.0545\C,0,1.9629,-1.2165,-0.0211\H,0,2.4436,-1.9631,0.6
 151\Br,0,2.173,-1.9491,-1.9062\\Version=ES64L-G16RevC.01\HF=-3010.5500
 24\RMSD=3.239e-09\Dipole=-3.3718095,1.2864229,2.8857076\Quadrupole=-3.
 3213104,7.7138125,-4.3925021,-0.6634375,5.6075534,-1.7495275\PG=C01 [X
 (C6H5Br1N1O2)]\\@
 The archive entry for this job was punched.


 LENDING MONEY TO FRIENDS CAUSES THEM TO LOSE THEIR MEMORIES.

    --  PETER'S THEORY OF RECIPROCAL INHIBITION OF FISCAL RECALL
 Job cpu time:       0 days  0 hours 23 minutes 27.7 seconds.
 Elapsed time:       0 days  0 hours 23 minutes 28.2 seconds.
 File lengths (MBytes):  RWF=     40 Int=      0 D2E=      0 Chk=     32 Scr=      1
 Normal termination of Gaussian 16 at Thu May  2 14:21:46 2024.
