 Entering Gaussian System, Link 0=g16
 Initial command:
 /software/gaussian/g16-a03/l1.exe "/local_scratch/6484892/Gau-29918.inp" -scrdir="/local_scratch/6484892/"
 Entering Link 1 = /software/gaussian/g16-a03/l1.exe PID=     30023.
  
 Copyright (c) 1988,1990,1992,1993,1995,1998,2003,2009,2016,
            Gaussian, Inc.  All Rights Reserved.
  
 This is part of the Gaussian(R) 16 program.  It is based on
 the Gaussian(R) 09 system (copyright 2009, Gaussian, Inc.),
 the Gaussian(R) 03 system (copyright 2003, Gaussian, Inc.),
 the Gaussian(R) 98 system (copyright 1998, Gaussian, Inc.),
 the Gaussian(R) 94 system (copyright 1995, Gaussian, Inc.),
 the Gaussian 92(TM) system (copyright 1992, Gaussian, Inc.),
 the Gaussian 90(TM) system (copyright 1990, Gaussian, Inc.),
 the Gaussian 88(TM) system (copyright 1988, Gaussian, Inc.),
 the Gaussian 86(TM) system (copyright 1986, Carnegie Mellon
 University), and the Gaussian 82(TM) system (copyright 1983,
 Carnegie Mellon University). Gaussian is a federally registered
 trademark of Gaussian, Inc.
  
 This software contains proprietary and confidential information,
 including trade secrets, belonging to Gaussian, Inc.
  
 This software is provided under written license and may be
 used, copied, transmitted, or stored only in accord with that
 written license.
  
 The following legend is applicable only to US Government
 contracts under FAR:
  
                    RESTRICTED RIGHTS LEGEND
  
 Use, reproduction and disclosure by the US Government is
 subject to restrictions as set forth in subparagraphs (a)
 and (c) of the Commercial Computer Software - Restricted
 Rights clause in FAR 52.227-19.
  
 Gaussian, Inc.
 340 Quinnipiac St., Bldg. 40, Wallingford CT 06492
  
  
 ---------------------------------------------------------------
 Warning -- This program may not be used in any manner that
 competes with the business of Gaussian, Inc. or will provide
 assistance to any competitor of Gaussian, Inc.  The licensee
 of this program is prohibited from giving any competitor of
 Gaussian, Inc. access to this program.  By using this program,
 the user acknowledges that Gaussian, Inc. is engaged in the
 business of creating and licensing software in the field of
 computational chemistry and represents and warrants to the
 licensee that it is not a competitor of Gaussian, Inc. and that
 it will not use this program in any manner prohibited above.
 ---------------------------------------------------------------
  

 Cite this work as:
 Gaussian 16, Revision A.03,
 M. J. Frisch, G. W. Trucks, H. B. Schlegel, G. E. Scuseria, 
 M. A. Robb, J. R. Cheeseman, G. Scalmani, V. Barone, 
 G. A. Petersson, H. Nakatsuji, X. Li, M. Caricato, A. V. Marenich, 
 J. Bloino, B. G. Janesko, R. Gomperts, B. Mennucci, H. P. Hratchian, 
 J. V. Ortiz, A. F. Izmaylov, J. L. Sonnenberg, D. Williams-Young, 
 F. Ding, F. Lipparini, F. Egidi, J. Goings, B. Peng, A. Petrone, 
 T. Henderson, D. Ranasinghe, V. G. Zakrzewski, J. Gao, N. Rega, 
 G. Zheng, W. Liang, M. Hada, M. Ehara, K. Toyota, R. Fukuda, 
 J. Hasegawa, M. Ishida, T. Nakajima, Y. Honda, O. Kitao, H. Nakai, 
 T. Vreven, K. Throssell, J. A. Montgomery, Jr., J. E. Peralta, 
 F. Ogliaro, M. J. Bearpark, J. J. Heyd, E. N. Brothers, K. N. Kudin, 
 V. N. Staroverov, T. A. Keith, R. Kobayashi, J. Normand, 
 K. Raghavachari, A. P. Rendell, J. C. Burant, S. S. Iyengar, 
 J. Tomasi, M. Cossi, J. M. Millam, M. Klene, C. Adamo, R. Cammi, 
 J. W. Ochterski, R. L. Martin, K. Morokuma, O. Farkas, 
 J. B. Foresman, and D. J. Fox, Gaussian, Inc., Wallingford CT, 2016.
 
 ******************************************
 Gaussian 16:  ES64L-G16RevA.03 25-Dec-2016
                17-Sep-2021 
 ******************************************
 %chk=geometry.chk
 %mem=2GB
 %nprocshared=1
 Will use up to    1 processors via shared memory.
 --------------------------------------------------------------------
 #p B3LYP/6-311+G** #p TD=(singlets,nstates=30)IOp(6/8=3) IOp(9/40=4)
 --------------------------------------------------------------------
 1/38=1,172=1/1;
 2/12=2,17=6,18=5,40=1/2;
 3/5=4,6=6,7=111,11=9,25=1,30=1,74=-5/1,2,3,8;
 4//1;
 5/5=2,38=5/2;
 8/6=1,10=2,108=30/1;
 9/40=4,41=30,42=1,48=1,70=2/14;
 6/7=2,8=3,9=2,10=2/1;
 99/5=1,9=1/99;
 Leave Link    1 at Fri Sep 17 10:52:19 2021, MaxMem=   268435456 cpu:               0.0 elap:               0.4
 (Enter /software/gaussian/g16-a03/l101.exe)
 ---------------------------------------------
 Scan Step 161, Bond Length 1.3050000000000002
 ---------------------------------------------
 Symbolic Z-matrix:
 Charge =  0 Multiplicity = 1
 C                     0.        0.       -0.52736 
 H                     0.        0.93726  -1.11871 
 H                     0.       -0.93726  -1.11871 
 O                     0.        0.        0.77764 
 
 ITRead=  0  0  0  0
 MicOpt= -1 -1 -1 -1
 NAtoms=      4 NQM=        4 NQMF=       0 NMMI=      0 NMMIF=      0
                NMic=       0 NMicF=      0.
                    Isotopes and Nuclear Properties:
 (Nuclear quadrupole moments (NQMom) in fm**2, nuclear magnetic moments (NMagM)
  in nuclear magnetons)

  Atom         1           2           3           4
 IAtWgt=          12           1           1          16
 AtmWgt=  12.0000000   1.0078250   1.0078250  15.9949146
 NucSpn=           0           1           1           0
 AtZEff=  -0.0000000  -0.0000000  -0.0000000  -0.0000000
 NQMom=    0.0000000   0.0000000   0.0000000   0.0000000
 NMagM=    0.0000000   2.7928460   2.7928460   0.0000000
 AtZNuc=   6.0000000   1.0000000   1.0000000   8.0000000
 Leave Link  101 at Fri Sep 17 10:52:19 2021, MaxMem=   268435456 cpu:               0.2 elap:               0.2
 (Enter /software/gaussian/g16-a03/l202.exe)
                          Input orientation:                          
 ---------------------------------------------------------------------
 Center     Atomic      Atomic             Coordinates (Angstroms)
 Number     Number       Type             X           Y           Z
 ---------------------------------------------------------------------
      1          6           0        0.000000    0.000000   -0.527360
      2          1           0        0.000000    0.937260   -1.118710
      3          1           0        0.000000   -0.937260   -1.118710
      4          8           0        0.000000    0.000000    0.777640
 ---------------------------------------------------------------------
                    Distance matrix (angstroms):
                    1          2          3          4
     1  C    0.000000
     2  H    1.108220   0.000000
     3  H    1.108220   1.874520   0.000000
     4  O    1.305000   2.115325   2.115325   0.000000
 Stoichiometry    CH2O
 Framework group  C2V[C2(CO),SGV(H2)]
 Deg. of freedom     3
 Full point group                 C2V     NOp   4
 Largest Abelian subgroup         C2V     NOp   4
 Largest concise Abelian subgroup C2      NOp   2
                         Standard orientation:                         
 ---------------------------------------------------------------------
 Center     Atomic      Atomic             Coordinates (Angstroms)
 Number     Number       Type             X           Y           Z
 ---------------------------------------------------------------------
      1          6           0        0.000000    0.000000   -0.578581
      2          1           0        0.000000    0.937260   -1.169931
      3          1           0       -0.000000   -0.937260   -1.169931
      4          8           0        0.000000   -0.000000    0.726419
 ---------------------------------------------------------------------
 Rotational constants (GHZ):         285.4183527          33.6085428          30.0679819
 Leave Link  202 at Fri Sep 17 10:52:19 2021, MaxMem=   268435456 cpu:               0.1 elap:               0.0
 (Enter /software/gaussian/g16-a03/l301.exe)
 Standard basis: 6-311+G(d,p) (5D, 7F)
 Ernie: Thresh=  0.10000D-02 Tol=  0.10000D-05 Strict=F.
 There are    29 symmetry adapted cartesian basis functions of A1  symmetry.
 There are     3 symmetry adapted cartesian basis functions of A2  symmetry.
 There are    11 symmetry adapted cartesian basis functions of B1  symmetry.
 There are    15 symmetry adapted cartesian basis functions of B2  symmetry.
 There are    27 symmetry adapted basis functions of A1  symmetry.
 There are     3 symmetry adapted basis functions of A2  symmetry.
 There are    11 symmetry adapted basis functions of B1  symmetry.
 There are    15 symmetry adapted basis functions of B2  symmetry.
    56 basis functions,    88 primitive gaussians,    58 cartesian basis functions
     8 alpha electrons        8 beta electrons
       nuclear repulsion energy        29.4789308003 Hartrees.
 IExCor=  402 DFT=T Ex+Corr=B3LYP ExCW=0 ScaHFX=  0.200000
 ScaDFX=  0.800000  0.720000  1.000000  0.810000 ScalE2=  1.000000  1.000000
 IRadAn=      5 IRanWt=     -1 IRanGd=            0 ICorTp=0 IEmpDi=  4
 NAtoms=    4 NActive=    4 NUniq=    3 SFac= 1.78D+00 NAtFMM=   60 NAOKFM=F Big=F
 Integral buffers will be    131072 words long.
 Regular integral format.
 Two-electron integral symmetry is turned on.
 Leave Link  301 at Fri Sep 17 10:52:20 2021, MaxMem=   268435456 cpu:               0.1 elap:               0.1
 (Enter /software/gaussian/g16-a03/l302.exe)
 NPDir=0 NMtPBC=     1 NCelOv=     1 NCel=       1 NClECP=     1 NCelD=      1
         NCelK=      1 NCelE2=     1 NClLst=     1 CellRange=     0.0.
 One-electron integrals computed using PRISM.
 One-electron integral symmetry used in STVInt
 NBasis=    56 RedAO= T EigKep=  5.30D-03  NBF=    27     3    11    15
 NBsUse=    56 1.00D-06 EigRej= -1.00D+00 NBFU=    27     3    11    15
 Precomputing XC quadrature grid using
 IXCGrd= 4 IRadAn=           5 IRanWt=          -1 IRanGd=           0 AccXCQ= 0.00D+00.
 Generated NRdTot=       0 NPtTot=           0 NUsed=           0 NTot=          32
 NSgBfM=    58    58    58    58    58 MxSgAt=     4 MxSgA2=     4.
 Leave Link  302 at Fri Sep 17 10:52:20 2021, MaxMem=   268435456 cpu:               0.3 elap:               0.3
 (Enter /software/gaussian/g16-a03/l303.exe)
 DipDrv:  MaxL=1.
 Leave Link  303 at Fri Sep 17 10:52:20 2021, MaxMem=   268435456 cpu:               0.1 elap:               0.1
 (Enter /software/gaussian/g16-a03/l308.exe)
 Leave Link  308 at Fri Sep 17 10:52:20 2021, MaxMem=   268435456 cpu:               0.1 elap:               0.1
 (Enter /software/gaussian/g16-a03/l401.exe)
 ExpMin= 4.38D-02 ExpMax= 8.59D+03 ExpMxC= 1.30D+03 IAcc=3 IRadAn=         5 AccDes= 0.00D+00
 Harris functional with IExCor=  402 and IRadAn=       5 diagonalized for initial guess.
 HarFok:  IExCor=  402 AccDes= 0.00D+00 IRadAn=         5 IDoV= 1 UseB2=F ITyADJ=14
 ICtDFT=  3500011 ScaDFX=  1.000000  1.000000  1.000000  1.000000
 FoFCou: FMM=F IPFlag=           0 FMFlag=      100000 FMFlg1=           0
         NFxFlg=           0 DoJE=T BraDBF=F KetDBF=T FulRan=T
         wScrn=  0.000000 ICntrl=       500 IOpCl=  0 I1Cent=   200000004 NGrid=           0
         NMat0=    1 NMatS0=      1 NMatT0=    0 NMatD0=    1 NMtDS0=    0 NMtDT0=    0
 Petite list used in FoFCou.
 Harris En= -114.537745551394    
 JPrj=0 DoOrth=F DoCkMO=F.
 Initial guess orbital symmetries:
       Occupied  (A1) (A1) (A1) (A1) (B2) (A1) (B1) (B2)
       Virtual   (B1) (A1) (A1) (B2) (B1) (A1) (B2) (A1) (A1) (B1)
                 (B2) (A1) (A1) (B2) (B1) (A1) (B2) (A1) (A1) (A2)
                 (B1) (B2) (B1) (A1) (B2) (A1) (B2) (A1) (B1) (A2)
                 (A1) (B2) (A1) (B2) (B1) (A1) (A2) (A1) (A1) (B1)
                 (B2) (B2) (A1) (B1) (B2) (A1) (A1) (A1)
 The electronic state of the initial guess is 1-A1.
 Leave Link  401 at Fri Sep 17 10:52:21 2021, MaxMem=   268435456 cpu:               0.6 elap:               0.6
 (Enter /software/gaussian/g16-a03/l502.exe)
 Keep R1 ints in memory in symmetry-blocked form, NReq=2159909.
 FoFCou: FMM=F IPFlag=           0 FMFlag=           0 FMFlg1=           0
         NFxFlg=           0 DoJE=F BraDBF=F KetDBF=F FulRan=T
         wScrn=  0.000000 ICntrl=       600 IOpCl=  0 I1Cent=           0 NGrid=           0
         NMat0=    1 NMatS0=   1596 NMatT0=    0 NMatD0=    1 NMtDS0=    0 NMtDT0=    0
 Petite list used in FoFCou.
 Closed shell SCF:
 Using DIIS extrapolation, IDIIS=  1040.
 NGot=   268435456 LenX=   268074384 LenY=   268070579
 Requested convergence on RMS density matrix=1.00D-08 within 128 cycles.
 Requested convergence on MAX density matrix=1.00D-06.
 Requested convergence on             energy=1.00D-06.
 No special actions if energy rises.

 Cycle   1  Pass 1  IDiag  1:
 E= -114.473820044370    
 DIIS: error= 4.64D-02 at cycle   1 NSaved=   1.
 NSaved= 1 IEnMin= 1 EnMin= -114.473820044370     IErMin= 1 ErrMin= 4.64D-02
 ErrMax= 4.64D-02  0.00D+00 EMaxC= 1.00D-01 BMatC= 7.42D-02 BMatP= 7.42D-02
 IDIUse=3 WtCom= 5.36D-01 WtEn= 4.64D-01
 Coeff-Com:  0.100D+01
 Coeff-En:   0.100D+01
 Coeff:      0.100D+01
 Gap=     0.116 Goal=   None    Shift=    0.000
 GapD=    0.116 DampG=1.000 DampE=0.500 DampFc=0.5000 IDamp=-1.
 Damping current iteration by 5.00D-01
 RMSDP=1.08D-02 MaxDP=9.08D-02              OVMax= 3.60D-01

 Cycle   2  Pass 1  IDiag  1:
 E= -114.447596498502     Delta-E=        0.026223545868 Rises=F Damp=T
 DIIS: error= 4.21D-02 at cycle   2 NSaved=   2.
 NSaved= 2 IEnMin= 1 EnMin= -114.473820044370     IErMin= 2 ErrMin= 4.21D-02
 ErrMax= 4.21D-02  0.00D+00 EMaxC= 1.00D-01 BMatC= 4.35D-02 BMatP= 7.42D-02
 IDIUse=3 WtCom= 5.79D-01 WtEn= 4.21D-01
 Coeff-Com:  0.424D+00 0.576D+00
 Coeff-En:   0.615D+00 0.385D+00
 Coeff:      0.505D+00 0.495D+00
 Gap=     0.179 Goal=   None    Shift=    0.000
 RMSDP=2.22D-03 MaxDP=2.79D-02 DE= 2.62D-02 OVMax= 2.55D-01

 Cycle   3  Pass 1  IDiag  1:
 E= -114.525501512344     Delta-E=       -0.077905013842 Rises=F Damp=F
 DIIS: error= 7.85D-03 at cycle   3 NSaved=   3.
 NSaved= 3 IEnMin= 3 EnMin= -114.525501512344     IErMin= 3 ErrMin= 7.85D-03
 ErrMax= 7.85D-03  0.00D+00 EMaxC= 1.00D-01 BMatC= 3.44D-03 BMatP= 4.35D-02
 IDIUse=3 WtCom= 9.21D-01 WtEn= 7.85D-02
 Coeff-Com:  0.191D+00 0.107D+00 0.702D+00
 Coeff-En:   0.000D+00 0.000D+00 0.100D+01
 Coeff:      0.176D+00 0.989D-01 0.725D+00
 Gap=     0.195 Goal=   None    Shift=    0.000
 RMSDP=9.15D-04 MaxDP=1.57D-02 DE=-7.79D-02 OVMax= 2.04D-02

 Cycle   4  Pass 1  IDiag  1:
 E= -114.527987097379     Delta-E=       -0.002485585036 Rises=F Damp=F
 DIIS: error= 3.40D-03 at cycle   4 NSaved=   4.
 NSaved= 4 IEnMin= 4 EnMin= -114.527987097379     IErMin= 4 ErrMin= 3.40D-03
 ErrMax= 3.40D-03  0.00D+00 EMaxC= 1.00D-01 BMatC= 3.08D-04 BMatP= 3.44D-03
 IDIUse=3 WtCom= 9.66D-01 WtEn= 3.40D-02
 Coeff-Com:  0.330D-01-0.146D-01 0.299D+00 0.683D+00
 Coeff-En:   0.000D+00 0.000D+00 0.000D+00 0.100D+01
 Coeff:      0.319D-01-0.141D-01 0.289D+00 0.694D+00
 Gap=     0.197 Goal=   None    Shift=    0.000
 RMSDP=2.22D-04 MaxDP=4.99D-03 DE=-2.49D-03 OVMax= 5.71D-03

 Cycle   5  Pass 1  IDiag  1:
 E= -114.528271685245     Delta-E=       -0.000284587865 Rises=F Damp=F
 DIIS: error= 5.85D-04 at cycle   5 NSaved=   5.
 NSaved= 5 IEnMin= 5 EnMin= -114.528271685245     IErMin= 5 ErrMin= 5.85D-04
 ErrMax= 5.85D-04  0.00D+00 EMaxC= 1.00D-01 BMatC= 9.42D-06 BMatP= 3.08D-04
 IDIUse=3 WtCom= 9.94D-01 WtEn= 5.85D-03
 Coeff-Com:  0.559D-02-0.131D-01 0.569D-01 0.186D+00 0.765D+00
 Coeff-En:   0.000D+00 0.000D+00 0.000D+00 0.000D+00 0.100D+01
 Coeff:      0.556D-02-0.130D-01 0.566D-01 0.185D+00 0.766D+00
 Gap=     0.197 Goal=   None    Shift=    0.000
 RMSDP=3.41D-05 MaxDP=2.32D-04 DE=-2.85D-04 OVMax= 8.75D-04

 Cycle   6  Pass 1  IDiag  1:
 E= -114.528279562939     Delta-E=       -0.000007877694 Rises=F Damp=F
 DIIS: error= 8.32D-05 at cycle   6 NSaved=   6.
 NSaved= 6 IEnMin= 6 EnMin= -114.528279562939     IErMin= 6 ErrMin= 8.32D-05
 ErrMax= 8.32D-05  0.00D+00 EMaxC= 1.00D-01 BMatC= 1.72D-07 BMatP= 9.42D-06
 IDIUse=1 WtCom= 1.00D+00 WtEn= 0.00D+00
 Coeff-Com:  0.490D-03-0.119D-02-0.133D-04-0.479D-02-0.231D-01 0.103D+01
 Coeff:      0.490D-03-0.119D-02-0.133D-04-0.479D-02-0.231D-01 0.103D+01
 Gap=     0.197 Goal=   None    Shift=    0.000
 RMSDP=5.87D-06 MaxDP=5.18D-05 DE=-7.88D-06 OVMax= 1.37D-04

 Cycle   7  Pass 1  IDiag  1:
 E= -114.528279707598     Delta-E=       -0.000000144659 Rises=F Damp=F
 DIIS: error= 2.57D-06 at cycle   7 NSaved=   7.
 NSaved= 7 IEnMin= 7 EnMin= -114.528279707598     IErMin= 7 ErrMin= 2.57D-06
 ErrMax= 2.57D-06  0.00D+00 EMaxC= 1.00D-01 BMatC= 4.66D-10 BMatP= 1.72D-07
 IDIUse=1 WtCom= 1.00D+00 WtEn= 0.00D+00
 Coeff-Com:  0.447D-04-0.594D-04 0.294D-04-0.111D-02-0.641D-02 0.552D-01
 Coeff-Com:  0.952D+00
 Coeff:      0.447D-04-0.594D-04 0.294D-04-0.111D-02-0.641D-02 0.552D-01
 Coeff:      0.952D+00
 Gap=     0.197 Goal=   None    Shift=    0.000
 RMSDP=1.96D-07 MaxDP=3.84D-06 DE=-1.45D-07 OVMax= 4.67D-06

 Cycle   8  Pass 1  IDiag  1:
 E= -114.528279707902     Delta-E=       -0.000000000304 Rises=F Damp=F
 DIIS: error= 1.84D-06 at cycle   8 NSaved=   8.
 NSaved= 8 IEnMin= 8 EnMin= -114.528279707902     IErMin= 8 ErrMin= 1.84D-06
 ErrMax= 1.84D-06  0.00D+00 EMaxC= 1.00D-01 BMatC= 8.45D-11 BMatP= 4.66D-10
 IDIUse=1 WtCom= 1.00D+00 WtEn= 0.00D+00
 Coeff-Com:  0.574D-05-0.326D-05 0.697D-05-0.754D-04-0.321D-04-0.185D-01
 Coeff-Com:  0.548D-01 0.964D+00
 Coeff:      0.574D-05-0.326D-05 0.697D-05-0.754D-04-0.321D-04-0.185D-01
 Coeff:      0.548D-01 0.964D+00
 Gap=     0.197 Goal=   None    Shift=    0.000
 RMSDP=1.31D-07 MaxDP=1.01D-06 DE=-3.04D-10 OVMax= 3.16D-06

 Cycle   9  Pass 1  IDiag  1:
 E= -114.528279707973     Delta-E=       -0.000000000071 Rises=F Damp=F
 DIIS: error= 5.39D-08 at cycle   9 NSaved=   9.
 NSaved= 9 IEnMin= 9 EnMin= -114.528279707973     IErMin= 9 ErrMin= 5.39D-08
 ErrMax= 5.39D-08  0.00D+00 EMaxC= 1.00D-01 BMatC= 1.56D-13 BMatP= 8.45D-11
 IDIUse=1 WtCom= 1.00D+00 WtEn= 0.00D+00
 Coeff-Com:  0.881D-06-0.720D-06 0.166D-05 0.884D-06 0.767D-04-0.288D-02
 Coeff-Com: -0.148D-02 0.113D+00 0.892D+00
 Coeff:      0.881D-06-0.720D-06 0.166D-05 0.884D-06 0.767D-04-0.288D-02
 Coeff:     -0.148D-02 0.113D+00 0.892D+00
 Gap=     0.197 Goal=   None    Shift=    0.000
 RMSDP=3.29D-09 MaxDP=4.88D-08 DE=-7.08D-11 OVMax= 8.28D-08

 SCF Done:  E(RB3LYP) =  -114.528279708     A.U. after    9 cycles
            NFock=  9  Conv=0.33D-08     -V/T= 2.0063
 KE= 1.138061175478D+02 PE=-3.277922963820D+02 EE= 6.997896832590D+01
 Leave Link  502 at Fri Sep 17 10:52:23 2021, MaxMem=   268435456 cpu:               2.5 elap:               2.7
 (Enter /software/gaussian/g16-a03/l801.exe)
 DoSCS=F DFT=T ScalE2(SS,OS)=  1.000000  1.000000
 ExpMin= 4.38D-02 ExpMax= 8.59D+03 ExpMxC= 1.30D+03 IAcc=3 IRadAn=         5 AccDes= 0.00D+00
 HarFok:  IExCor=  205 AccDes= 0.00D+00 IRadAn=         5 IDoV=-2 UseB2=F ITyADJ=14
 ICtDFT= 12500011 ScaDFX=  1.000000  1.000000  1.000000  1.000000
 Largest valence mixing into a core orbital is  4.94D-05
 Largest core mixing into a valence orbital is  1.06D-05
 Range of M.O.s used for correlation:     3    56
 NBasis=    56 NAE=     8 NBE=     8 NFC=     2 NFV=     0
 NROrb=     54 NOA=     6 NOB=     6 NVA=    48 NVB=    48
 Leave Link  801 at Fri Sep 17 10:52:24 2021, MaxMem=   268435456 cpu:               0.4 elap:               0.4
 (Enter /software/gaussian/g16-a03/l914.exe)
 RHF ground state
 Keep R1, R2, and R3 ints in memory in symmetry-blocked form, NReq=6042848.
 FoFCou: FMM=F IPFlag=           0 FMFlag=           0 FMFlg1=           0
         NFxFlg=           0 DoJE=F BraDBF=F KetDBF=F FulRan=T
         wScrn=  0.000000 ICntrl=       600 IOpCl=  0 I1Cent=           0 NGrid=           0
         NMat0=    1 NMatS0=   1596 NMatT0=    0 NMatD0=    1 NMtDS0=    0 NMtDT0=    0
 Petite list used in FoFCou.
 MDV=   268435456 DFT=T DoStab=F Mixed=T DoRPA=T DoScal=F NonHer=T
 Making orbital integer symmetry assigments:
 Orbital symmetries:
       Occupied  (A1) (A1) (A1) (A1) (B2) (A1) (B1) (B2)
       Virtual   (B1) (A1) (A1) (B2) (B1) (A1) (B2) (A1) (B1) (B2)
                 (A1) (A1) (A1) (B2) (B1) (A1) (B2) (A1) (A2) (A1)
                 (B1) (B2) (B1) (A1) (B2) (A1) (B2) (A1) (B1) (A2)
                 (A1) (B2) (A1) (B2) (A1) (B1) (A2) (A1) (A1) (B1)
                 (B2) (B2) (A1) (B1) (B2) (A1) (A1) (A1)
   120 initial guesses have been made.
 Convergence on wavefunction:    0.001000000000000
 Davidson Disk Diagonalization:  ConvIn= 1.00D-03 SkipCon=T Conv= 1.00D-03.
 Max sub-space:  1728 roots to seek:   120 dimension of matrix:          576
 Iteration     1 Dimension   120 NMult     0 NNew    120
 CISAX will form   120 AO SS matrices at one time.
 NMat=   120 NSing=   120 JSym2X=-1.
 New state      3 was old state      4
 New state      4 was old state      5
 New state      5 was old state      7
 New state      6 was old state      3
 New state      7 was old state      6
 New state      8 was old state      9
 New state      9 was old state      8
 New state     14 was old state     15
 New state     15 was old state     16
 New state     16 was old state     14
 New state     18 was old state     20
 New state     19 was old state     18
 New state     20 was old state     19
 New state     23 was old state     25
 New state     24 was old state     23
 New state     25 was old state     24
 New state     26 was old state     27
 New state     27 was old state     26
 New state     29 was old state     30
 New state     30 was old state     31
 Excitation Energies [eV] at current iteration:
 Root      1 :     3.379666648776227
 Root      2 :     6.944464169891031
 Root      3 :     7.684967087914316
 Root      4 :     7.967682498392902
 Root      5 :     8.026613624956214
 Root      6 :     8.255365215219097
 Root      7 :     8.491939295105514
 Root      8 :     9.137559586800791
 Root      9 :     9.569290477094251
 Root     10 :    10.288121881208260
 Root     11 :    10.401033828417300
 Root     12 :    10.578010892777940
 Root     13 :    11.266306092117060
 Root     14 :    11.407888458755850
 Root     15 :    11.541520161530790
 Root     16 :    12.009615941818540
 Root     17 :    12.310294826163470
 Root     18 :    12.359762036045270
 Root     19 :    12.452940507891810
 Root     20 :    12.517232742949140
 Root     21 :    12.694569660020320
 Root     22 :    12.982089671725800
 Root     23 :    13.037259005975490
 Root     24 :    13.141651553970500
 Root     25 :    13.447908054453750
 Root     26 :    13.652046982860370
 Root     27 :    13.860967594274510
 Root     28 :    14.072601155234660
 Root     29 :    14.214903694023710
 Root     30 :    14.597726688130230
 Root     31 :    14.800353188796110
 Root     32 :    15.183267746683540
 Root     33 :    15.376690086512000
 Root     34 :    15.551158192197870
 Root     35 :    15.582667668859000
 Root     36 :    15.782756881398610
 Root     37 :    16.074142615735610
 Root     38 :    16.518837611541270
 Root     39 :    16.834963384517800
 Root     40 :    16.932609987014280
 Root     41 :    17.326414174763490
 Root     42 :    17.425461397643710
 Root     43 :    17.482995714983480
 Root     44 :    17.580068490364800
 Root     45 :    17.889291051412490
 Root     46 :    18.070387628737500
 Root     47 :    18.117067293175510
 Root     48 :    18.303588168630600
 Root     49 :    18.370129974583560
 Root     50 :    18.706474707682230
 Root     51 :    18.998823660632570
 Root     52 :    19.004858829024960
 Root     53 :    19.139811335042690
 Root     54 :    20.128298210540540
 Root     55 :    20.574349864390050
 Root     56 :    20.643200202181620
 Root     57 :    20.824056204862370
 Root     58 :    20.935640925809490
 Root     59 :    21.097013384697420
 Root     60 :    21.456462671822540
 Root     61 :    22.047591354252170
 Root     62 :    22.102253985995340
 Root     63 :    22.766281695863280
 Root     64 :    22.857490103374310
 Root     65 :    23.223918385444750
 Root     66 :    23.242637239128180
 Root     67 :    23.329282218288210
 Root     68 :    23.615717721247380
 Root     69 :    23.782441089345770
 Root     70 :    24.222701076419280
 Root     71 :    24.407218533869130
 Root     72 :    24.442248819661270
 Root     73 :    24.691411110494610
 Root     74 :    25.066666706763550
 Root     75 :    25.360730843799620
 Root     76 :    25.467562653774220
 Root     77 :    25.479759513855970
 Root     78 :    26.970123994153750
 Root     79 :    27.003261961712230
 Root     80 :    27.235751397088240
 Root     81 :    27.288653854981550
 Root     82 :    27.537650324421940
 Root     83 :    28.056544162188690
 Root     84 :    28.082761300100070
 Root     85 :    28.594509190007510
 Root     86 :    28.619580368793260
 Root     87 :    29.317280992701870
 Root     88 :    29.613291184795690
 Root     89 :    29.752191546096120
 Root     90 :    30.157960388237830
 Root     91 :    30.219622008948040
 Root     92 :    31.329245888273790
 Root     93 :    31.750847841103990
 Root     94 :    32.247366215392850
 Root     95 :    32.620630758494170
 Root     96 :    32.707331751820960
 Root     97 :    33.084295551061520
 Root     98 :    33.178454342026260
 Root     99 :    33.183703696841110
 Root    100 :    33.395388870700110
 Root    101 :    33.488679830661930
 Root    102 :    33.843168139970640
 Root    103 :    34.091570136295840
 Root    104 :    35.159177018348460
 Root    105 :    35.924868719064700
 Root    106 :    36.099920501430310
 Root    107 :    36.483476986510650
 Root    108 :    37.499569549898080
 Root    109 :    37.644146040776470
 Root    110 :    37.933122833506990
 Root    111 :    37.956870855337780
 Root    112 :    38.372600680670190
 Root    113 :    38.678474806011940
 Root    114 :    38.811536250669740
 Root    115 :    39.602974697991700
 Root    116 :    39.754803080201910
 Root    117 :    39.873023205214880
 Root    118 :    40.223587700078750
 Root    119 :    40.492115474157560
 Root    120 :    44.905822066196210
 Iteration     2 Dimension   180 NMult   120 NNew     60
 CISAX will form    60 AO SS matrices at one time.
 NMat=    60 NSing=    60 JSym2X=-1.
 Root      1 not converged, maximum delta is    0.005619591522479
 Root      2 not converged, maximum delta is    0.001867011570126
 Root      3 not converged, maximum delta is    0.004598714762256
 Root      4 not converged, maximum delta is    0.024785225699338
 Root      5 not converged, maximum delta is    0.012707284891167
 Root      6 not converged, maximum delta is    0.028789660339659
 Root      7 not converged, maximum delta is    0.001093161129899
 Root      8 not converged, maximum delta is    0.010495257406136
 Root      9 not converged, maximum delta is    0.001990729985763
 Root     10 not converged, maximum delta is    0.003415825039615
 Root     11 not converged, maximum delta is    0.005281964841388
 Root     12 not converged, maximum delta is    0.001825894208626
 Root     13 not converged, maximum delta is    0.006978177820280
 Root     14 not converged, maximum delta is    0.006100562256513
 Root     15 not converged, maximum delta is    0.001876306124105
 Root     16 not converged, maximum delta is    0.017917909529992
 Root     17 not converged, maximum delta is    0.014247431057776
 Root     18 not converged, maximum delta is    0.001707529298516
 Root     19 not converged, maximum delta is    0.015446538321886
 Root     20 not converged, maximum delta is    0.016208112098055
 Root     21 not converged, maximum delta is    0.004256609982429
 Root     22 not converged, maximum delta is    0.002369257490205
 Root     23 not converged, maximum delta is    0.009167342565309
 Root     24 not converged, maximum delta is    0.008698823785919
 Root     25 not converged, maximum delta is    0.006304583359140
 Root     26 not converged, maximum delta is    0.004388351346962
 Root     27 not converged, maximum delta is    0.008790763633820
 Root     28 not converged, maximum delta is    0.001941752298278
 Root     29 not converged, maximum delta is    0.016263676373902
 Root     30 not converged, maximum delta is    0.005615970794678
 Excitation Energies [eV] at current iteration:
 Root      1 :     3.368321538058070   Change is   -0.011345110718157
 Root      2 :     6.942860837298076   Change is   -0.001603332592955
 Root      3 :     7.674885962427759   Change is   -0.010081125486557
 Root      4 :     7.964326227178915   Change is   -0.003356271213987
 Root      5 :     7.968170116088269   Change is   -0.058443508867945
 Root      6 :     8.195039336598729   Change is   -0.060325878620368
 Root      7 :     8.491611163641206   Change is   -0.000328131464307
 Root      8 :     9.123761448870724   Change is   -0.013798137930068
 Root      9 :     9.568293799463758   Change is   -0.000996677630493
 Root     10 :    10.279226989621840   Change is   -0.008894891586418
 Root     11 :    10.394059904804680   Change is   -0.006973923612614
 Root     12 :    10.577446564395850   Change is   -0.000564328382091
 Root     13 :    11.256439457613450   Change is   -0.009866634503604
 Root     14 :    11.401212447176980   Change is   -0.006676011578870
 Root     15 :    11.538979733348360   Change is   -0.002540428182430
 Root     16 :    11.986704207249460   Change is   -0.022911734569080
 Root     17 :    12.298004390604580   Change is   -0.012290435558893
 Root     18 :    12.358881458516900   Change is   -0.000880577528368
 Root     19 :    12.450385747023070   Change is   -0.002554760868739
 Root     20 :    12.510894976007150   Change is   -0.006337766941996
 Root     21 :    12.690494765372990   Change is   -0.004074894647336
 Root     22 :    12.980756732542020   Change is   -0.001332939183778
 Root     23 :    12.995400048427030   Change is   -0.041858957548460
 Root     24 :    13.124211650782950   Change is   -0.017439903187541
 Root     25 :    13.439559570042970   Change is   -0.008348484410775
 Root     26 :    13.649492031052190   Change is   -0.002554951808189
 Root     27 :    13.848823723914950   Change is   -0.012143870359558
 Root     28 :    14.071958214858680   Change is   -0.000642940375984
 Root     29 :    14.210915042061230   Change is   -0.003988651962485
 Root     30 :    14.590374269732920   Change is   -0.007352418397302
 Iteration     3 Dimension   236 NMult   180 NNew     56
 CISAX will form    56 AO SS matrices at one time.
 NMat=    56 NSing=    56 JSym2X=-1.
 Root      1 has converged.
 Root      2 has converged.
 Root      3 has converged.
 Root      4 has converged.
 Root      5 has converged.
 Root      6 has converged.
 Root      7 has converged.
 Root      8 has converged.
 Root      9 has converged.
 Root     10 has converged.
 Root     11 has converged.
 Root     12 has converged.
 Root     13 has converged.
 Root     14 has converged.
 Root     15 has converged.
 Root     16 has converged.
 Root     17 has converged.
 Root     18 has converged.
 Root     19 has converged.
 Root     20 has converged.
 Root     21 has converged.
 Root     22 has converged.
 Root     23 has converged.
 Root     24 has converged.
 Root     25 has converged.
 Root     26 has converged.
 Root     27 has converged.
 Root     28 has converged.
 Root     29 has converged.
 Root     30 has converged.
 Excitation Energies [eV] at current iteration:
 Root      1 :     3.368320468711603   Change is   -0.000001069346467
 Root      2 :     6.942859646311300   Change is   -0.000001190986776
 Root      3 :     7.674878679317280   Change is   -0.000007283110479
 Root      4 :     7.964322538023381   Change is   -0.000003689155534
 Root      5 :     7.968107751282135   Change is   -0.000062364806133
 Root      6 :     8.194961178385219   Change is   -0.000078158213511
 Root      7 :     8.491611124368719   Change is   -0.000000039272489
 Root      8 :     9.123752182985347   Change is   -0.000009265885376
 Root      9 :     9.568293102076003   Change is   -0.000000697387756
 Root     10 :    10.279218357735330   Change is   -0.000008631886511
 Root     11 :    10.394050412664740   Change is   -0.000009492139939
 Root     12 :    10.577446294000770   Change is   -0.000000270395082
 Root     13 :    11.256417535661950   Change is   -0.000021921951503
 Root     14 :    11.401194028948030   Change is   -0.000018418228949
 Root     15 :    11.538971340818300   Change is   -0.000008392530065
 Root     16 :    11.986639159010190   Change is   -0.000065048239275
 Root     17 :    12.297966213118570   Change is   -0.000038177486010
 Root     18 :    12.358880782397960   Change is   -0.000000676118941
 Root     19 :    12.450382088162970   Change is   -0.000003658860102
 Root     20 :    12.510880023997600   Change is   -0.000014952009551
 Root     21 :    12.690488368415060   Change is   -0.000006396957931
 Root     22 :    12.980754469380300   Change is   -0.000002263161723
 Root     23 :    12.995323356869930   Change is   -0.000076691557102
 Root     24 :    13.124151588675970   Change is   -0.000060062106984
 Root     25 :    13.439549293352630   Change is   -0.000010276690339
 Root     26 :    13.649487291512800   Change is   -0.000004739539389
 Root     27 :    13.848796724587460   Change is   -0.000026999327491
 Root     28 :    14.071957193163190   Change is   -0.000001021695492
 Root     29 :    14.210907846013700   Change is   -0.000007196047530
 Root     30 :    14.590357077148190   Change is   -0.000017192584735
 Convergence achieved on expansion vectors.
 ***********************************************************************
 Excited states from <AA,BB:AA,BB> singles matrix:
 ***********************************************************************
 
 1PDM for each excited state written to RWF  633
 Ground to excited state transition densities written to RWF  633
 Ground to excited state transition electric dipole moments (Au):
       state          X           Y           Z        Dip. S.      Osc.
         1         0.0000     -0.0000     -0.0000      0.0000      0.0000
         2        -0.0000      0.3341      0.0000      0.1116      0.0190
         3        -0.0000      0.3874      0.0000      0.1501      0.0282
         4        -0.0000      0.0000     -0.3669      0.1346      0.0263
         5         0.0815     -0.0000     -0.0000      0.0066      0.0013
         6         0.0000     -0.0000      0.8982      0.8068      0.1620
         7        -0.0000     -0.0000      0.0000      0.0000      0.0000
         8         0.0000      0.0000     -0.0000      0.0000      0.0000
         9        -0.4087     -0.0000     -0.0000      0.1671      0.0392
        10        -0.0000      0.5290     -0.0000      0.2799      0.0705
        11         0.4741      0.0000     -0.0000      0.2248      0.0572
        12         0.0000     -0.0000      0.0000      0.0000      0.0000
        13        -0.0000     -0.0000     -0.1985      0.0394      0.0109
        14        -0.0000     -0.0000     -0.0207      0.0004      0.0001
        15         0.0000     -0.0625      0.0000      0.0039      0.0011
        16         0.0000      0.0000     -0.4261      0.1816      0.0533
        17         0.0000      0.0000      1.0633      1.1307      0.3407
        18         0.0000      0.0000     -0.0000      0.0000      0.0000
        19        -0.0000     -0.3643      0.0000      0.1327      0.0405
        20        -0.0000     -0.6009      0.0000      0.3611      0.1107
        21         0.2663     -0.0000     -0.0000      0.0709      0.0220
        22        -0.2033      0.0000     -0.0000      0.0413      0.0131
        23        -0.0000     -0.0690     -0.0000      0.0048      0.0015
        24         0.0000      0.0000     -0.4767      0.2272      0.0731
        25        -0.0000      0.3299      0.0000      0.1089      0.0358
        26        -0.0000     -0.0000     -0.0000      0.0000      0.0000
        27         0.0000     -0.0000      0.1306      0.0171      0.0058
        28        -0.0000     -0.0000     -0.0000      0.0000      0.0000
        29         0.0281     -0.0000     -0.0000      0.0008      0.0003
        30         0.0000     -0.0000      0.3036      0.0922      0.0330
 Ground to excited state transition velocity dipole moments (Au):
       state          X           Y           Z        Dip. S.      Osc.
         1        -0.0000      0.0000      0.0000      0.0000      0.0000
         2         0.0000     -0.0873      0.0000      0.0076      0.0199
         3         0.0000     -0.1136     -0.0000      0.0129      0.0305
         4         0.0000     -0.0000      0.1059      0.0112      0.0256
         5        -0.0377      0.0000      0.0000      0.0014      0.0032
         6        -0.0000      0.0000     -0.2585      0.0668      0.1479
         7         0.0000      0.0000      0.0000      0.0000      0.0000
         8        -0.0000     -0.0000      0.0000      0.0000      0.0000
         9         0.1477      0.0000      0.0000      0.0218      0.0414
        10         0.0000     -0.1991     -0.0000      0.0396      0.0699
        11        -0.1885     -0.0000     -0.0000      0.0355      0.0620
        12        -0.0000     -0.0000     -0.0000      0.0000      0.0000
        13         0.0000      0.0000      0.0872      0.0076      0.0122
        14         0.0000      0.0000      0.0074      0.0001      0.0001
        15        -0.0000      0.0060     -0.0000      0.0000      0.0001
        16         0.0000      0.0000      0.1785      0.0319      0.0482
        17        -0.0000     -0.0000     -0.4873      0.2375      0.3503
        18        -0.0000     -0.0000      0.0000      0.0000      0.0000
        19         0.0000      0.1642     -0.0000      0.0269      0.0393
        20         0.0000      0.2739     -0.0000      0.0750      0.1088
        21        -0.1026      0.0000      0.0000      0.0105      0.0150
        22         0.0920     -0.0000      0.0000      0.0085      0.0118
        23         0.0000      0.0320      0.0000      0.0010      0.0014
        24        -0.0000     -0.0000      0.2209      0.0488      0.0675
        25         0.0000     -0.1640     -0.0000      0.0269      0.0363
        26         0.0000      0.0000      0.0000      0.0000      0.0000
        27        -0.0000      0.0000     -0.0596      0.0035      0.0046
        28         0.0000      0.0000      0.0000      0.0000      0.0000
        29        -0.0076      0.0000      0.0000      0.0001      0.0001
        30        -0.0000      0.0000     -0.1612      0.0260      0.0323
 Ground to excited state transition magnetic dipole moments (Au):
       state          X           Y           Z
         1        -0.0000     -0.0000      1.1725
         2        -0.4032     -0.0000      0.0000
         3         0.6429     -0.0000      0.0000
         4         0.0000      0.0000     -0.0000
         5        -0.0000     -1.6048      0.0000
         6        -0.0000     -0.0000     -0.0000
         7         0.0000      0.0000     -0.0366
         8        -0.0000     -0.0000     -0.7653
         9         0.0000      0.0063     -0.0000
        10        -0.7639     -0.0000      0.0000
        11        -0.0000      0.1121     -0.0000
        12         0.0000     -0.0000      0.0358
        13        -0.0000      0.0000     -0.0000
        14        -0.0000      0.0000      0.0000
        15         0.4865      0.0000      0.0000
        16        -0.0000      0.0000      0.0000
        17        -0.0000     -0.0000      0.0000
        18         0.0000     -0.0000     -0.0198
        19        -0.1946     -0.0000     -0.0000
        20         0.3600      0.0000      0.0000
        21         0.0000     -0.1057     -0.0000
        22         0.0000      0.2806     -0.0000
        23        -0.4500      0.0000      0.0000
        24         0.0000     -0.0000     -0.0000
        25        -0.5681     -0.0000      0.0000
        26         0.0000     -0.0000     -0.0184
        27        -0.0000     -0.0000      0.0000
        28        -0.0000      0.0000      0.0323
        29         0.0000     -0.1094      0.0000
        30        -0.0000     -0.0000     -0.0000
 Ground to excited state transition velocity quadrupole moments (Au):
       state          XX          YY          ZZ          XY          XZ          YZ
         1        -0.0000     -0.0000     -0.0000     -0.0749     -0.0000      0.0000
         2        -0.0000      0.0000      0.0000      0.0000     -0.0000      0.4546
         3        -0.0000     -0.0000     -0.0000     -0.0000     -0.0000     -0.0520
         4        -0.0067     -0.2435     -0.2760      0.0000     -0.0000     -0.0000
         5         0.0000     -0.0000     -0.0000     -0.0000     -0.2968     -0.0000
         6         0.2053      0.0071     -0.1401      0.0000     -0.0000      0.0000
         7         0.0000      0.0000     -0.0000     -0.0434     -0.0000     -0.0000
         8         0.0000     -0.0000     -0.0000      0.2071      0.0000      0.0000
         9         0.0000     -0.0000     -0.0000      0.0000     -0.1446     -0.0000
        10         0.0000     -0.0000      0.0000     -0.0000     -0.0000      0.4535
        11         0.0000     -0.0000      0.0000     -0.0000     -0.2842      0.0000
        12         0.0000      0.0000     -0.0000      0.2824     -0.0000      0.0000
        13         0.7258     -0.0228     -0.0575     -0.0000      0.0000      0.0000
        14         0.1793     -0.1183      0.1664     -0.0000     -0.0000      0.0000
        15         0.0000      0.0000      0.0000     -0.0000      0.0000      0.3325
        16        -0.2837     -0.6579     -0.6316     -0.0000      0.0000      0.0000
        17        -0.0483      0.2963      0.3738      0.0000      0.0000      0.0000
        18         0.0000     -0.0000     -0.0000      0.3496     -0.0000      0.0000
        19        -0.0000      0.0000      0.0000      0.0000     -0.0000     -0.2415
        20        -0.0000      0.0000      0.0000     -0.0000     -0.0000     -0.6892
        21         0.0000      0.0000     -0.0000     -0.0000      0.0655     -0.0000
        22         0.0000      0.0000      0.0000     -0.0000     -0.0218     -0.0000
        23        -0.0000      0.0000      0.0000     -0.0000      0.0000      0.1224
        24         0.1628      0.5121      0.2434      0.0000     -0.0000      0.0000
        25        -0.0000     -0.0000     -0.0000     -0.0000      0.0000     -0.2725
        26         0.0000      0.0000      0.0000     -0.2506     -0.0000      0.0000
        27         0.3240      1.1028      0.2764     -0.0000      0.0000     -0.0000
        28        -0.0000     -0.0000     -0.0000      0.3228     -0.0000     -0.0000
        29        -0.0000     -0.0000     -0.0000      0.0000      0.0599     -0.0000
        30        -0.1868      0.4446     -0.1567      0.0000     -0.0000     -0.0000
 <0|del|b> * <b|rxdel|0> + <0|del|b> * <b|delr+rdel|0>
 Rotatory Strengths (R) in cgs (10**-40 erg-esu-cm/Gauss)
       state          XX          YY          ZZ    R(velocity)    E-M Angle
         1         0.0000      0.0000     -0.0000      0.0000       90.00
         2         0.0000      0.0000     -0.0000     -0.0000       90.00
         3         0.0000      0.0000      0.0000      0.0000       90.00
         4         0.0000     -0.0000      0.0000     -0.0000       90.00
         5        -0.0000      0.0000     -0.0000     -0.0000       90.00
         6        -0.0000      0.0000     -0.0000      0.0000       90.00
         7        -0.0000      0.0000      0.0000     -0.0000       90.00
         8        -0.0000     -0.0000      0.0000     -0.0000       90.00
         9         0.0000      0.0000      0.0000      0.0000       90.00
        10         0.0000     -0.0000     -0.0000     -0.0000       90.00
        11        -0.0000      0.0000      0.0000      0.0000       90.00
        12        -0.0000      0.0000     -0.0000     -0.0000       90.00
        13        -0.0000      0.0000     -0.0000     -0.0000       90.00
        14        -0.0000      0.0000     -0.0000      0.0000       90.00
        15        -0.0000     -0.0000     -0.0000     -0.0000       90.00
        16         0.0000      0.0000     -0.0000      0.0000       90.00
        17        -0.0000      0.0000      0.0000     -0.0000       90.00
        18         0.0000     -0.0000      0.0000     -0.0000       90.00
        19        -0.0000     -0.0000     -0.0000     -0.0000       90.00
        20         0.0000     -0.0000      0.0000      0.0000       90.00
        21        -0.0000      0.0000     -0.0000     -0.0000       90.00
        22        -0.0000      0.0000      0.0000      0.0000       90.00
        23         0.0000     -0.0000     -0.0000     -0.0000       90.00
        24         0.0000     -0.0000      0.0000     -0.0000       90.00
        25         0.0000     -0.0000     -0.0000     -0.0000       90.00
        26        -0.0000      0.0000     -0.0000     -0.0000       90.00
        27         0.0000     -0.0000     -0.0000     -0.0000       90.00
        28         0.0000     -0.0000      0.0000      0.0000       90.00
        29        -0.0000     -0.0000     -0.0000     -0.0000       90.00
        30        -0.0000      0.0000     -0.0000      0.0000       90.00
 1/2[<0|r|b>*<b|rxdel|0> + (<0|rxdel|b>*<b|r|0>)*]
 Rotatory Strengths (R) in cgs (10**-40 erg-esu-cm/Gauss)
       state          XX          YY          ZZ     R(length)
         1         0.0000     -0.0000      0.0000      0.0000
         2        -0.0000      0.0000     -0.0000      0.0000
         3         0.0000      0.0000     -0.0000      0.0000
         4         0.0000     -0.0000     -0.0000     -0.0000
         5         0.0000     -0.0000      0.0000     -0.0000
         6         0.0000     -0.0000      0.0000      0.0000
         7         0.0000      0.0000      0.0000      0.0000
         8         0.0000      0.0000     -0.0000     -0.0000
         9         0.0000      0.0000     -0.0000      0.0000
        10        -0.0000      0.0000      0.0000     -0.0000
        11         0.0000     -0.0000     -0.0000      0.0000
        12        -0.0000     -0.0000     -0.0000     -0.0000
        13        -0.0000      0.0000     -0.0000     -0.0000
        14        -0.0000      0.0000      0.0000      0.0000
        15        -0.0000      0.0000     -0.0000     -0.0000
        16         0.0000     -0.0000      0.0000      0.0000
        17         0.0000      0.0000     -0.0000     -0.0000
        18        -0.0000      0.0000     -0.0000     -0.0000
        19        -0.0000     -0.0000      0.0000     -0.0000
        20         0.0000      0.0000     -0.0000      0.0000
        21        -0.0000     -0.0000     -0.0000     -0.0000
        22         0.0000     -0.0000     -0.0000      0.0000
        23        -0.0000      0.0000      0.0000     -0.0000
        24        -0.0000      0.0000     -0.0000     -0.0000
        25        -0.0000      0.0000     -0.0000     -0.0000
        26         0.0000     -0.0000     -0.0000     -0.0000
        27         0.0000     -0.0000     -0.0000     -0.0000
        28        -0.0000      0.0000      0.0000      0.0000
        29        -0.0000     -0.0000      0.0000     -0.0000
        30         0.0000     -0.0000      0.0000      0.0000
  1/2[<0|del|b>*<b|r|0> + (<0|r|b>*<b|del|0>)*] (Au)
       state          X           Y           Z        Dip. S.   Osc.(frdel)
         1        -0.0000     -0.0000     -0.0000      0.0000      0.0000
         2        -0.0000     -0.0292      0.0000      0.0292      0.0194
         3        -0.0000     -0.0440     -0.0000      0.0440      0.0293
         4        -0.0000     -0.0000     -0.0389      0.0389      0.0259
         5        -0.0031     -0.0000     -0.0000      0.0031      0.0020
         6        -0.0000     -0.0000     -0.2322      0.2322      0.1548
         7        -0.0000     -0.0000      0.0000      0.0000      0.0000
         8        -0.0000     -0.0000     -0.0000      0.0000      0.0000
         9        -0.0604     -0.0000     -0.0000      0.0604      0.0403
        10        -0.0000     -0.1053      0.0000      0.1053      0.0702
        11        -0.0894     -0.0000      0.0000      0.0894      0.0596
        12        -0.0000      0.0000     -0.0000      0.0000      0.0000
        13        -0.0000     -0.0000     -0.0173      0.0173      0.0115
        14        -0.0000     -0.0000     -0.0002      0.0002      0.0001
        15        -0.0000     -0.0004     -0.0000      0.0004      0.0003
        16         0.0000      0.0000     -0.0761      0.0761      0.0507
        17        -0.0000     -0.0000     -0.5182      0.5182      0.3455
        18        -0.0000     -0.0000     -0.0000      0.0000      0.0000
        19        -0.0000     -0.0598     -0.0000      0.0598      0.0399
        20        -0.0000     -0.1646     -0.0000      0.1646      0.1097
        21        -0.0273     -0.0000     -0.0000      0.0273      0.0182
        22        -0.0187     -0.0000     -0.0000      0.0187      0.0125
        23        -0.0000     -0.0022     -0.0000      0.0022      0.0015
        24        -0.0000     -0.0000     -0.1053      0.1053      0.0702
        25        -0.0000     -0.0541     -0.0000      0.0541      0.0361
        26        -0.0000     -0.0000     -0.0000      0.0000      0.0000
        27        -0.0000     -0.0000     -0.0078      0.0078      0.0052
        28        -0.0000     -0.0000     -0.0000      0.0000      0.0000
        29        -0.0002     -0.0000     -0.0000      0.0002      0.0001
        30        -0.0000     -0.0000     -0.0489      0.0489      0.0326

 Excitation energies and oscillator strengths:
 
 Excited State   1:      Singlet-A2     3.3683 eV  368.09 nm  f=0.0000  <S**2>=0.000
       3 -> 27         0.00214
       3 -> 38         0.00178
       3 -> 45         0.00277
       4 -> 27         0.00152
       4 -> 38        -0.00043
       4 -> 45        -0.00139
       5 ->  9         0.01873
       5 -> 13        -0.00141
       5 -> 17         0.00503
       5 -> 23         0.00065
       5 -> 29         0.00426
       5 -> 31        -0.00152
       5 -> 37         0.00289
       5 -> 44         0.00055
       5 -> 48         0.00014
       5 -> 52         0.00067
       6 -> 27        -0.00034
       6 -> 38        -0.00088
       6 -> 45         0.00175
       7 -> 12        -0.00063
       7 -> 15         0.00339
       7 -> 18        -0.00315
       7 -> 22         0.00026
       7 -> 25         0.00139
       7 -> 30        -0.00105
       7 -> 33         0.00045
       7 -> 35         0.00016
       7 -> 40         0.00015
       7 -> 42        -0.00012
       7 -> 49         0.00023
       7 -> 50         0.00031
       7 -> 53         0.00048
       8 ->  9         0.70633
       8 -> 13        -0.03184
       8 -> 17         0.02255
       8 -> 23        -0.00861
       8 -> 29         0.01008
       8 -> 31        -0.00154
       8 -> 37         0.00030
       8 -> 48        -0.00027
       8 -> 52         0.00180
       3 <- 27         0.00132
       3 <- 38         0.00144
       3 <- 45         0.00285
       4 <- 27         0.00229
       4 <- 38         0.00012
       4 <- 45        -0.00115
       5 <-  9        -0.00055
       5 <- 13        -0.00077
       5 <- 17        -0.00100
       5 <- 23         0.00049
       5 <- 29        -0.00071
       5 <- 31         0.00072
       5 <- 37         0.00144
       5 <- 44         0.00020
       5 <- 48         0.00013
       5 <- 52         0.00018
       6 <- 27         0.00027
       6 <- 38        -0.00077
       6 <- 45         0.00137
       7 <- 12        -0.00057
       7 <- 15        -0.00811
       7 <- 18         0.00111
       7 <- 22         0.00747
       7 <- 25         0.00011
       7 <- 30         0.00400
       7 <- 33        -0.00118
       7 <- 35         0.00210
       7 <- 40         0.00089
       7 <- 50         0.00021
       7 <- 53         0.00136
       8 <-  9        -0.02923
       8 <- 13         0.00223
       8 <- 17        -0.00484
       8 <- 23         0.00074
       8 <- 29        -0.00133
       8 <- 31        -0.00060
       8 <- 37        -0.00114
       8 <- 52         0.00051
 This state for optimization and/or second-order correction.
 Total Energy, E(TD-HF/TD-DFT) =  -114.404496208    
 Copying the excited state density for this state as the 1-particle RhoCI density.
 
 Excited State   2:      Singlet-B2     6.9429 eV  178.58 nm  f=0.0190  <S**2>=0.000
       3 -> 12         0.00167
       3 -> 15         0.00064
       3 -> 18         0.00130
       3 -> 22        -0.00034
       3 -> 25         0.00120
       3 -> 33         0.00025
       3 -> 35        -0.00052
       3 -> 40        -0.00022
       3 -> 49         0.00015
       4 -> 12        -0.00248
       4 -> 15         0.00205
       4 -> 18         0.00183
       4 -> 22        -0.00321
       4 -> 25         0.00307
       4 -> 30         0.00034
       4 -> 33        -0.00030
       4 -> 35         0.00043
       4 -> 40         0.00043
       4 -> 42        -0.00013
       5 -> 10        -0.00826
       5 -> 11        -0.00683
       5 -> 14         0.00712
       5 -> 16        -0.00063
       5 -> 19        -0.00281
       5 -> 20         0.00267
       5 -> 21         0.00575
       5 -> 24        -0.00064
       5 -> 26         0.00208
       5 -> 28         0.00098
       5 -> 32        -0.00106
       5 -> 34        -0.00098
       5 -> 36        -0.00018
       5 -> 39        -0.00023
       5 -> 41        -0.00049
       5 -> 43        -0.00047
       5 -> 46        -0.00019
       5 -> 54         0.00012
       6 -> 12        -0.00085
       6 -> 15         0.00140
       6 -> 18         0.00116
       6 -> 22        -0.00222
       6 -> 25         0.00094
       6 -> 30        -0.00052
       6 -> 33        -0.00029
       6 -> 35         0.00062
       6 -> 42        -0.00016
       6 -> 49         0.00042
       6 -> 50        -0.00021
       7 -> 38        -0.00068
       7 -> 45         0.00016
       8 -> 10         0.70265
       8 -> 11        -0.07312
       8 -> 14         0.02029
       8 -> 16        -0.00378
       8 -> 20         0.01760
       8 -> 21        -0.00229
       8 -> 26         0.00299
       8 -> 28         0.00111
       8 -> 32         0.00094
       8 -> 34         0.00070
       8 -> 36         0.00029
       8 -> 39         0.00031
       8 -> 41        -0.00025
       8 -> 43         0.00059
       8 -> 46        -0.00033
       8 -> 47         0.00017
       8 -> 51        -0.00017
       8 -> 54         0.00022
       3 <- 12         0.00037
       3 <- 15         0.00051
       3 <- 18         0.00049
       3 <- 22        -0.00052
       3 <- 25         0.00065
       3 <- 30        -0.00010
       3 <- 33         0.00022
       3 <- 35        -0.00046
       3 <- 40        -0.00023
       3 <- 49         0.00020
       4 <- 12         0.00078
       4 <- 15         0.00197
       4 <- 18         0.00174
       4 <- 22        -0.00202
       4 <- 25         0.00207
       4 <- 30         0.00024
       4 <- 33        -0.00013
       4 <- 35         0.00018
       4 <- 40         0.00011
       4 <- 42        -0.00022
       4 <- 50        -0.00014
       5 <- 10         0.00225
       5 <- 11        -0.00023
       5 <- 14         0.00459
       5 <- 16        -0.00052
       5 <- 19        -0.00040
       5 <- 20         0.00073
       5 <- 21         0.00166
       5 <- 24        -0.00215
       5 <- 26         0.00141
       5 <- 28         0.00011
       5 <- 32        -0.00079
       5 <- 34        -0.00087
       5 <- 36        -0.00023
       5 <- 39        -0.00013
       5 <- 41        -0.00031
       5 <- 43        -0.00037
       5 <- 46        -0.00017
       6 <- 15        -0.00029
       6 <- 18         0.00094
       6 <- 22        -0.00042
       6 <- 25         0.00031
       6 <- 30         0.00038
       6 <- 33        -0.00034
       6 <- 35         0.00065
       6 <- 42        -0.00014
       6 <- 49         0.00034
       6 <- 50        -0.00023
       6 <- 53         0.00017
       7 <- 38        -0.00051
       7 <- 45         0.00017
       8 <- 10        -0.00142
       8 <- 11        -0.00064
       8 <- 14        -0.00422
       8 <- 16        -0.00058
       8 <- 19         0.00045
       8 <- 20        -0.00072
       8 <- 21        -0.00143
       8 <- 24         0.00174
       8 <- 26        -0.00088
       8 <- 28        -0.00040
       8 <- 32         0.00088
       8 <- 36         0.00031
       8 <- 39         0.00019
       8 <- 43         0.00036
       8 <- 46        -0.00016
 
 Excited State   3:      Singlet-B2     7.6749 eV  161.55 nm  f=0.0282  <S**2>=0.000
       3 -> 12        -0.00035
       3 -> 15        -0.00108
       3 -> 18         0.00122
       3 -> 22         0.00052
       3 -> 30         0.00266
       3 -> 33         0.00016
       3 -> 35        -0.00070
       3 -> 40        -0.00058
       3 -> 49         0.00067
       3 -> 50        -0.00017
       4 -> 12         0.00234
       4 -> 15         0.00053
       4 -> 18         0.00165
       4 -> 22        -0.00149
       4 -> 25         0.00270
       4 -> 30        -0.00146
       4 -> 33         0.00048
       4 -> 35        -0.00060
       4 -> 49         0.00022
       5 -> 10        -0.00488
       5 -> 11        -0.00015
       5 -> 14         0.01028
       5 -> 16        -0.00663
       5 -> 20        -0.00466
       5 -> 21         0.00283
       5 -> 24        -0.00073
       5 -> 26         0.00173
       5 -> 28         0.00153
       5 -> 34        -0.00076
       5 -> 36        -0.00045
       5 -> 39         0.00049
       5 -> 41        -0.00065
       5 -> 43         0.00021
       5 -> 46         0.00092
       5 -> 51        -0.00044
       6 -> 12        -0.00272
       6 -> 15        -0.00129
       6 -> 18        -0.00072
       6 -> 22         0.00104
       6 -> 25         0.00017
       6 -> 30         0.00121
       6 -> 33        -0.00055
       6 -> 35         0.00149
       6 -> 40         0.00117
       6 -> 49        -0.00135
       6 -> 50         0.00026
       6 -> 53         0.00012
       7 -> 27         0.00031
       7 -> 38        -0.00079
       7 -> 45        -0.00213
       8 -> 10         0.07305
       8 -> 11         0.70213
       8 -> 14         0.00066
       8 -> 16         0.00843
       8 -> 19        -0.03758
       8 -> 20        -0.00345
       8 -> 21        -0.00258
       8 -> 24         0.00077
       8 -> 26        -0.00038
       8 -> 28         0.00251
       8 -> 32         0.00010
       8 -> 34        -0.00021
       8 -> 36        -0.00030
       8 -> 39        -0.00027
       8 -> 41        -0.00105
       8 -> 43         0.00040
       8 -> 46         0.00255
       8 -> 51        -0.00116
       3 <- 12         0.00034
       3 <- 15        -0.00035
       3 <- 18         0.00106
       3 <- 25         0.00018
       3 <- 30         0.00141
       3 <- 33         0.00027
       3 <- 35        -0.00070
       3 <- 40        -0.00054
       3 <- 49         0.00061
       3 <- 50        -0.00012
       3 <- 53        -0.00035
       4 <- 12         0.00028
       4 <- 15         0.00089
       4 <- 18         0.00033
       4 <- 22        -0.00118
       4 <- 25         0.00117
       4 <- 30        -0.00079
       4 <- 33         0.00046
       4 <- 35        -0.00033
       4 <- 49         0.00017
       5 <- 10         0.00115
       5 <- 11        -0.00143
       5 <- 14         0.00276
       5 <- 16        -0.00043
       5 <- 19         0.00161
       5 <- 20        -0.00033
       5 <- 21         0.00087
       5 <- 24        -0.00142
       5 <- 26         0.00016
       5 <- 28         0.00063
       5 <- 32        -0.00081
       5 <- 34         0.00013
       5 <- 36         0.00011
       5 <- 39         0.00012
       5 <- 41        -0.00068
       5 <- 43         0.00012
       5 <- 46         0.00089
       5 <- 51        -0.00030
       6 <- 12        -0.00026
       6 <- 15        -0.00121
       6 <- 18         0.00045
       6 <- 22         0.00101
       6 <- 25        -0.00015
       6 <- 30         0.00129
       6 <- 33        -0.00049
       6 <- 35         0.00133
       6 <- 40         0.00095
       6 <- 49        -0.00111
       6 <- 50         0.00019
       7 <- 27         0.00041
       7 <- 38        -0.00063
       7 <- 45        -0.00177
       8 <- 10        -0.00091
       8 <- 11        -0.00224
       8 <- 14        -0.00365
       8 <- 16         0.00038
       8 <- 19         0.00569
       8 <- 20         0.00066
       8 <- 21        -0.00192
       8 <- 24        -0.00051
       8 <- 26        -0.00165
       8 <- 28         0.00069
       8 <- 32        -0.00135
       8 <- 34         0.00171
       8 <- 39        -0.00078
       8 <- 41        -0.00100
       8 <- 43         0.00018
       8 <- 46         0.00205
       8 <- 47        -0.00029
       8 <- 51        -0.00076
 
 Excited State   4:      Singlet-A1     7.9643 eV  155.67 nm  f=0.0263  <S**2>=0.000
       3 -> 10         0.00264
       3 -> 11         0.00087
       3 -> 14         0.00195
       3 -> 16        -0.00014
       3 -> 19        -0.00438
       3 -> 20         0.00233
       3 -> 21         0.00158
       3 -> 24         0.00138
       3 -> 26         0.00202
       3 -> 28         0.00092
       3 -> 32         0.00043
       3 -> 34        -0.00120
       3 -> 36        -0.00029
       3 -> 39         0.00020
       3 -> 41        -0.00017
       3 -> 43         0.00014
       3 -> 46         0.00035
       3 -> 47        -0.00024
       3 -> 51        -0.00012
       3 -> 54        -0.00013
       4 -> 10         0.00693
       4 -> 11         0.00272
       4 -> 14         0.00548
       4 -> 16         0.00084
       4 -> 19         0.00105
       4 -> 20         0.00337
       4 -> 21        -0.00086
       4 -> 24        -0.00713
       4 -> 26         0.00278
       4 -> 28        -0.00016
       4 -> 32        -0.00069
       4 -> 34         0.00058
       4 -> 36         0.00016
       4 -> 43         0.00016
       4 -> 46        -0.00025
       4 -> 47        -0.00017
       4 -> 51        -0.00012
       5 -> 12         0.00764
       5 -> 15         0.00647
       5 -> 18         0.00853
       5 -> 22        -0.00274
       5 -> 25         0.00651
       5 -> 30        -0.00068
       5 -> 33        -0.00045
       5 -> 35         0.00080
       5 -> 40         0.00021
       5 -> 53        -0.00014
       6 -> 10         0.00736
       6 -> 11        -0.00571
       6 -> 14         0.00255
       6 -> 16        -0.00328
       6 -> 19         0.00822
       6 -> 20        -0.00282
       6 -> 21        -0.00454
       6 -> 24        -0.00714
       6 -> 26        -0.00178
       6 -> 28        -0.00335
       6 -> 32        -0.00019
       6 -> 34        -0.00045
       6 -> 36         0.00020
       6 -> 39         0.00025
       6 -> 43         0.00019
       6 -> 47         0.00084
       6 -> 51         0.00024
       6 -> 54        -0.00014
       7 ->  9         0.08856
       7 -> 13         0.01520
       7 -> 17        -0.00262
       7 -> 23         0.00564
       7 -> 29        -0.00147
       7 -> 31        -0.00110
       7 -> 37         0.00057
       7 -> 44         0.00052
       7 -> 48        -0.00026
       8 -> 12         0.70030
       8 -> 15         0.01773
       8 -> 18         0.02653
       8 -> 22        -0.00250
       8 -> 25         0.00554
       8 -> 30        -0.00243
       8 -> 33         0.00222
       8 -> 35        -0.00259
       8 -> 49        -0.00043
       8 -> 50         0.00025
       8 -> 53        -0.00034
       3 <- 10         0.00086
       3 <- 11         0.00112
       3 <- 14         0.00107
       3 <- 16         0.00016
       3 <- 19        -0.00259
       3 <- 20         0.00105
       3 <- 21         0.00113
       3 <- 24         0.00061
       3 <- 26         0.00139
       3 <- 28         0.00062
       3 <- 32         0.00051
       3 <- 34        -0.00080
       3 <- 36        -0.00019
       3 <- 39         0.00015
       3 <- 43         0.00013
       3 <- 46         0.00043
       3 <- 47        -0.00015
       3 <- 54        -0.00012
       4 <- 10         0.00453
       4 <- 11         0.00022
       4 <- 14         0.00358
       4 <- 16         0.00011
       4 <- 19         0.00043
       4 <- 20         0.00192
       4 <- 21        -0.00063
       4 <- 24        -0.00385
       4 <- 26         0.00170
       4 <- 32        -0.00093
       4 <- 34         0.00011
       4 <- 41        -0.00016
       4 <- 43         0.00012
       4 <- 46        -0.00014
       4 <- 47        -0.00016
       5 <- 12         0.00334
       5 <- 15         0.00401
       5 <- 18         0.00313
       5 <- 22        -0.00109
       5 <- 25         0.00354
       5 <- 30        -0.00034
       5 <- 33        -0.00051
       5 <- 35         0.00070
       5 <- 40         0.00010
       5 <- 49         0.00010
       5 <- 53        -0.00012
       6 <- 10         0.00182
       6 <- 11        -0.00068
       6 <- 14         0.00109
       6 <- 16        -0.00110
       6 <- 19         0.00270
       6 <- 20        -0.00111
       6 <- 21        -0.00228
       6 <- 24        -0.00349
       6 <- 26        -0.00086
       6 <- 28        -0.00214
       6 <- 32        -0.00027
       6 <- 34        -0.00041
       6 <- 36         0.00013
       6 <- 39         0.00014
       6 <- 43         0.00011
       6 <- 46        -0.00016
       6 <- 47         0.00068
       6 <- 51         0.00025
       6 <- 54        -0.00012
       7 <-  9        -0.01003
       7 <- 13         0.00348
       7 <- 17        -0.00171
       7 <- 23         0.00312
       7 <- 29        -0.00127
       7 <- 31        -0.00064
       7 <- 37         0.00041
       7 <- 44         0.00048
       7 <- 48        -0.00027
       8 <- 12        -0.00013
       8 <- 15        -0.00094
       8 <- 18        -0.00199
       8 <- 22        -0.00162
       8 <- 25        -0.00098
       8 <- 30        -0.00205
       8 <- 33         0.00093
       8 <- 35        -0.00108
       8 <- 40         0.00020
       8 <- 49        -0.00042
       8 <- 50         0.00016
       8 <- 53        -0.00033
 
 Excited State   5:      Singlet-B1     7.9681 eV  155.60 nm  f=0.0013  <S**2>=0.000
       3 ->  9        -0.03352
       3 -> 13         0.00448
       3 -> 17        -0.00679
       3 -> 23         0.00369
       3 -> 29        -0.00235
       3 -> 31        -0.00034
       3 -> 44         0.00060
       3 -> 48         0.00026
       3 -> 52         0.00112
       4 ->  9         0.01668
       4 -> 13        -0.00274
       4 -> 17         0.00091
       4 -> 23        -0.00249
       4 -> 31        -0.00236
       4 -> 37        -0.00043
       4 -> 48        -0.00158
       4 -> 52        -0.00094
       5 -> 27        -0.00161
       5 -> 38         0.00207
       5 -> 45         0.00260
       6 ->  9         0.70527
       6 -> 13        -0.03226
       6 -> 17         0.02201
       6 -> 23        -0.01233
       6 -> 29         0.00746
       6 -> 31         0.00384
       6 -> 37        -0.00262
       6 -> 44        -0.00352
       6 -> 48         0.00543
       6 -> 52         0.00192
       7 -> 10         0.00218
       7 -> 11         0.00615
       7 -> 14        -0.00010
       7 -> 16        -0.01221
       7 -> 19        -0.00297
       7 -> 20         0.00225
       7 -> 21         0.00335
       7 -> 24         0.00232
       7 -> 26         0.00171
       7 -> 28        -0.00473
       7 -> 32        -0.00128
       7 -> 34         0.00013
       7 -> 36        -0.00156
       7 -> 39         0.00026
       7 -> 41        -0.00196
       7 -> 43         0.00099
       7 -> 46         0.00485
       7 -> 47         0.00238
       7 -> 51         0.00111
       7 -> 54         0.00056
       8 -> 27         0.00264
       8 -> 38         0.00089
       8 -> 45         0.00677
       3 <-  9        -0.01050
       3 <- 13         0.00061
       3 <- 17        -0.00336
       3 <- 23         0.00038
       3 <- 29        -0.00144
       3 <- 31        -0.00024
       3 <- 37        -0.00015
       3 <- 44        -0.00013
       3 <- 48         0.00054
       3 <- 52         0.00091
       4 <-  9         0.00556
       4 <- 17         0.00249
       4 <- 23        -0.00030
       4 <- 29         0.00225
       4 <- 31        -0.00223
       4 <- 37         0.00014
       4 <- 44         0.00020
       4 <- 48        -0.00136
       4 <- 52        -0.00052
       5 <- 27        -0.00167
       5 <- 38         0.00157
       5 <- 45         0.00229
       6 <-  9        -0.02150
       6 <- 13         0.00294
       6 <- 17        -0.00304
       6 <- 23         0.00052
       6 <- 29        -0.00216
       6 <- 31         0.00301
       6 <- 37        -0.00263
       6 <- 44        -0.00217
       6 <- 48         0.00475
       6 <- 52         0.00070
       7 <- 10         0.00184
       7 <- 11         0.00304
       7 <- 14         0.00091
       7 <- 16         0.00057
       7 <- 19        -0.00920
       7 <- 20         0.00831
       7 <- 21         0.00707
       7 <- 24         0.00658
       7 <- 26         0.00403
       7 <- 28         0.00064
       7 <- 32        -0.00120
       7 <- 34         0.00154
       7 <- 36        -0.00249
       7 <- 39         0.00048
       7 <- 41        -0.00137
       7 <- 43         0.00096
       7 <- 46         0.00435
       7 <- 47         0.00194
       7 <- 51         0.00077
       7 <- 54         0.00103
       8 <- 27         0.00240
       8 <- 38         0.00091
       8 <- 45         0.00596
 
 Excited State   6:      Singlet-A1     8.1950 eV  151.29 nm  f=0.1620  <S**2>=0.000
       3 -> 10         0.00436
       3 -> 11         0.01333
       3 -> 14         0.00620
       3 -> 16        -0.00150
       3 -> 19        -0.02234
       3 -> 20         0.00551
       3 -> 21         0.00750
       3 -> 24         0.00766
       3 -> 26         0.00994
       3 -> 28         0.00218
       3 -> 32         0.00331
       3 -> 34        -0.00370
       3 -> 36        -0.00245
       3 -> 39         0.00161
       3 -> 41         0.00029
       3 -> 43         0.00082
       3 -> 46         0.00180
       3 -> 47         0.00059
       3 -> 54         0.00030
       4 -> 10         0.03029
       4 -> 11        -0.01260
       4 -> 14         0.01727
       4 -> 16         0.00102
       4 -> 19         0.00974
       4 -> 20         0.00938
       4 -> 21         0.00095
       4 -> 24        -0.00806
       4 -> 26         0.00583
       4 -> 28         0.00075
       4 -> 32        -0.00131
       4 -> 34         0.00333
       4 -> 36         0.00086
       4 -> 39        -0.00020
       4 -> 46        -0.00087
       4 -> 47        -0.00144
       5 -> 12         0.03687
       5 -> 15         0.03880
       5 -> 18         0.00234
       5 -> 22        -0.00072
       5 -> 25         0.01462
       5 -> 30        -0.00416
       5 -> 33        -0.00286
       5 -> 35         0.00088
       5 -> 40         0.00161
       5 -> 42         0.00082
       5 -> 49         0.00056
       5 -> 50        -0.00040
       5 -> 53        -0.00042
       6 -> 10        -0.02873
       6 -> 11        -0.04080
       6 -> 14        -0.01315
       6 -> 16        -0.02995
       6 -> 19         0.07015
       6 -> 20        -0.05088
       6 -> 21        -0.03294
       6 -> 24        -0.02928
       6 -> 26        -0.01600
       6 -> 28        -0.01199
       6 -> 32        -0.00017
       6 -> 34        -0.00366
       6 -> 36         0.00289
       6 -> 39        -0.00014
       6 -> 41        -0.00124
       6 -> 43         0.00021
       6 -> 46         0.00087
       6 -> 47         0.00161
       6 -> 51         0.00063
       6 -> 54        -0.00014
       7 ->  9         0.67091
       7 -> 13         0.03382
       7 -> 17        -0.02878
       7 -> 23         0.00897
       7 -> 29        -0.00578
       7 -> 31        -0.00057
       7 -> 37        -0.00020
       7 -> 44        -0.00076
       7 -> 48         0.00060
       7 -> 52         0.00099
       8 -> 12        -0.09059
       8 -> 15         0.16768
       8 -> 18        -0.02971
       8 -> 22        -0.05434
       8 -> 25         0.00434
       8 -> 30        -0.01502
       8 -> 33         0.00661
       8 -> 35        -0.00807
       8 -> 40        -0.00317
       8 -> 42        -0.00041
       8 -> 49         0.00064
       8 -> 50         0.00043
       8 -> 53        -0.00106
       3 <- 10         0.00213
       3 <- 11         0.00733
       3 <- 14         0.00424
       3 <- 16        -0.00029
       3 <- 19        -0.01380
       3 <- 20         0.00379
       3 <- 21         0.00592
       3 <- 24         0.00534
       3 <- 26         0.00644
       3 <- 28         0.00157
       3 <- 32         0.00284
       3 <- 34        -0.00226
       3 <- 36        -0.00171
       3 <- 39         0.00119
       3 <- 41         0.00018
       3 <- 43         0.00077
       3 <- 46         0.00190
       3 <- 47         0.00083
       3 <- 54         0.00030
       4 <- 10         0.01002
       4 <- 11        -0.00470
       4 <- 14         0.00640
       4 <- 16         0.00013
       4 <- 19         0.00512
       4 <- 20         0.00500
       4 <- 21         0.00031
       4 <- 24        -0.00449
       4 <- 26         0.00389
       4 <- 32        -0.00167
       4 <- 34         0.00246
       4 <- 36         0.00050
       4 <- 39        -0.00016
       4 <- 41        -0.00016
       4 <- 46        -0.00033
       4 <- 47        -0.00134
       4 <- 51         0.00022
       5 <- 12         0.00890
       5 <- 15         0.01267
       5 <- 18         0.00135
       5 <- 22        -0.00043
       5 <- 25         0.00762
       5 <- 30        -0.00233
       5 <- 33        -0.00194
       5 <- 35         0.00079
       5 <- 40         0.00134
       5 <- 42         0.00061
       5 <- 49         0.00045
       5 <- 50        -0.00036
       5 <- 53        -0.00035
       6 <- 10        -0.00488
       6 <- 11        -0.00738
       6 <- 14        -0.00334
       6 <- 16        -0.00915
       6 <- 19         0.02422
       6 <- 20        -0.02003
       6 <- 21        -0.01477
       6 <- 24        -0.01488
       6 <- 26        -0.00908
       6 <- 28        -0.00711
       6 <- 32         0.00015
       6 <- 34        -0.00288
       6 <- 36         0.00196
       6 <- 41        -0.00082
       6 <- 43         0.00018
       6 <- 46         0.00040
       6 <- 47         0.00133
       6 <- 51         0.00043
       7 <-  9        -0.08688
       7 <- 13         0.01351
       7 <- 17        -0.01408
       7 <- 23         0.00812
       7 <- 29        -0.00605
       7 <- 31         0.00066
       7 <- 37        -0.00043
       7 <- 44        -0.00024
       7 <- 52         0.00080
       8 <- 12         0.00097
       8 <- 15         0.02583
       8 <- 18        -0.00518
       8 <- 22        -0.01970
       8 <- 25         0.00158
       8 <- 30        -0.00864
       8 <- 33         0.00429
       8 <- 35        -0.00546
       8 <- 40        -0.00241
       8 <- 42        -0.00033
       8 <- 49         0.00043
       8 <- 50         0.00033
       8 <- 53        -0.00091
 
 Excited State   7:      Singlet-A2     8.4916 eV  146.01 nm  f=0.0000  <S**2>=0.000
       3 -> 27        -0.00036
       3 -> 38        -0.00031
       3 -> 45        -0.00011
       4 -> 38         0.00041
       5 ->  9         0.00585
       5 -> 13        -0.00662
       5 -> 17         0.00659
       5 -> 23        -0.00244
       5 -> 29        -0.00026
       5 -> 31         0.00110
       5 -> 37        -0.00083
       5 -> 44        -0.00019
       6 -> 27         0.00021
       6 -> 38         0.00032
       6 -> 45        -0.00011
       7 -> 12         0.00082
       7 -> 15        -0.00189
       7 -> 18         0.00202
       7 -> 22        -0.00083
       7 -> 30        -0.00011
       7 -> 35        -0.00012
       8 ->  9         0.03100
       8 -> 13         0.70574
       8 -> 17         0.02450
       8 -> 23         0.01511
       8 -> 29         0.00019
       8 -> 31         0.00185
       8 -> 37        -0.00043
       8 -> 48         0.00016
       3 <- 38        -0.00017
       3 <- 45        -0.00017
       4 <- 27        -0.00013
       5 <-  9        -0.00055
       5 <- 13        -0.00027
       5 <- 17         0.00041
       5 <- 37        -0.00020
       6 <- 38         0.00019
       7 <- 12        -0.00047
       7 <- 15        -0.00115
       7 <- 18         0.00082
       7 <- 22        -0.00079
       7 <- 25        -0.00044
       7 <- 30         0.00025
       7 <- 33         0.00031
       7 <- 35        -0.00050
       7 <- 40        -0.00032
       8 <-  9         0.00086
       8 <- 13         0.00106
       8 <- 17         0.00023
       8 <- 29        -0.00012
 
 Excited State   8:      Singlet-A2     9.1238 eV  135.89 nm  f=0.0000  <S**2>=0.000
       3 -> 27        -0.00104
       3 -> 38        -0.00048
       3 -> 45         0.00062
       4 -> 27        -0.00581
       4 -> 38         0.00054
       4 -> 45        -0.00068
       5 ->  9         0.70503
       5 -> 13        -0.03815
       5 -> 17         0.01207
       5 -> 23        -0.01480
       5 -> 29         0.00250
       5 -> 31        -0.00035
       5 -> 37        -0.00527
       5 -> 44        -0.00196
       5 -> 48        -0.00018
       5 -> 52         0.00037
       6 -> 27        -0.00146
       6 -> 38         0.00180
       6 -> 45         0.00066
       7 -> 12         0.01715
       7 -> 15         0.01470
       7 -> 18         0.00117
       7 -> 22        -0.00554
       7 -> 25         0.00092
       7 -> 30        -0.00115
       7 -> 35        -0.00073
       7 -> 40        -0.00023
       7 -> 42        -0.00022
       7 -> 49        -0.00035
       7 -> 50        -0.00068
       7 -> 53         0.00013
       8 ->  9        -0.01966
       8 -> 13        -0.00606
       8 -> 17         0.01500
       8 -> 23         0.00247
       8 -> 29         0.00321
       8 -> 31         0.00048
       8 -> 37         0.00366
       8 -> 44         0.00032
       8 -> 48         0.00016
       8 -> 52         0.00064
       3 <- 27        -0.00146
       3 <- 38        -0.00062
       3 <- 45         0.00082
       4 <- 27        -0.00458
       4 <- 38         0.00051
       4 <- 45        -0.00019
       5 <-  9        -0.01005
       5 <- 13         0.00208
       5 <- 17        -0.00088
       5 <- 29         0.00078
       5 <- 31        -0.00243
       5 <- 37        -0.00298
       5 <- 44        -0.00033
       5 <- 48        -0.00029
       5 <- 52         0.00013
       6 <- 27        -0.00154
       6 <- 38         0.00123
       6 <- 45         0.00042
       7 <- 12        -0.00171
       7 <- 15        -0.00183
       7 <- 22        -0.00196
       7 <- 25        -0.00248
       7 <- 30         0.00078
       7 <- 33         0.00046
       7 <- 35        -0.00075
       7 <- 40        -0.00058
       7 <- 42        -0.00047
       7 <- 49        -0.00052
       7 <- 50        -0.00076
       7 <- 53         0.00042
       8 <-  9         0.00024
       8 <- 13        -0.00045
       8 <- 17        -0.00160
       8 <- 23         0.00053
       8 <- 29        -0.00236
       8 <- 31         0.00239
       8 <- 37         0.00146
       8 <- 44        -0.00012
       8 <- 48         0.00013
       8 <- 52         0.00013
 
 Excited State   9:      Singlet-B1     9.5683 eV  129.58 nm  f=0.0392  <S**2>=0.000
       3 ->  9         0.00365
       3 -> 13         0.00124
       3 -> 17         0.00051
       3 -> 23        -0.00043
       3 -> 29        -0.00022
       3 -> 31        -0.00033
       3 -> 44        -0.00041
       3 -> 48         0.00025
       3 -> 52        -0.00015
       4 ->  9         0.01494
       4 -> 13        -0.00080
       4 -> 17        -0.00013
[...]
  46        4PY         0.00000   0.00000  -0.03334  -0.07915  -0.11358
  47        4PZ        -0.00300   0.00000   0.01322   0.02000   0.01149
  48        5S         -0.00160   0.00000   0.00504   0.00817   0.00639
  49        5PX        -0.00000  -0.00000   0.00000   0.00000   0.00000
  50        5PY         0.00000   0.00000  -0.01761  -0.03244  -0.03024
  51        5PZ        -0.00022   0.00000   0.00251   0.00327   0.00046
  52        6D 0        0.00031   0.00000  -0.00072  -0.00122  -0.00116
  53        6D+1       -0.00000   0.00000   0.00000   0.00000   0.00000
  54        6D-1       -0.00000   0.00000  -0.00212  -0.00202   0.00234
  55        6D+2        0.00002   0.00000  -0.00007  -0.00007  -0.00001
  56        6D-2        0.00000   0.00000   0.00000   0.00000   0.00000
                          26        27        28        29        30
  26        4PX         0.00024
  27        4PY         0.00000   0.00110
  28        4PZ         0.00000  -0.00047   0.00047
  29 3   H  1S          0.00000  -0.00207  -0.00229   0.07975
  30        2S          0.00000  -0.00231  -0.00363   0.11521   0.17077
  31        3S          0.00000   0.00000  -0.00186   0.04440   0.07631
  32        4PX         0.00024   0.00000   0.00000   0.00000   0.00000
  33        4PY         0.00000  -0.00053  -0.00007   0.00791   0.01034
  34        4PZ         0.00000   0.00007  -0.00008   0.00440   0.00609
  35 4   O  1S          0.00000  -0.00014  -0.00083   0.00225   0.00163
  36        2S          0.00000  -0.00037  -0.00097   0.00376   0.00319
  37        2PX         0.00516   0.00000   0.00000   0.00000   0.00000
  38        2PY         0.00000  -0.00323   0.00151   0.01978   0.05220
  39        2PZ         0.00000  -0.00128  -0.00363   0.01263   0.01976
  40        3S          0.00000   0.00171   0.00156  -0.01261  -0.01261
  41        3PX         0.00761   0.00000   0.00000   0.00000   0.00000
  42        3PY         0.00000  -0.00475   0.00226   0.02781   0.07436
  43        3PZ         0.00000  -0.00183  -0.00521   0.01804   0.02820
  44        4S          0.00000   0.00111  -0.00117  -0.00563  -0.00209
  45        4PX         0.00637   0.00000   0.00000   0.00000   0.00000
  46        4PY         0.00000  -0.00363   0.00137   0.03334   0.07915
  47        4PZ         0.00000  -0.00150  -0.00289   0.01322   0.02000
  48        5S          0.00000  -0.00041  -0.00188   0.00504   0.00817
  49        5PX         0.00062   0.00000   0.00000   0.00000   0.00000
  50        5PY         0.00000   0.00002  -0.00054   0.01761   0.03244
  51        5PZ         0.00000  -0.00041   0.00008   0.00251   0.00327
  52        6D 0        0.00000   0.00004   0.00038  -0.00072  -0.00122
  53        6D+1       -0.00048   0.00000   0.00000   0.00000   0.00000
  54        6D-1        0.00000   0.00039  -0.00032   0.00212   0.00202
  55        6D+2        0.00000   0.00001   0.00001  -0.00007  -0.00007
  56        6D-2       -0.00000   0.00000   0.00000   0.00000   0.00000
                          31        32        33        34        35
  31        3S          0.06017
  32        4PX         0.00000   0.00024
  33        4PY         0.00136   0.00000   0.00110
  34        4PZ         0.00137   0.00000   0.00047   0.00047
  35 4   O  1S          0.00067   0.00000   0.00014  -0.00083   0.64022
  36        2S          0.00078   0.00000   0.00037  -0.00097   0.56989
  37        2PX         0.00000   0.00516   0.00000   0.00000   0.00000
  38        2PY         0.08403   0.00000  -0.00323  -0.00151   0.00000
  39        2PZ         0.01319   0.00000   0.00128  -0.00363  -0.01156
  40        3S         -0.00137   0.00000  -0.00171   0.00156  -0.13831
  41        3PX         0.00000   0.00761   0.00000   0.00000   0.00000
  42        3PY         0.12119   0.00000  -0.00475  -0.00226   0.00000
  43        3PZ         0.01887   0.00000   0.00183  -0.00521  -0.01381
  44        4S          0.00665   0.00000  -0.00111  -0.00117  -0.13510
  45        4PX         0.00000   0.00637   0.00000   0.00000   0.00000
  46        4PY         0.11358   0.00000  -0.00363  -0.00137   0.00000
  47        4PZ         0.01149   0.00000   0.00150  -0.00289  -0.01228
  48        5S          0.00639   0.00000   0.00041  -0.00188   0.00123
  49        5PX         0.00000   0.00062   0.00000   0.00000   0.00000
  50        5PY         0.03024   0.00000   0.00002   0.00054   0.00000
  51        5PZ         0.00046   0.00000   0.00041   0.00008  -0.00193
  52        6D 0       -0.00116   0.00000  -0.00004   0.00038  -0.00060
  53        6D+1        0.00000  -0.00048   0.00000   0.00000   0.00000
  54        6D-1       -0.00234   0.00000   0.00039   0.00032   0.00000
  55        6D+2       -0.00001   0.00000  -0.00001   0.00001  -0.00075
  56        6D-2        0.00000   0.00000   0.00000   0.00000   0.00000
                          36        37        38        39        40
  36        2S          0.52468
  37        2PX         0.00000   0.11146
  38        2PY         0.00000   0.00000   0.18495
  39        2PZ        -0.01804  -0.00000   0.00000   0.12754
  40        3S         -0.23284   0.00000   0.00000   0.05192   0.72187
  41        3PX         0.00000   0.16416   0.00000   0.00000   0.00000
  42        3PY         0.00000   0.00000   0.26798  -0.00000  -0.00000
  43        3PZ        -0.02261  -0.00000   0.00000   0.18199   0.06884
  44        4S         -0.21060   0.00000   0.00000   0.11949   0.59944
  45        4PX         0.00000   0.13747   0.00000   0.00000   0.00000
  46        4PY         0.00000   0.00000   0.23867  -0.00000  -0.00000
  47        4PZ        -0.02073  -0.00000   0.00000   0.10976   0.06482
  48        5S         -0.00214   0.00000   0.00000   0.06233   0.02047
  49        5PX         0.00000   0.01342   0.00000   0.00000   0.00000
  50        5PY         0.00000   0.00000   0.04857  -0.00000  -0.00000
  51        5PZ        -0.00291  -0.00000   0.00000   0.00263   0.00785
  52        6D 0       -0.00108   0.00000  -0.00000  -0.01102   0.00351
  53        6D+1       -0.00000  -0.01037   0.00000  -0.00000   0.00000
  54        6D-1        0.00000   0.00000  -0.00972   0.00000  -0.00000
  55        6D+2       -0.00121  -0.00000  -0.00000   0.00024   0.00359
  56        6D-2        0.00000   0.00000   0.00000   0.00000   0.00000
                          41        42        43        44        45
  41        3PX         0.24176
  42        3PY         0.00000   0.38829
  43        3PZ        -0.00000   0.00000   0.25975
  44        4S          0.00000   0.00000   0.16634   0.54593
  45        4PX         0.20245   0.00000   0.00000   0.00000   0.16953
  46        4PY         0.00000   0.34567  -0.00000  -0.00000   0.00000
  47        4PZ        -0.00000   0.00000   0.15647   0.11827  -0.00000
  48        5S          0.00000   0.00000   0.08901   0.05447   0.00000
  49        5PX         0.01976   0.00000   0.00000   0.00000   0.01655
  50        5PY         0.00000   0.07015  -0.00000  -0.00000   0.00000
  51        5PZ        -0.00000   0.00000   0.00368   0.00753  -0.00000
  52        6D 0        0.00000  -0.00000  -0.01579  -0.00410   0.00000
  53        6D+1       -0.01527   0.00000  -0.00000   0.00000  -0.01279
  54        6D-1        0.00000  -0.01414   0.00000   0.00000   0.00000
  55        6D+2       -0.00000  -0.00000   0.00031   0.00297  -0.00000
  56        6D-2        0.00000   0.00000   0.00000   0.00000   0.00000
                          46        47        48        49        50
  46        4PY         0.30931
  47        4PZ         0.00000   0.09532
  48        5S          0.00000   0.05341   0.03068
  49        5PX         0.00000   0.00000   0.00000   0.00162
  50        5PY         0.06476  -0.00000  -0.00000   0.00000   0.01606
  51        5PZ         0.00000   0.00268   0.00109  -0.00000   0.00000
  52        6D 0       -0.00000  -0.00920  -0.00548   0.00000  -0.00000
  53        6D+1        0.00000  -0.00000  -0.00000  -0.00125   0.00000
  54        6D-1       -0.01201   0.00000   0.00000   0.00000  -0.00171
  55        6D+2       -0.00000   0.00030   0.00009   0.00000  -0.00000
  56        6D-2        0.00000   0.00000   0.00000   0.00000  -0.00000
                          51        52        53        54        55
  51        5PZ         0.00034
  52        6D 0       -0.00010   0.00106
  53        6D+1       -0.00000  -0.00000   0.00096
  54        6D-1        0.00000   0.00000   0.00000   0.00072
  55        6D+2        0.00004   0.00002   0.00000   0.00000   0.00002
  56        6D-2        0.00000   0.00000  -0.00000  -0.00000   0.00000
                          56
  56        6D-2        0.00000
          Condensed to atoms (all electrons):
               1          2          3          4
     1  C    4.882660   0.374233   0.374233   0.372744
     2  H    0.374233   0.628860  -0.086024  -0.053150
     3  H    0.374233  -0.086024   0.628860  -0.053150
     4  O    0.372744  -0.053150  -0.053150   8.001846
 Mulliken charges:
               1
     1  C   -0.003871
     2  H    0.136081
     3  H    0.136081
     4  O   -0.268291
 Sum of Mulliken charges =  -0.00000
 Mulliken charges with hydrogens summed into heavy atoms:
               1
     1  C    0.268291
     4  O   -0.268291
 Electronic spatial extent (au):  <R**2>=             65.0224
 Charge=             -0.0000 electrons
 Dipole moment (field-independent basis, Debye):
    X=             -0.0000    Y=             -0.0000    Z=             -2.9148  Tot=              2.9148
 Quadrupole moment (field-independent basis, Debye-Ang):
   XX=            -12.0495   YY=            -11.7335   ZZ=            -12.1629
   XY=              0.0000   XZ=              0.0000   YZ=              0.0000
 Traceless Quadrupole moment (field-independent basis, Debye-Ang):
   XX=             -0.0675   YY=              0.2484   ZZ=             -0.1809
   XY=              0.0000   XZ=              0.0000   YZ=              0.0000
 Octapole moment (field-independent basis, Debye-Ang**2):
  XXX=              0.0000  YYY=             -0.0000  ZZZ=             -0.5924  XYY=             -0.0000
  XXY=             -0.0000  XXZ=              0.6003  XZZ=             -0.0000  YZZ=             -0.0000
  YYZ=             -1.1223  XYZ=             -0.0000
 Hexadecapole moment (field-independent basis, Debye-Ang**3):
 XXXX=            -11.4108 YYYY=            -18.5745 ZZZZ=            -51.0692 XXXY=             -0.0000
 XXXZ=             -0.0000 YYYX=             -0.0000 YYYZ=              0.0000 ZZZX=             -0.0000
 ZZZY=              0.0000 XXYY=             -5.3520 XXZZ=            -10.5527 YYZZ=            -11.0078
 XXYZ=              0.0000 YYXZ=              0.0000 ZZXY=              0.0000
 N-N= 2.947893080031D+01 E-N=-3.277922969466D+02  KE= 1.138061175478D+02
 Symmetry A1   KE= 1.033865379658D+02
 Symmetry A2   KE= 1.393857468181D-35
 Symmetry B1   KE= 3.632031532976D+00
 Symmetry B2   KE= 6.787548049097D+00
 Leave Link  601 at Fri Sep 17 10:52:48 2021, MaxMem=   268435456 cpu:               0.1 elap:               0.1
 (Enter /software/gaussian/g16-a03/l9999.exe)
 Electronic transition elements 
                 1             2             3             4             5 
      1  -0.114404D+03 -0.114273D+03 -0.114246D+03 -0.114236D+03 -0.114235D+03
      2   0.000000D+00  0.000000D+00  0.000000D+00  0.000000D+00  0.814669D-01
      3   0.000000D+00  0.334131D+00  0.387379D+00  0.000000D+00  0.000000D+00
      4   0.000000D+00  0.000000D+00  0.000000D+00 -0.366935D+00  0.000000D+00
      5   0.000000D+00  0.000000D+00  0.000000D+00  0.000000D+00 -0.377131D-01
      6   0.000000D+00 -0.872975D-01 -0.113625D+00  0.000000D+00  0.000000D+00
      7   0.000000D+00  0.000000D+00  0.000000D+00  0.105918D+00  0.000000D+00
      8   0.000000D+00 -0.403228D+00  0.642871D+00  0.000000D+00  0.000000D+00
      9   0.000000D+00  0.000000D+00  0.000000D+00  0.000000D+00 -0.160478D+01
     10   0.117250D+01  0.000000D+00  0.000000D+00  0.000000D+00  0.000000D+00
     11   0.000000D+00  0.000000D+00  0.000000D+00 -0.670829D-02  0.000000D+00
     12   0.000000D+00  0.000000D+00  0.000000D+00 -0.243529D+00  0.000000D+00
     13   0.000000D+00  0.000000D+00  0.000000D+00 -0.275990D+00  0.000000D+00
     14  -0.748898D-01  0.000000D+00  0.000000D+00  0.000000D+00  0.000000D+00
     15   0.000000D+00  0.000000D+00  0.000000D+00  0.000000D+00 -0.296782D+00
     16   0.000000D+00  0.454576D+00 -0.519789D-01  0.000000D+00  0.000000D+00
                 6             7             8             9            10 
      1  -0.114227D+03 -0.114216D+03 -0.114193D+03 -0.114177D+03 -0.114151D+03
      2   0.000000D+00  0.000000D+00  0.000000D+00 -0.408735D+00  0.000000D+00
      3   0.000000D+00  0.000000D+00  0.000000D+00  0.000000D+00  0.529022D+00
      4   0.898231D+00  0.000000D+00  0.000000D+00  0.000000D+00  0.000000D+00
      5   0.000000D+00  0.000000D+00  0.000000D+00  0.147747D+00  0.000000D+00
      6   0.000000D+00  0.000000D+00  0.000000D+00  0.000000D+00 -0.199066D+00
      7  -0.258479D+00  0.000000D+00  0.000000D+00  0.000000D+00  0.000000D+00
      8   0.000000D+00  0.000000D+00  0.000000D+00  0.000000D+00 -0.763941D+00
      9   0.000000D+00  0.000000D+00  0.000000D+00  0.629338D-02  0.000000D+00
     10   0.000000D+00 -0.365686D-01 -0.765318D+00  0.000000D+00  0.000000D+00
     11   0.205298D+00  0.000000D+00  0.000000D+00  0.000000D+00  0.000000D+00
     12   0.710381D-02  0.000000D+00  0.000000D+00  0.000000D+00  0.000000D+00
     13  -0.140145D+00  0.000000D+00  0.000000D+00  0.000000D+00  0.000000D+00
     14   0.000000D+00 -0.433875D-01  0.207137D+00  0.000000D+00  0.000000D+00
     15   0.000000D+00  0.000000D+00  0.000000D+00 -0.144593D+00  0.000000D+00
     16   0.000000D+00  0.000000D+00  0.000000D+00  0.000000D+00  0.453485D+00
                11            12            13            14            15 
      1  -0.114146D+03 -0.114140D+03 -0.114115D+03 -0.114109D+03 -0.114104D+03
      2   0.474083D+00  0.000000D+00  0.000000D+00  0.000000D+00  0.000000D+00
      3   0.000000D+00  0.000000D+00  0.000000D+00  0.000000D+00 -0.624572D-01
      4   0.000000D+00  0.000000D+00 -0.198466D+00 -0.207329D-01  0.000000D+00
      5  -0.188517D+00  0.000000D+00  0.000000D+00  0.000000D+00  0.000000D+00
      6   0.000000D+00  0.000000D+00  0.000000D+00  0.000000D+00  0.600687D-02
      7   0.000000D+00  0.000000D+00  0.871673D-01  0.735086D-02  0.000000D+00
      8   0.000000D+00  0.000000D+00  0.000000D+00  0.000000D+00  0.486459D+00
      9   0.112123D+00  0.000000D+00  0.000000D+00  0.000000D+00  0.000000D+00
     10   0.000000D+00  0.358188D-01  0.000000D+00  0.000000D+00  0.000000D+00
     11   0.000000D+00  0.000000D+00  0.725794D+00  0.179341D+00  0.000000D+00
     12   0.000000D+00  0.000000D+00 -0.228055D-01 -0.118309D+00  0.000000D+00
     13   0.000000D+00  0.000000D+00 -0.575107D-01  0.166379D+00  0.000000D+00
     14   0.000000D+00  0.282427D+00  0.000000D+00  0.000000D+00  0.000000D+00
     15  -0.284165D+00  0.000000D+00  0.000000D+00  0.000000D+00  0.000000D+00
     16   0.000000D+00  0.000000D+00  0.000000D+00  0.000000D+00  0.332535D+00
                16            17            18            19            20 
      1  -0.114088D+03 -0.114076D+03 -0.114074D+03 -0.114071D+03 -0.114069D+03
      2   0.000000D+00  0.000000D+00  0.000000D+00  0.000000D+00  0.000000D+00
      3   0.000000D+00  0.000000D+00  0.000000D+00 -0.364289D+00 -0.600891D+00
      4  -0.426141D+00  0.106333D+01  0.000000D+00  0.000000D+00  0.000000D+00
      5   0.000000D+00  0.000000D+00  0.000000D+00  0.000000D+00  0.000000D+00
      6   0.000000D+00  0.000000D+00  0.000000D+00  0.164162D+00  0.273919D+00
      7   0.178528D+00 -0.487320D+00  0.000000D+00  0.000000D+00  0.000000D+00
      8   0.000000D+00  0.000000D+00  0.000000D+00 -0.194648D+00  0.359986D+00
      9   0.000000D+00  0.000000D+00  0.000000D+00  0.000000D+00  0.000000D+00
     10   0.000000D+00  0.000000D+00 -0.197779D-01  0.000000D+00  0.000000D+00
     11  -0.283665D+00 -0.482678D-01  0.000000D+00  0.000000D+00  0.000000D+00
     12  -0.657860D+00  0.296267D+00  0.000000D+00  0.000000D+00  0.000000D+00
     13  -0.631571D+00  0.373813D+00  0.000000D+00  0.000000D+00  0.000000D+00
     14   0.000000D+00  0.000000D+00  0.349570D+00  0.000000D+00  0.000000D+00
     15   0.000000D+00  0.000000D+00  0.000000D+00  0.000000D+00  0.000000D+00
     16   0.000000D+00  0.000000D+00  0.000000D+00 -0.241501D+00 -0.689199D+00
                21            22            23            24            25 
      1  -0.114062D+03 -0.114051D+03 -0.114051D+03 -0.114046D+03 -0.114034D+03
      2   0.266287D+00 -0.203279D+00  0.000000D+00  0.000000D+00  0.000000D+00
      3   0.000000D+00  0.000000D+00 -0.689524D-01  0.000000D+00  0.329934D+00
      4   0.000000D+00  0.000000D+00  0.000000D+00 -0.476700D+00  0.000000D+00
      5  -0.102562D+00  0.919797D-01  0.000000D+00  0.000000D+00  0.000000D+00
      6   0.000000D+00  0.000000D+00  0.320030D-01  0.000000D+00 -0.163985D+00
      7   0.000000D+00  0.000000D+00  0.000000D+00  0.220947D+00  0.000000D+00
      8   0.000000D+00  0.000000D+00 -0.449991D+00  0.000000D+00 -0.568134D+00
      9  -0.105652D+00  0.280627D+00  0.000000D+00  0.000000D+00  0.000000D+00
     10   0.000000D+00  0.000000D+00  0.000000D+00  0.000000D+00  0.000000D+00
     11   0.000000D+00  0.000000D+00  0.000000D+00  0.162838D+00  0.000000D+00
     12   0.000000D+00  0.000000D+00  0.000000D+00  0.512120D+00  0.000000D+00
     13   0.000000D+00  0.000000D+00  0.000000D+00  0.243428D+00  0.000000D+00
     14   0.000000D+00  0.000000D+00  0.000000D+00  0.000000D+00  0.000000D+00
     15   0.655226D-01 -0.218029D-01  0.000000D+00  0.000000D+00  0.000000D+00
     16   0.000000D+00  0.000000D+00  0.122396D+00  0.000000D+00 -0.272477D+00
                26            27            28            29            30 
      1  -0.114027D+03 -0.114019D+03 -0.114011D+03 -0.114006D+03 -0.113992D+03
      2   0.000000D+00  0.000000D+00  0.000000D+00  0.281440D-01  0.000000D+00
      3   0.000000D+00  0.000000D+00  0.000000D+00  0.000000D+00  0.000000D+00
      4   0.000000D+00  0.130635D+00  0.000000D+00  0.000000D+00  0.303610D+00
      5   0.000000D+00  0.000000D+00  0.000000D+00 -0.757325D-02  0.000000D+00
      6   0.000000D+00  0.000000D+00  0.000000D+00  0.000000D+00  0.000000D+00
      7   0.000000D+00 -0.595787D-01  0.000000D+00  0.000000D+00 -0.161186D+00
      8   0.000000D+00  0.000000D+00  0.000000D+00  0.000000D+00  0.000000D+00
      9   0.000000D+00  0.000000D+00  0.000000D+00 -0.109383D+00  0.000000D+00
     10  -0.183718D-01  0.000000D+00  0.323018D-01  0.000000D+00  0.000000D+00
     11   0.000000D+00  0.324000D+00  0.000000D+00  0.000000D+00 -0.186813D+00
     12   0.000000D+00  0.110276D+01  0.000000D+00  0.000000D+00  0.444616D+00
     13   0.000000D+00  0.276432D+00  0.000000D+00  0.000000D+00 -0.156729D+00
     14  -0.250556D+00  0.000000D+00  0.322755D+00  0.000000D+00  0.000000D+00
     15   0.000000D+00  0.000000D+00  0.000000D+00  0.599051D-01  0.000000D+00
     16   0.000000D+00  0.000000D+00  0.000000D+00  0.000000D+00  0.000000D+00

 Test job not archived.
 1\1\GINC-BHD0001\SP\RB3LYP TD-FC\6-311+G(d,p)\C1H2O1\BWEIGHT\17-Sep-20
 21\0\\#p B3LYP/6-311+G** #p TD=(singlets,nstates=30)IOp(6/8=3) IOp(9/4
 0=4)\\Scan Step 161, Bond Length 1.3050000000000002\\0,1\C,0,0.,0.,-0.
 52736\H,0,0.,0.93726,-1.11871\H,0,0.,-0.93726,-1.11871\O,0,0.,0.,0.777
 64\\Version=ES64L-G16RevA.03\State=1-A1\HF=-114.5282797\RMSD=3.288e-09
 \PG=C02V [C2(C1O1),SGV(H2)]\\@


 TO DRY ONE'S EYES AND LAUGH AT A FALL
 AND BAFFLED, GET UP AND BEGIN AGAIN.
           R. BROWNING
 Job cpu time:       0 days  0 hours  0 minutes 28.5 seconds.
 Elapsed time:       0 days  0 hours  0 minutes 29.0 seconds.
 File lengths (MBytes):  RWF=     79 Int=      0 D2E=      0 Chk=     32 Scr=      1
 Normal termination of Gaussian 16 at Fri Sep 17 10:52:48 2021.
