 Entering Gaussian System, Link 0=g16
 Initial command:
 /software/gaussian/g16-c01/sse4/g16/l1.exe "/local_scratch/24665398/Gau-7803.inp" -scrdir="/local_scratch/24665398/"
 Entering Link 1 = /software/gaussian/g16-c01/sse4/g16/l1.exe PID=      7806.
  
 Copyright (c) 1988-2019, Gaussian, Inc.  All Rights Reserved.
  
 This is part of the Gaussian(R) 16 program.  It is based on
 the Gaussian(R) 09 system (copyright 2009, Gaussian, Inc.),
 the Gaussian(R) 03 system (copyright 2003, Gaussian, Inc.),
 the Gaussian(R) 98 system (copyright 1998, Gaussian, Inc.),
 the Gaussian(R) 94 system (copyright 1995, Gaussian, Inc.),
 the Gaussian 92(TM) system (copyright 1992, Gaussian, Inc.),
 the Gaussian 90(TM) system (copyright 1990, Gaussian, Inc.),
 the Gaussian 88(TM) system (copyright 1988, Gaussian, Inc.),
 the Gaussian 86(TM) system (copyright 1986, Carnegie Mellon
 University), and the Gaussian 82(TM) system (copyright 1983,
 Carnegie Mellon University). Gaussian is a federally registered
 trademark of Gaussian, Inc.
  
 This software contains proprietary and confidential information,
 including trade secrets, belonging to Gaussian, Inc.
  
 This software is provided under written license and may be
 used, copied, transmitted, or stored only in accord with that
 written license.
  
 The following legend is applicable only to US Government
 contracts under FAR:
  
                    RESTRICTED RIGHTS LEGEND
  
 Use, reproduction and disclosure by the US Government is
 subject to restrictions as set forth in subparagraphs (a)
 and (c) of the Commercial Computer Software - Restricted
 Rights clause in FAR 52.227-19.
  
 Gaussian, Inc.
 340 Quinnipiac St., Bldg. 40, Wallingford CT 06492
  
  
 ---------------------------------------------------------------
 Warning -- This program may not be used in any manner that
 competes with the business of Gaussian, Inc. or will provide
 assistance to any competitor of Gaussian, Inc.  The licensee
 of this program is prohibited from giving any competitor of
 Gaussian, Inc. access to this program.  By using this program,
 the user acknowledges that Gaussian, Inc. is engaged in the
 business of creating and licensing software in the field of
 computational chemistry and represents and warrants to the
 licensee that it is not a competitor of Gaussian, Inc. and that
 it will not use this program in any manner prohibited above.
 ---------------------------------------------------------------
  

 Cite this work as:
 Gaussian 16, Revision C.01,
 M. J. Frisch, G. W. Trucks, H. B. Schlegel, G. E. Scuseria, 
 M. A. Robb, J. R. Cheeseman, G. Scalmani, V. Barone, 
 G. A. Petersson, H. Nakatsuji, X. Li, M. Caricato, A. V. Marenich, 
 J. Bloino, B. G. Janesko, R. Gomperts, B. Mennucci, H. P. Hratchian, 
 J. V. Ortiz, A. F. Izmaylov, J. L. Sonnenberg, D. Williams-Young, 
 F. Ding, F. Lipparini, F. Egidi, J. Goings, B. Peng, A. Petrone, 
 T. Henderson, D. Ranasinghe, V. G. Zakrzewski, J. Gao, N. Rega, 
 G. Zheng, W. Liang, M. Hada, M. Ehara, K. Toyota, R. Fukuda, 
 J. Hasegawa, M. Ishida, T. Nakajima, Y. Honda, O. Kitao, H. Nakai, 
 T. Vreven, K. Throssell, J. A. Montgomery, Jr., J. E. Peralta, 
 F. Ogliaro, M. J. Bearpark, J. J. Heyd, E. N. Brothers, K. N. Kudin, 
 V. N. Staroverov, T. A. Keith, R. Kobayashi, J. Normand, 
 K. Raghavachari, A. P. Rendell, J. C. Burant, S. S. Iyengar, 
 J. Tomasi, M. Cossi, J. M. Millam, M. Klene, C. Adamo, R. Cammi, 
 J. W. Ochterski, R. L. Martin, K. Morokuma, O. Farkas, 
 J. B. Foresman, and D. J. Fox, Gaussian, Inc., Wallingford CT, 2019.
 
 ******************************************
 Gaussian 16:  ES64L-G16RevC.01  3-Jul-2019
                 2-May-2024 
 ******************************************
 %chk=geometry.chk
 %mem=1GB
 %nprocshared=12
 Will use up to   12 processors via shared memory.
 ----------------------------------------
 #P wB97XD/6-311+G* NoSymm #P Field=Z+145
 ----------------------------------------
 1/38=1,172=1/1;
 2/12=2,15=1,17=6,18=5,40=1/2;
 3/5=4,6=6,7=11,11=2,14=3,15=145,25=1,30=1,74=-58/1,2,3;
 4//1;
 5/5=2,38=5/2;
 6/7=2,8=2,9=2,10=2,28=1/1;
 99/5=1,9=1/99;
 Leave Link    1 at Thu May  2 13:58:19 2024, MaxMem=   134217728 cpu:               2.0 elap:               2.0
 (Enter /software/gaussian/g16-c01/sse4/g16/l101.exe)
 -------
 TitleMe
 -------
 Symbolic Z-matrix:
 Charge =  1 Multiplicity = 1
 C                     0.5193    1.233    -0.0319 
 C                     1.9445    1.2692   -0.0367 
 C                     2.6204    0.0928   -0.025 
 C                    -0.196     0.0301    0.001 
 H                    -0.0207    2.1742   -0.0434 
 H                     2.4828    2.2089   -0.0361 
 H                    -1.2777    0.0399    0.0117 
 N                     4.0921    0.0959    0.0366 
 O                     4.6393   -1.0217    0.1446 
 O                     4.6649    1.1984   -0.0233 
 C                     0.4943   -1.1671    0.021 
 H                    -0.0325   -2.1149    0.0545 
 C                     1.9629   -1.2165   -0.0211 
 H                     2.4436   -1.9631    0.6151 
 Br                    2.173    -1.9491   -1.9062 
 
 ITRead=  0  0  0  0  0  0  0  0  0  0  0  0  0  0  0
 MicOpt= -1 -1 -1 -1 -1 -1 -1 -1 -1 -1 -1 -1 -1 -1 -1
 NAtoms=     15 NQM=       15 NQMF=       0 NMMI=      0 NMMIF=      0
                NMic=       0 NMicF=      0.
                    Isotopes and Nuclear Properties:
 (Nuclear quadrupole moments (NQMom) in fm**2, nuclear magnetic moments (NMagM)
  in nuclear magnetons)

  Atom         1           2           3           4           5           6           7           8           9          10
 IAtWgt=          12          12          12          12           1           1           1          14          16          16
 AtmWgt=  12.0000000  12.0000000  12.0000000  12.0000000   1.0078250   1.0078250   1.0078250  14.0030740  15.9949146  15.9949146
 NucSpn=           0           0           0           0           1           1           1           2           0           0
 AtZEff=  -0.0000000  -0.0000000  -0.0000000  -0.0000000  -0.0000000  -0.0000000  -0.0000000  -0.0000000  -0.0000000  -0.0000000
 NQMom=    0.0000000   0.0000000   0.0000000   0.0000000   0.0000000   0.0000000   0.0000000   2.0440000   0.0000000   0.0000000
 NMagM=    0.0000000   0.0000000   0.0000000   0.0000000   2.7928460   2.7928460   2.7928460   0.4037610   0.0000000   0.0000000
 AtZNuc=   6.0000000   6.0000000   6.0000000   6.0000000   1.0000000   1.0000000   1.0000000   7.0000000   8.0000000   8.0000000

  Atom        11          12          13          14          15
 IAtWgt=          12           1          12           1          79
 AtmWgt=  12.0000000   1.0078250  12.0000000   1.0078250  78.9183361
 NucSpn=           0           1           0           1           3
 AtZEff=  -0.0000000  -0.0000000  -0.0000000  -0.0000000  -0.0000000
 NQMom=    0.0000000   0.0000000   0.0000000   0.0000000  31.3000000
 NMagM=    0.0000000   2.7928460   0.0000000   2.7928460   2.1063990
 AtZNuc=   6.0000000   1.0000000   6.0000000   1.0000000  35.0000000
 Leave Link  101 at Thu May  2 13:58:21 2024, MaxMem=   134217728 cpu:               1.6 elap:               1.7
 (Enter /software/gaussian/g16-c01/sse4/g16/l202.exe)
                          Input orientation:                          
 ---------------------------------------------------------------------
 Center     Atomic      Atomic             Coordinates (Angstroms)
 Number     Number       Type             X           Y           Z
 ---------------------------------------------------------------------
      1          6           0        0.519300    1.233000   -0.031900
      2          6           0        1.944500    1.269200   -0.036700
      3          6           0        2.620400    0.092800   -0.025000
      4          6           0       -0.196000    0.030100    0.001000
      5          1           0       -0.020700    2.174200   -0.043400
      6          1           0        2.482800    2.208900   -0.036100
      7          1           0       -1.277700    0.039900    0.011700
      8          7           0        4.092100    0.095900    0.036600
      9          8           0        4.639300   -1.021700    0.144600
     10          8           0        4.664900    1.198400   -0.023300
     11          6           0        0.494300   -1.167100    0.021000
     12          1           0       -0.032500   -2.114900    0.054500
     13          6           0        1.962900   -1.216500   -0.021100
     14          1           0        2.443600   -1.963100    0.615100
     15         35           0        2.173000   -1.949100   -1.906200
 ---------------------------------------------------------------------
                    Distance matrix (angstroms):
                    1          2          3          4          5
     1  C    0.000000
     2  C    1.425668   0.000000
     3  C    2.390549   1.356796   0.000000
     4  C    1.399895   2.473566   2.817218   0.000000
     5  H    1.085168   2.163581   3.362733   2.151712   0.000000
     6  H    2.192654   1.082960   2.120598   3.453189   2.503751
     7  H    2.157452   3.449071   3.898632   1.081797   2.477564
     8  N    3.750012   2.448304   1.472992   4.288753   4.608780
     9  O    4.699917   3.541615   2.312322   4.950458   5.653735
    10  O    4.145753   2.721354   2.324292   4.999386   4.786171
    11  C    2.400813   2.835836   2.471794   1.382101   3.381369
    12  H    3.394169   3.920329   3.452266   2.151887   4.290233
    13  C    2.843264   2.485817   1.465124   2.493060   3.928360
    14  H    3.786370   3.334922   2.160489   3.364142   4.860416
    15  Br   4.046416   3.728900   2.812194   3.628609   5.028314
                    6          7          8          9         10
     6  H    0.000000
     7  H    4.341452   0.000000
     8  N    2.657047   5.370150   0.000000
     9  O    3.888434   6.012948   1.249048   0.000000
    10  O    2.404752   6.054572   1.243863   2.226587   0.000000
    11  C    3.918516   2.144043   3.813080   4.149391   4.794941
    12  H    5.003018   2.489080   4.679774   4.798846   5.748876
    13  C    3.464662   3.475788   2.501842   2.688591   3.623886
    14  H    4.222698   4.268978   2.700314   2.434893   3.916224
    15  Br   4.569706   4.420610   3.411663   3.338935   4.434144
                   11         12         13         14         15
    11  C    0.000000
    12  H    1.084880   0.000000
    13  C    1.470034   2.189625   0.000000
    14  H    2.187771   2.543302   1.092353   0.000000
    15  Br   2.672762   2.955683   2.033334   2.535818   0.000000
 Symmetry turned off by external request.
 Stoichiometry    C6H5BrNO2(1+)
 Framework group  C1[X(C6H5BrNO2)]
 Deg. of freedom    39
 Full point group                 C1      NOp   1
 Rotational constants (GHZ):           1.1632986           0.9594224           0.5957624
 Leave Link  202 at Thu May  2 13:58:23 2024, MaxMem=   134217728 cpu:               1.3 elap:               1.3
 (Enter /software/gaussian/g16-c01/sse4/g16/l301.exe)
 Standard basis: 6-311+G(d) (5D, 7F)
 Ernie: Thresh=  0.10000D-02 Tol=  0.10000D-05 Strict=F.
 The following finite field(s) will be applied:
 An electric field of              0.0000  0.0000  0.0145
   261 basis functions,   443 primitive gaussians,   273 cartesian basis functions
    49 alpha electrons       49 beta electrons
       nuclear repulsion energy       772.8945969580 Hartrees.
 IExCor= 4639 DFT=T Ex+Corr=wB97XD ExCW=0 ScaHFX=  1.000000
 ScaDFX=  1.000000  1.000000  1.000000  1.000000 ScalE2=  1.000000  1.000000
 IRadAn=      5 IRanWt=     -1 IRanGd=            0 ICorTp=0 IEmpDi=121
 HFx  wShort=  0.000000 wLong=  0.200000 cFull=  0.222036 cShort=  0.000000 cLong=  0.777964
 DFx  wShort=  0.000000 wLong=  0.200000 cFull=  0.000000 cShort=  0.000000 cLong=  1.000000
 NAtoms=   15 NActive=   15 NUniq=   15 SFac= 1.00D+00 NAtFMM=   60 NAOKFM=F Big=F
 Integral buffers will be    131072 words long.
 Raffenetti 2 integral format.
 Two-electron integral symmetry is turned off.
 R6Disp:  Grimme-D2 Dispersion energy=       -0.0080346408 Hartrees.
 Nuclear repulsion after empirical dispersion term =      772.8865623173 Hartrees.
 Leave Link  301 at Thu May  2 13:58:24 2024, MaxMem=   134217728 cpu:               1.2 elap:               1.2
 (Enter /software/gaussian/g16-c01/sse4/g16/l302.exe)
 NPDir=0 NMtPBC=     1 NCelOv=     1 NCel=       1 NClECP=     1 NCelD=      1
         NCelK=      1 NCelE2=     1 NClLst=     1 CellRange=     0.0.
 One-electron integrals computed using PRISM.
 NBasis=   261 RedAO= T EigKep=  2.52D-06  NBF=   261
 NBsUse=   261 1.00D-06 EigRej= -1.00D+00 NBFU=   261
 Precomputing XC quadrature grid using
 IXCGrd= 4 IRadAn=           5 IRanWt=          -1 IRanGd=           0 AccXCQ= 0.00D+00.
 Generated NRdTot=       0 NPtTot=           0 NUsed=           0 NTot=          32
 NSgBfM=   273   273   273   273   273 MxSgAt=    15 MxSgA2=    15.
 Leave Link  302 at Thu May  2 13:58:46 2024, MaxMem=   134217728 cpu:              21.9 elap:              21.9
 (Enter /software/gaussian/g16-c01/sse4/g16/l303.exe)
 DipDrv:  MaxL=1.
 The nuclear repulsion energy is now       771.0933074673 hartrees.
 Leave Link  303 at Thu May  2 13:58:49 2024, MaxMem=   134217728 cpu:               3.3 elap:               3.3
 (Enter /software/gaussian/g16-c01/sse4/g16/l401.exe)
 ExpMin= 3.50D-02 ExpMax= 4.40D+05 ExpMxC= 1.51D+04 IAcc=3 IRadAn=         5 AccDes= 0.00D+00
 Harris functional with IExCor= 4639 and IRadAn=       5 diagonalized for initial guess.
 HarFok:  IExCor= 4639 AccDes= 0.00D+00 IRadAn=         5 IDoV= 1 UseB2=F ITyADJ=14
 ICtDFT=  3500011 ScaDFX=  1.000000  1.000000  1.000000  1.000000
 FoFCou: FMM=F IPFlag=           0 FMFlag=      100000 FMFlg1=           0
         NFxFlg=           0 DoJE=T BraDBF=F KetDBF=T FulRan=T
         wScrn=  0.000000 ICntrl=       500 IOpCl=  0 I1Cent=   200000004 NGrid=           0
         NMat0=    1 NMatS0=      1 NMatT0=    0 NMatD0=    1 NMtDS0=    0 NMtDT0=    0
 Symmetry not used in FoFCou.
 Harris En= -2970.61733844223    
 JPrj=0 DoOrth=F DoCkMO=F.
 Leave Link  401 at Thu May  2 13:59:20 2024, MaxMem=   134217728 cpu:              31.0 elap:              31.0
 (Enter /software/gaussian/g16-c01/sse4/g16/l502.exe)
 Two-electron integral symmetry not used.
 Closed shell SCF:
 Using DIIS extrapolation, IDIIS=  1040.
 NGot=   134217728 LenX=   134063053 LenY=   133988083
 Requested convergence on RMS density matrix=1.00D-08 within 128 cycles.
 Requested convergence on MAX density matrix=1.00D-06.
 Requested convergence on             energy=1.00D-06.
 No special actions if energy rises.
 Fock matrices will be formed incrementally for  20 cycles.

 Cycle   1  Pass 1  IDiag  1:
 FoFJK:  IHMeth= 1 ICntrl=       0 DoSepK=T KAlg= 0 I1Cent=           0 FoldK=F
 IRaf=         1 NMat=       1 IRICut=       1 DoRegI=T DoRafI=F ISym2E= 0 IDoP0=0 IntGTp=1.
 FoFCou: FMM=F IPFlag=           0 FMFlag=      100000 FMFlg1=           0
         NFxFlg=           0 DoJE=T BraDBF=F KetDBF=F FulRan=T
         wScrn=  0.000000 ICntrl=       500 IOpCl=  0 I1Cent=           0 NGrid=           0
         NMat0=    1 NMatS0=      1 NMatT0=    0 NMatD0=    1 NMtDS0=    0 NMtDT0=    0
 Symmetry not used in FoFCou.
 E= -3009.67775873526    
 DIIS: error= 2.91D-01 at cycle   1 NSaved=   1.
 NSaved= 1 IEnMin= 1 EnMin= -3009.67775873526     IErMin= 1 ErrMin= 2.91D-01
 ErrMax= 2.91D-01  0.00D+00 EMaxC= 1.00D-01 BMatC= 1.20D+01 BMatP= 1.20D+01
 IDIUse=3 WtCom= 0.00D+00 WtEn= 1.00D+00
 Coeff-Com:  0.100D+01
 Coeff-En:   0.100D+01
 Coeff:      0.100D+01
 Gap=     0.315 Goal=   None    Shift=    0.000
 GapD=    0.315 DampG=1.000 DampE=0.250 DampFc=0.2500 IDamp=-1.
 Damping current iteration by 2.50D-01
 RMSDP=1.24D-01 MaxDP=1.51D+01              OVMax= 2.61D-01

 Cycle   2  Pass 1  IDiag  1:
 RMSU=  8.18D-03    CP:  8.51D-01
 E= -3009.98281646935     Delta-E=       -0.305057734094 Rises=F Damp=T
 DIIS: error= 2.19D-01 at cycle   2 NSaved=   2.
 NSaved= 2 IEnMin= 2 EnMin= -3009.98281646935     IErMin= 2 ErrMin= 2.19D-01
 ErrMax= 2.19D-01  0.00D+00 EMaxC= 1.00D-01 BMatC= 5.46D+00 BMatP= 1.20D+01
 IDIUse=3 WtCom= 0.00D+00 WtEn= 1.00D+00
 Coeff-Com: -0.180D+01 0.280D+01
 Coeff-En:   0.000D+00 0.100D+01
 Coeff:      0.000D+00 0.100D+01
 Gap=     0.267 Goal=   None    Shift=    0.000
 RMSDP=8.91D-02 MaxDP=1.13D+01 DE=-3.05D-01 OVMax= 7.68D-02

 Cycle   3  Pass 1  IDiag  1:
 RMSU=  5.11D-03    CP:  4.16D-01  3.00D+00
 E= -3010.37409042028     Delta-E=       -0.391273950925 Rises=F Damp=F
 DIIS: error= 6.68D-02 at cycle   3 NSaved=   3.
 NSaved= 3 IEnMin= 3 EnMin= -3010.37409042028     IErMin= 3 ErrMin= 6.68D-02
 ErrMax= 6.68D-02  0.00D+00 EMaxC= 1.00D-01 BMatC= 7.69D-01 BMatP= 5.46D+00
 IDIUse=3 WtCom= 3.32D-01 WtEn= 6.68D-01
 Coeff-Com:  0.257D+01-0.337D+01 0.180D+01
 Coeff-En:   0.577D-01 0.000D+00 0.942D+00
 Coeff:      0.891D+00-0.112D+01 0.123D+01
 Gap=     0.271 Goal=   None    Shift=    0.000
 RMSDP=1.98D-02 MaxDP=2.14D+00 DE=-3.91D-01 OVMax= 1.04D-01

 Cycle   4  Pass 1  IDiag  1:
 RMSU=  5.52D-03    CP:  5.01D-01  2.28D+00  1.82D+00
 E= -3010.49653254404     Delta-E=       -0.122442123764 Rises=F Damp=F
 DIIS: error= 3.66D-02 at cycle   4 NSaved=   4.
 NSaved= 4 IEnMin= 4 EnMin= -3010.49653254404     IErMin= 4 ErrMin= 3.66D-02
 ErrMax= 3.66D-02  0.00D+00 EMaxC= 1.00D-01 BMatC= 2.14D-01 BMatP= 7.69D-01
 IDIUse=3 WtCom= 6.34D-01 WtEn= 3.66D-01
 Coeff-Com: -0.146D+00 0.208D+00 0.275D+00 0.663D+00
 Coeff-En:   0.000D+00 0.000D+00 0.179D+00 0.821D+00
 Coeff:     -0.923D-01 0.132D+00 0.240D+00 0.721D+00
 Gap=     0.246 Goal=   None    Shift=    0.000
 RMSDP=1.25D-02 MaxDP=1.74D+00 DE=-1.22D-01 OVMax= 3.96D-02

 Cycle   5  Pass 1  IDiag  1:
 RMSU=  2.36D-03    CP:  4.42D-01  2.52D+00  1.74D+00  6.29D-01
 E= -3010.54099911743     Delta-E=       -0.044466573387 Rises=F Damp=F
 DIIS: error= 6.75D-03 at cycle   5 NSaved=   5.
 NSaved= 5 IEnMin= 5 EnMin= -3010.54099911743     IErMin= 5 ErrMin= 6.75D-03
 ErrMax= 6.75D-03  0.00D+00 EMaxC= 1.00D-01 BMatC= 8.53D-03 BMatP= 2.14D-01
 IDIUse=3 WtCom= 9.33D-01 WtEn= 6.75D-02
 Coeff-Com: -0.153D+00 0.208D+00 0.621D-01 0.381D+00 0.501D+00
 Coeff-En:   0.000D+00 0.000D+00 0.000D+00 0.000D+00 0.100D+01
 Coeff:     -0.143D+00 0.194D+00 0.579D-01 0.356D+00 0.535D+00
 Gap=     0.233 Goal=   None    Shift=    0.000
 RMSDP=2.66D-03 MaxDP=3.56D-01 DE=-4.45D-02 OVMax= 2.00D-02

 Cycle   6  Pass 1  IDiag  1:
 RMSU=  5.72D-04    CP:  4.54D-01  2.48D+00  1.78D+00  7.27D-01  7.34D-01
 E= -3010.54323355567     Delta-E=       -0.002234438242 Rises=F Damp=F
 DIIS: error= 2.59D-03 at cycle   6 NSaved=   6.
 NSaved= 6 IEnMin= 6 EnMin= -3010.54323355567     IErMin= 6 ErrMin= 2.59D-03
 ErrMax= 2.59D-03  0.00D+00 EMaxC= 1.00D-01 BMatC= 5.15D-04 BMatP= 8.53D-03
 IDIUse=3 WtCom= 9.74D-01 WtEn= 2.59D-02
 Coeff-Com: -0.108D+00 0.146D+00-0.431D-02 0.181D+00 0.357D+00 0.429D+00
 Coeff-En:   0.000D+00 0.000D+00 0.000D+00 0.000D+00 0.551D-01 0.945D+00
 Coeff:     -0.106D+00 0.142D+00-0.419D-02 0.176D+00 0.349D+00 0.442D+00
 Gap=     0.233 Goal=   None    Shift=    0.000
 RMSDP=8.89D-04 MaxDP=1.15D-01 DE=-2.23D-03 OVMax= 8.72D-03

 Cycle   7  Pass 1  IDiag  1:
 RMSU=  2.66D-04    CP:  4.50D-01  2.49D+00  1.80D+00  7.17D-01  8.78D-01
                    CP:  7.80D-01
 E= -3010.54360659973     Delta-E=       -0.000373044060 Rises=F Damp=F
 DIIS: error= 4.40D-04 at cycle   7 NSaved=   7.
 NSaved= 7 IEnMin= 7 EnMin= -3010.54360659973     IErMin= 7 ErrMin= 4.40D-04
 ErrMax= 4.40D-04  0.00D+00 EMaxC= 1.00D-01 BMatC= 2.23D-05 BMatP= 5.15D-04
 IDIUse=3 WtCom= 9.96D-01 WtEn= 4.40D-03
 Coeff-Com: -0.398D-01 0.531D-01-0.135D-01 0.396D-01 0.875D-01 0.194D+00
 Coeff-Com:  0.679D+00
 Coeff-En:   0.000D+00 0.000D+00 0.000D+00 0.000D+00 0.000D+00 0.000D+00
 Coeff-En:   0.100D+01
 Coeff:     -0.396D-01 0.529D-01-0.134D-01 0.394D-01 0.871D-01 0.193D+00
 Coeff:      0.680D+00
 Gap=     0.235 Goal=   None    Shift=    0.000
 RMSDP=2.52D-04 MaxDP=3.46D-02 DE=-3.73D-04 OVMax= 2.47D-03

 Cycle   8  Pass 1  IDiag  1:
 RMSU=  8.63D-05    CP:  4.49D-01  2.49D+00  1.81D+00  7.20D-01  9.09D-01
                    CP:  7.83D-01  1.02D+00
 E= -3010.54363402945     Delta-E=       -0.000027429713 Rises=F Damp=F
 DIIS: error= 1.46D-04 at cycle   8 NSaved=   8.
 NSaved= 8 IEnMin= 8 EnMin= -3010.54363402945     IErMin= 8 ErrMin= 1.46D-04
 ErrMax= 1.46D-04  0.00D+00 EMaxC= 1.00D-01 BMatC= 3.65D-06 BMatP= 2.23D-05
 IDIUse=3 WtCom= 9.99D-01 WtEn= 1.46D-03
 Coeff-Com:  0.404D-02-0.566D-02-0.437D-02-0.159D-01-0.366D-01-0.289D-01
 Coeff-Com:  0.213D+00 0.874D+00
 Coeff-En:   0.000D+00 0.000D+00 0.000D+00 0.000D+00 0.000D+00 0.000D+00
 Coeff-En:   0.000D+00 0.100D+01
 Coeff:      0.403D-02-0.566D-02-0.436D-02-0.159D-01-0.366D-01-0.289D-01
 Coeff:      0.213D+00 0.874D+00
 Gap=     0.235 Goal=   None    Shift=    0.000
 RMSDP=1.11D-04 MaxDP=1.08D-02 DE=-2.74D-05 OVMax= 1.80D-03

 Cycle   9  Pass 1  IDiag  1:
 RMSU=  3.22D-05    CP:  4.49D-01  2.50D+00  1.81D+00  7.25D-01  9.33D-01
                    CP:  8.13D-01  1.29D+00  1.31D+00
 E= -3010.54364356941     Delta-E=       -0.000009539964 Rises=F Damp=F
 DIIS: error= 2.93D-05 at cycle   9 NSaved=   9.
 NSaved= 9 IEnMin= 9 EnMin= -3010.54364356941     IErMin= 9 ErrMin= 2.93D-05
 ErrMax= 2.93D-05  0.00D+00 EMaxC= 1.00D-01 BMatC= 3.95D-07 BMatP= 3.65D-06
 IDIUse=1 WtCom= 1.00D+00 WtEn= 0.00D+00
 Coeff-Com:  0.722D-02-0.969D-02 0.974D-03-0.105D-01-0.225D-01-0.378D-01
 Coeff-Com: -0.694D-01 0.183D+00 0.959D+00
 Coeff:      0.722D-02-0.969D-02 0.974D-03-0.105D-01-0.225D-01-0.378D-01
 Coeff:     -0.694D-01 0.183D+00 0.959D+00
 Gap=     0.235 Goal=   None    Shift=    0.000
 RMSDP=9.77D-05 MaxDP=1.24D-02 DE=-9.54D-06 OVMax= 1.45D-03

 Cycle  10  Pass 1  IDiag  1:
 RMSU=  2.29D-05    CP:  4.48D-01  2.49D+00  1.81D+00  7.24D-01  9.49D-01
                    CP:  8.13D-01  1.39D+00  1.59D+00  1.27D+00
 E= -3010.54364632978     Delta-E=       -0.000002760375 Rises=F Damp=F
 DIIS: error= 1.74D-05 at cycle  10 NSaved=  10.
 NSaved=10 IEnMin=10 EnMin= -3010.54364632978     IErMin=10 ErrMin= 1.74D-05
 ErrMax= 1.74D-05  0.00D+00 EMaxC= 1.00D-01 BMatC= 1.28D-07 BMatP= 3.95D-07
 IDIUse=1 WtCom= 1.00D+00 WtEn= 0.00D+00
 Coeff-Com: -0.407D-03 0.590D-03 0.519D-03 0.121D-02 0.432D-02 0.406D-02
 Coeff-Com: -0.464D-01-0.136D+00 0.212D+00 0.960D+00
 Coeff:     -0.407D-03 0.590D-03 0.519D-03 0.121D-02 0.432D-02 0.406D-02
 Coeff:     -0.464D-01-0.136D+00 0.212D+00 0.960D+00
 Gap=     0.235 Goal=   None    Shift=    0.000
 RMSDP=2.25D-05 MaxDP=1.22D-03 DE=-2.76D-06 OVMax= 8.49D-04

 Cycle  11  Pass 1  IDiag  1:
 RMSU=  1.05D-05    CP:  4.48D-01  2.49D+00  1.81D+00  7.23D-01  9.51D-01
                    CP:  8.17D-01  1.40D+00  1.68D+00  1.51D+00  1.55D+00
 E= -3010.54364712709     Delta-E=       -0.000000797309 Rises=F Damp=F
 DIIS: error= 9.26D-06 at cycle  11 NSaved=  11.
 NSaved=11 IEnMin=11 EnMin= -3010.54364712709     IErMin=11 ErrMin= 9.26D-06
 ErrMax= 9.26D-06  0.00D+00 EMaxC= 1.00D-01 BMatC= 2.61D-08 BMatP= 1.28D-07
 IDIUse=1 WtCom= 1.00D+00 WtEn= 0.00D+00
 Coeff-Com: -0.116D-02 0.156D-02-0.416D-04 0.212D-02 0.453D-02 0.811D-02
 Coeff-Com:  0.203D-01-0.453D-01-0.258D+00 0.589D-01 0.121D+01
 Coeff:     -0.116D-02 0.156D-02-0.416D-04 0.212D-02 0.453D-02 0.811D-02
 Coeff:      0.203D-01-0.453D-01-0.258D+00 0.589D-01 0.121D+01
 Gap=     0.235 Goal=   None    Shift=    0.000
 RMSDP=1.96D-05 MaxDP=1.26D-03 DE=-7.97D-07 OVMax= 6.29D-04

 Cycle  12  Pass 1  IDiag  1:
 RMSU=  3.50D-06    CP:  4.48D-01  2.49D+00  1.81D+00  7.22D-01  9.54D-01
                    CP:  8.18D-01  1.42D+00  1.73D+00  1.63D+00  2.10D+00
                    CP:  1.52D+00
 E= -3010.54364740151     Delta-E=       -0.000000274421 Rises=F Damp=F
 DIIS: error= 5.39D-06 at cycle  12 NSaved=  12.
 NSaved=12 IEnMin=12 EnMin= -3010.54364740151     IErMin=12 ErrMin= 5.39D-06
 ErrMax= 5.39D-06  0.00D+00 EMaxC= 1.00D-01 BMatC= 9.82D-09 BMatP= 2.61D-08
 IDIUse=1 WtCom= 1.00D+00 WtEn= 0.00D+00
 Coeff-Com: -0.490D-03 0.648D-03-0.114D-03 0.824D-03 0.996D-03 0.249D-02
 Coeff-Com:  0.215D-01 0.507D-02-0.182D+00-0.175D+00 0.598D+00 0.728D+00
 Coeff:     -0.490D-03 0.648D-03-0.114D-03 0.824D-03 0.996D-03 0.249D-02
 Coeff:      0.215D-01 0.507D-02-0.182D+00-0.175D+00 0.598D+00 0.728D+00
 Gap=     0.235 Goal=   None    Shift=    0.000
 RMSDP=9.55D-06 MaxDP=6.89D-04 DE=-2.74D-07 OVMax= 2.40D-04

 Cycle  13  Pass 1  IDiag  1:
 RMSU=  1.74D-06    CP:  4.48D-01  2.49D+00  1.82D+00  7.22D-01  9.55D-01
                    CP:  8.21D-01  1.43D+00  1.73D+00  1.68D+00  2.28D+00
                    CP:  1.74D+00  1.51D+00
 E= -3010.54364744256     Delta-E=       -0.000000041046 Rises=F Damp=F
 DIIS: error= 1.88D-06 at cycle  13 NSaved=  13.
 NSaved=13 IEnMin=13 EnMin= -3010.54364744256     IErMin=13 ErrMin= 1.88D-06
 ErrMax= 1.88D-06  0.00D+00 EMaxC= 1.00D-01 BMatC= 1.20D-09 BMatP= 9.82D-09
 IDIUse=1 WtCom= 1.00D+00 WtEn= 0.00D+00
 Coeff-Com: -0.468D-05 0.607D-05-0.374D-04-0.191D-03-0.856D-03-0.176D-02
 Coeff-Com: -0.271D-02 0.495D-02 0.432D-01-0.110D-01-0.214D+00 0.847D-01
 Coeff-Com:  0.110D+01
 Coeff:     -0.468D-05 0.607D-05-0.374D-04-0.191D-03-0.856D-03-0.176D-02
 Coeff:     -0.271D-02 0.495D-02 0.432D-01-0.110D-01-0.214D+00 0.847D-01
 Coeff:      0.110D+01
 Gap=     0.235 Goal=   None    Shift=    0.000
 RMSDP=6.00D-06 MaxDP=5.35D-04 DE=-4.10D-08 OVMax= 8.11D-05

 Cycle  14  Pass 1  IDiag  1:
 RMSU=  6.32D-07    CP:  4.48D-01  2.49D+00  1.82D+00  7.22D-01  9.56D-01
                    CP:  8.23D-01  1.43D+00  1.73D+00  1.69D+00  2.34D+00
                    CP:  1.77D+00  2.00D+00  1.57D+00
 E= -3010.54364744755     Delta-E=       -0.000000004991 Rises=F Damp=F
 DIIS: error= 5.42D-07 at cycle  14 NSaved=  14.
 NSaved=14 IEnMin=14 EnMin= -3010.54364744755     IErMin=14 ErrMin= 5.42D-07
 ErrMax= 5.42D-07  0.00D+00 EMaxC= 1.00D-01 BMatC= 1.27D-10 BMatP= 1.20D-09
 IDIUse=1 WtCom= 1.00D+00 WtEn= 0.00D+00
 Coeff-Com:  0.245D-04-0.321D-04-0.668D-05-0.123D-03-0.304D-03-0.717D-03
 Coeff-Com: -0.283D-02 0.299D-03 0.331D-01 0.174D-01-0.136D+00-0.520D-01
 Coeff-Com:  0.331D+00 0.810D+00
 Coeff:      0.245D-04-0.321D-04-0.668D-05-0.123D-03-0.304D-03-0.717D-03
 Coeff:     -0.283D-02 0.299D-03 0.331D-01 0.174D-01-0.136D+00-0.520D-01
 Coeff:      0.331D+00 0.810D+00
 Gap=     0.235 Goal=   None    Shift=    0.000
 RMSDP=1.87D-06 MaxDP=1.80D-04 DE=-4.99D-09 OVMax= 2.19D-05

 Cycle  15  Pass 1  IDiag  1:
 RMSU=  2.43D-07    CP:  4.48D-01  2.49D+00  1.82D+00  7.22D-01  9.56D-01
                    CP:  8.24D-01  1.43D+00  1.73D+00  1.69D+00  2.35D+00
                    CP:  1.77D+00  2.14D+00  1.77D+00  1.30D+00
 E= -3010.54364744804     Delta-E=       -0.000000000492 Rises=F Damp=F
 DIIS: error= 3.08D-07 at cycle  15 NSaved=  15.
 NSaved=15 IEnMin=15 EnMin= -3010.54364744804     IErMin=15 ErrMin= 3.08D-07
 ErrMax= 3.08D-07  0.00D+00 EMaxC= 1.00D-01 BMatC= 2.48D-11 BMatP= 1.27D-10
 IDIUse=1 WtCom= 1.00D+00 WtEn= 0.00D+00
 Coeff-Com:  0.380D-05-0.495D-05 0.380D-05 0.102D-04 0.104D-03 0.169D-03
 Coeff-Com:  0.853D-04-0.882D-03-0.676D-03 0.654D-02 0.501D-02-0.265D-01
 Coeff-Com: -0.117D+00 0.230D+00 0.904D+00
 Coeff:      0.380D-05-0.495D-05 0.380D-05 0.102D-04 0.104D-03 0.169D-03
 Coeff:      0.853D-04-0.882D-03-0.676D-03 0.654D-02 0.501D-02-0.265D-01
 Coeff:     -0.117D+00 0.230D+00 0.904D+00
 Gap=     0.235 Goal=   None    Shift=    0.000
 RMSDP=7.67D-07 MaxDP=7.57D-05 DE=-4.92D-10 OVMax= 1.01D-05

 Cycle  16  Pass 1  IDiag  1:
 RMSU=  7.61D-08    CP:  4.48D-01  2.49D+00  1.82D+00  7.22D-01  9.57D-01
                    CP:  8.24D-01  1.43D+00  1.73D+00  1.69D+00  2.35D+00
                    CP:  1.76D+00  2.20D+00  1.86D+00  1.50D+00  1.30D+00
 E= -3010.54364744814     Delta-E=       -0.000000000095 Rises=F Damp=F
 DIIS: error= 1.05D-07 at cycle  16 NSaved=  16.
 NSaved=16 IEnMin=16 EnMin= -3010.54364744814     IErMin=16 ErrMin= 1.05D-07
 ErrMax= 1.05D-07  0.00D+00 EMaxC= 1.00D-01 BMatC= 3.57D-12 BMatP= 2.48D-11
 IDIUse=1 WtCom= 1.00D+00 WtEn= 0.00D+00
 Coeff-Com: -0.100D-04 0.134D-04-0.224D-06 0.247D-04 0.537D-04 0.107D-03
 Coeff-Com:  0.449D-03-0.192D-03-0.507D-02-0.873D-03 0.191D-01 0.469D-02
 Coeff-Com: -0.504D-01-0.119D+00 0.247D-01 0.113D+01
 Coeff:     -0.100D-04 0.134D-04-0.224D-06 0.247D-04 0.537D-04 0.107D-03
 Coeff:      0.449D-03-0.192D-03-0.507D-02-0.873D-03 0.191D-01 0.469D-02
 Coeff:     -0.504D-01-0.119D+00 0.247D-01 0.113D+01
 Gap=     0.235 Goal=   None    Shift=    0.000
 RMSDP=3.15D-07 MaxDP=3.06D-05 DE=-9.46D-11 OVMax= 5.70D-06

 Cycle  17  Pass 1  IDiag  1:
 RMSU=  4.29D-08    CP:  4.48D-01  2.49D+00  1.82D+00  7.22D-01  9.57D-01
                    CP:  8.24D-01  1.43D+00  1.73D+00  1.69D+00  2.35D+00
                    CP:  1.76D+00  2.22D+00  1.89D+00  1.56D+00  1.50D+00
                    CP:  1.62D+00
 E= -3010.54364744817     Delta-E=       -0.000000000036 Rises=F Damp=F
 DIIS: error= 5.80D-08 at cycle  17 NSaved=  17.
 NSaved=17 IEnMin=17 EnMin= -3010.54364744817     IErMin=17 ErrMin= 5.80D-08
 ErrMax= 5.80D-08  0.00D+00 EMaxC= 1.00D-01 BMatC= 6.94D-13 BMatP= 3.57D-12
 IDIUse=1 WtCom= 1.00D+00 WtEn= 0.00D+00
 Coeff-Com: -0.454D-05 0.607D-05-0.136D-05 0.147D-05-0.185D-04-0.363D-04
 Coeff-Com: -0.140D-04 0.194D-03 0.242D-04-0.108D-02-0.104D-02 0.464D-02
 Coeff-Com:  0.234D-01-0.417D-01-0.161D+00-0.760D-01 0.125D+01
 Coeff:     -0.454D-05 0.607D-05-0.136D-05 0.147D-05-0.185D-04-0.363D-04
 Coeff:     -0.140D-04 0.194D-03 0.242D-04-0.108D-02-0.104D-02 0.464D-02
 Coeff:      0.234D-01-0.417D-01-0.161D+00-0.760D-01 0.125D+01
 Gap=     0.235 Goal=   None    Shift=    0.000
 RMSDP=1.02D-07 MaxDP=8.15D-06 DE=-3.64D-11 OVMax= 3.40D-06

 Cycle  18  Pass 1  IDiag  1:
 RMSU=  2.18D-08    CP:  4.48D-01  2.49D+00  1.82D+00  7.22D-01  9.57D-01
                    CP:  8.24D-01  1.43D+00  1.73D+00  1.69D+00  2.35D+00
                    CP:  1.76D+00  2.22D+00  1.90D+00  1.57D+00  1.54D+00
                    CP:  2.17D+00  1.81D+00
 E= -3010.54364744817     Delta-E=        0.000000000003 Rises=F Damp=F
 DIIS: error= 2.14D-08 at cycle  18 NSaved=  18.
 NSaved=18 IEnMin=17 EnMin= -3010.54364744817     IErMin=18 ErrMin= 2.14D-08
 ErrMax= 2.14D-08  0.00D+00 EMaxC= 1.00D-01 BMatC= 1.67D-13 BMatP= 6.94D-13
 IDIUse=1 WtCom= 1.00D+00 WtEn= 0.00D+00
 Coeff-Com:  0.382D-06-0.509D-06-0.379D-06-0.399D-05-0.174D-04-0.338D-04
 Coeff-Com: -0.776D-04 0.119D-03 0.809D-03-0.250D-03-0.341D-02 0.708D-03
 Coeff-Com:  0.164D-01 0.833D-02-0.492D-01-0.221D+00 0.374D+00 0.874D+00
 Coeff:      0.382D-06-0.509D-06-0.379D-06-0.399D-05-0.174D-04-0.338D-04
 Coeff:     -0.776D-04 0.119D-03 0.809D-03-0.250D-03-0.341D-02 0.708D-03
 Coeff:      0.164D-01 0.833D-02-0.492D-01-0.221D+00 0.374D+00 0.874D+00
 Gap=     0.235 Goal=   None    Shift=    0.000
 RMSDP=4.91D-08 MaxDP=5.42D-06 DE= 3.18D-12 OVMax= 1.27D-06

 Cycle  19  Pass 1  IDiag  1:
 RMSU=  6.02D-09    CP:  4.48D-01  2.49D+00  1.82D+00  7.22D-01  9.57D-01
                    CP:  8.24D-01  1.43D+00  1.73D+00  1.69D+00  2.36D+00
                    CP:  1.76D+00  2.22D+00  1.91D+00  1.56D+00  1.52D+00
                    CP:  2.34D+00  2.22D+00  1.46D+00
 E= -3010.54364744820     Delta-E=       -0.000000000032 Rises=F Damp=F
 DIIS: error= 9.58D-09 at cycle  19 NSaved=  19.
 NSaved=19 IEnMin=19 EnMin= -3010.54364744820     IErMin=19 ErrMin= 9.58D-09
 ErrMax= 9.58D-09  0.00D+00 EMaxC= 1.00D-01 BMatC= 4.04D-14 BMatP= 1.67D-13
 IDIUse=1 WtCom= 1.00D+00 WtEn= 0.00D+00
 Coeff-Com:  0.149D-06-0.195D-06 0.113D-06 0.489D-06 0.520D-05 0.945D-05
 Coeff-Com: -0.111D-05-0.530D-04 0.348D-04 0.267D-03 0.395D-04-0.125D-02
 Coeff-Com: -0.526D-02 0.119D-01 0.386D-01-0.175D-01-0.310D+00 0.154D+00
 Coeff-Com:  0.113D+01
 Coeff:      0.149D-06-0.195D-06 0.113D-06 0.489D-06 0.520D-05 0.945D-05
 Coeff:     -0.111D-05-0.530D-04 0.348D-04 0.267D-03 0.395D-04-0.125D-02
 Coeff:     -0.526D-02 0.119D-01 0.386D-01-0.175D-01-0.310D+00 0.154D+00
 Coeff:      0.113D+01
 Gap=     0.235 Goal=   None    Shift=    0.000
 RMSDP=4.01D-08 MaxDP=2.93D-06 DE=-3.18D-11 OVMax= 9.17D-07

 Cycle  20  Pass 1  IDiag  1:
 RMSU=  3.78D-09    CP:  4.48D-01  2.49D+00  1.82D+00  7.22D-01  9.57D-01
                    CP:  8.24D-01  1.43D+00  1.73D+00  1.69D+00  2.36D+00
                    CP:  1.76D+00  2.22D+00  1.91D+00  1.56D+00  1.50D+00
                    CP:  2.45D+00  2.50D+00  1.97D+00  1.52D+00
 E= -3010.54364744820     Delta-E=        0.000000000003 Rises=F Damp=F
 DIIS: error= 2.84D-09 at cycle  20 NSaved=  20.
 NSaved=20 IEnMin=19 EnMin= -3010.54364744820     IErMin=20 ErrMin= 2.84D-09
 ErrMax= 2.84D-09  0.00D+00 EMaxC= 1.00D-01 BMatC= 4.45D-15 BMatP= 4.04D-14
 IDIUse=1 WtCom= 1.00D+00 WtEn= 0.00D+00
 Coeff-Com:  0.764D-07-0.102D-06 0.891D-07 0.508D-06 0.323D-05 0.658D-05
 Coeff-Com:  0.108D-04-0.259D-04-0.113D-03 0.836D-04 0.519D-03-0.319D-03
 Coeff-Com: -0.362D-02 0.178D-02 0.170D-01 0.309D-01-0.120D+00-0.839D-01
 Coeff-Com:  0.229D+00 0.928D+00
 Coeff:      0.764D-07-0.102D-06 0.891D-07 0.508D-06 0.323D-05 0.658D-05
 Coeff:      0.108D-04-0.259D-04-0.113D-03 0.836D-04 0.519D-03-0.319D-03
 Coeff:     -0.362D-02 0.178D-02 0.170D-01 0.309D-01-0.120D+00-0.839D-01
 Coeff:      0.229D+00 0.928D+00
 Gap=     0.235 Goal=   None    Shift=    0.000
 RMSDP=7.79D-09 MaxDP=6.43D-07 DE= 3.18D-12 OVMax= 1.72D-07

 SCF Done:  E(RwB97XD) =  -3010.54364745     A.U. after   20 cycles
            NFock= 20  Conv=0.78D-08     -V/T= 2.0016
 KE= 3.005825524344D+03 PE=-8.697160346918D+03 EE= 1.909697867658D+03
 Leave Link  502 at Thu May  2 14:19:38 2024, MaxMem=   134217728 cpu:            1218.1 elap:            1218.2
 (Enter /software/gaussian/g16-c01/sse4/g16/l601.exe)
 Copying SCF densities to generalized density rwf, IOpCl= 0 IROHF=0.

 **********************************************************************

            Population analysis using the SCF Density.

 **********************************************************************

 Alpha  occ. eigenvalues -- -483.28819 -62.83797 -56.63536 -56.62910 -56.62890
 Alpha  occ. eigenvalues --  -19.45859 -19.45854 -14.85243 -10.58317 -10.56650
 Alpha  occ. eigenvalues --  -10.56341 -10.55846 -10.52513 -10.51920  -8.99571
 Alpha  occ. eigenvalues --   -6.82369  -6.80326  -6.80269  -2.92244  -2.91715
 Alpha  occ. eigenvalues --   -2.91669  -2.90036  -2.90035  -1.49531  -1.32504
 Alpha  occ. eigenvalues --   -1.21396  -1.11931  -1.11188  -1.03096  -0.99159
 Alpha  occ. eigenvalues --   -0.94327  -0.89702  -0.84358  -0.80270  -0.79540
 Alpha  occ. eigenvalues --   -0.79351  -0.77103  -0.75674  -0.74689  -0.70690
 Alpha  occ. eigenvalues --   -0.67606  -0.66666  -0.61857  -0.58509  -0.57002
 Alpha  occ. eigenvalues --   -0.56232  -0.55543  -0.53339  -0.52321
 Alpha virt. eigenvalues --   -0.28867  -0.19796  -0.14083  -0.12419  -0.10505
 Alpha virt. eigenvalues --   -0.07638  -0.07346  -0.05635  -0.03891  -0.03459
 Alpha virt. eigenvalues --   -0.02109  -0.00916   0.00442   0.00604   0.01339
 Alpha virt. eigenvalues --    0.01985   0.02879   0.04244   0.04792   0.05161
 Alpha virt. eigenvalues --    0.05969   0.06331   0.06630   0.07384   0.07953
 Alpha virt. eigenvalues --    0.08686   0.08730   0.09436   0.10024   0.10172
 Alpha virt. eigenvalues --    0.11099   0.11930   0.12729   0.13175   0.13258
 Alpha virt. eigenvalues --    0.13573   0.14330   0.15594   0.15916   0.16439
 Alpha virt. eigenvalues --    0.17231   0.17814   0.18505   0.19076   0.19440
 Alpha virt. eigenvalues --    0.21418   0.21581   0.22223   0.22981   0.25250
 Alpha virt. eigenvalues --    0.25644   0.26294   0.29200   0.30928   0.33174
 Alpha virt. eigenvalues --    0.33924   0.34911   0.35771   0.36235   0.37850
 Alpha virt. eigenvalues --    0.38743   0.39619   0.40256   0.41582   0.43082
 Alpha virt. eigenvalues --    0.44505   0.44912   0.46441   0.47924   0.48210
 Alpha virt. eigenvalues --    0.49622   0.51360   0.52233   0.53808   0.54415
 Alpha virt. eigenvalues --    0.55990   0.56997   0.58880   0.59121   0.61099
 Alpha virt. eigenvalues --    0.62255   0.63364   0.66029   0.69070   0.69627
 Alpha virt. eigenvalues --    0.72174   0.72532   0.73628   0.75019   0.75699
 Alpha virt. eigenvalues --    0.76101   0.78028   0.80350   0.85337   0.86616
 Alpha virt. eigenvalues --    0.88014   0.88912   0.92229   0.95362   0.99422
 Alpha virt. eigenvalues --    1.01003   1.03589   1.04745   1.06598   1.07713
 Alpha virt. eigenvalues --    1.09601   1.13012   1.13878   1.14685   1.18675
 Alpha virt. eigenvalues --    1.21479   1.23390   1.28970   1.34405   1.37187
 Alpha virt. eigenvalues --    1.37841   1.39918   1.44457   1.55971   1.57529
 Alpha virt. eigenvalues --    1.58046   1.60570   1.62131   1.64812   1.66895
 Alpha virt. eigenvalues --    1.68871   1.72506   1.74541   1.76190   1.80462
 Alpha virt. eigenvalues --    1.84859   1.86267   1.88194   1.97692   1.98086
 Alpha virt. eigenvalues --    1.99068   2.03733   2.04332   2.08319   2.10425
 Alpha virt. eigenvalues --    2.14299   2.15843   2.23185   2.24382   2.28244
 Alpha virt. eigenvalues --    2.34427   2.40588   2.42207   2.45124   2.54241
 Alpha virt. eigenvalues --    2.58919   2.64057   2.66934   2.69673   2.72108
 Alpha virt. eigenvalues --    2.74297   2.76861   2.78217   2.81130   2.83144
 Alpha virt. eigenvalues --    2.94343   2.98938   3.02165   3.06855   3.09993
 Alpha virt. eigenvalues --    3.15789   3.17273   3.18431   3.23016   3.27003
 Alpha virt. eigenvalues --    3.28632   3.38597   3.47596   3.50954   3.55228
 Alpha virt. eigenvalues --    3.58407   3.69307   3.74647   3.84681   3.88418
 Alpha virt. eigenvalues --    4.12697   4.13598   4.21877   4.26105   4.44922
 Alpha virt. eigenvalues --    4.46438   4.55702   4.60461   4.93920   4.96699
 Alpha virt. eigenvalues --    5.05620   5.10044   5.62403   6.15502   6.70663
 Alpha virt. eigenvalues --    7.51676   7.53941   7.63942  23.23260  23.62317
 Alpha virt. eigenvalues --   23.73297  23.79180  23.96688  24.03128  35.31922
 Alpha virt. eigenvalues --   47.96588  49.85599  49.94261 289.84186 289.86520
 Alpha virt. eigenvalues --  289.991121020.97705
          Condensed to atoms (all electrons):
               1          2          3          4          5          6
     1  C    7.776887  -1.827020   0.481004   0.056471   0.294518   0.058436
     2  C   -1.827020  19.071370  -3.002222   0.393457  -0.001639   0.197054
     3  C    0.481004  -3.002222  21.545093  -1.399753   0.005431   0.110966
     4  C    0.056471   0.393457  -1.399753   6.433486   0.029204  -0.013772
     5  H    0.294518  -0.001639   0.005431   0.029204   0.333338  -0.001728
     6  H    0.058436   0.197054   0.110966  -0.013772  -0.001728   0.313851
     7  H    0.023461  -0.027364   0.015405   0.310773  -0.002620   0.000000
     8  N   -0.108213  -0.469051  -2.374873   0.026156  -0.000090  -0.031449
     9  O    0.019428   0.539260   0.308834  -0.019672  -0.000027  -0.002583
    10  O    0.247983  -0.192422  -0.331075  -0.013461  -0.000017   0.021302
    11  C    0.811885  -0.265701   2.726836  -0.358091  -0.029842   0.008661
    12  H   -0.016668   0.026155  -0.001018   0.027486   0.000056  -0.000022
    13  C   -1.680167  -8.405258 -11.851324   0.893010   0.029129  -0.009059
    14  H    0.006808   0.023758   0.087687  -0.007459  -0.000057   0.000110
    15  Br   0.003381  -0.290074  -0.278412  -0.023599   0.000498  -0.000632
               7          8          9         10         11         12
     1  C    0.023461  -0.108213   0.019428   0.247983   0.811885  -0.016668
     2  C   -0.027364  -0.469051   0.539260  -0.192422  -0.265701   0.026155
     3  C    0.015405  -2.374873   0.308834  -0.331075   2.726836  -0.001018
     4  C    0.310773   0.026156  -0.019672  -0.013461  -0.358091   0.027486
     5  H   -0.002620  -0.000090  -0.000027  -0.000017  -0.029842   0.000056
     6  H    0.000000  -0.031449  -0.002583   0.021302   0.008661  -0.000022
     7  H    0.341358   0.000115  -0.000015   0.000010   0.017989  -0.002279
     8  N    0.000115   7.865944  -0.084731   0.246743  -0.344846   0.000740
     9  O   -0.000015  -0.084731   7.997478  -0.014216   0.278890   0.000158
    10  O    0.000010   0.246743  -0.014216   7.805469  -0.017972  -0.000043
    11  C    0.017989  -0.344846   0.278890  -0.017972   8.295529   0.293562
    12  H   -0.002279   0.000740   0.000158  -0.000043   0.293562   0.330844
    13  C   -0.004418   2.390833  -1.062703   0.170009  -5.251121  -0.008178
    14  H   -0.000043  -0.048695   0.021207  -0.001696   0.060404  -0.006923
    15  Br  -0.000131   0.202878  -0.069616   0.009669   0.012450   0.003334
              13         14         15
     1  C   -1.680167   0.006808   0.003381
     2  C   -8.405258   0.023758  -0.290074
     3  C  -11.851324   0.087687  -0.278412
     4  C    0.893010  -0.007459  -0.023599
     5  H    0.029129  -0.000057   0.000498
     6  H   -0.009059   0.000110  -0.000632
     7  H   -0.004418  -0.000043  -0.000131
     8  N    2.390833  -0.048695   0.202878
     9  O   -1.062703   0.021207  -0.069616
    10  O    0.170009  -0.001696   0.009669
    11  C   -5.251121   0.060404   0.012450
    12  H   -0.008178  -0.006923   0.003334
    13  C   30.431876   0.154162   0.618565
    14  H    0.154162   0.399099  -0.052740
    15  Br   0.618565  -0.052740  34.539335
 Mulliken charges:
               1
     1  C   -0.148195
     2  C    0.229697
     3  C   -0.042580
     4  C   -0.334235
     5  H    0.343846
     6  H    0.348866
     7  H    0.327758
     8  N   -0.271460
     9  O    0.088308
    10  O    0.069716
    11  C   -0.238633
    12  H    0.352796
    13  C   -0.415355
    14  H    0.364377
    15  Br   0.325093
 Sum of Mulliken charges =   1.00000
 Mulliken charges with hydrogens summed into heavy atoms:
               1
     1  C    0.195651
     2  C    0.578563
     3  C   -0.042580
     4  C   -0.006477
     8  N   -0.271460
     9  O    0.088308
    10  O    0.069716
    11  C    0.114164
    13  C   -0.050978
    15  Br   0.325093
 Electronic spatial extent (au):  <R**2>=           3943.1149
 Charge=              1.0000 electrons
 Dipole moment (field-independent basis, Debye):
    X=              3.0050    Y=             -1.5024    Z=             -3.3750  Tot=              4.7621
 Quadrupole moment (field-independent basis, Debye-Ang):
   XX=            -67.8864   YY=            -50.2232   ZZ=            -58.9986
   XY=             -4.1834   XZ=             -7.9698   YZ=              5.0129
 Traceless Quadrupole moment (field-independent basis, Debye-Ang):
   XX=             -8.8503   YY=              8.8128   ZZ=              0.0375
   XY=             -4.1834   XZ=             -7.9698   YZ=              5.0129
 Octapole moment (field-independent basis, Debye-Ang**2):
  XXX=           -515.4297  YYY=             87.6289  ZZZ=             69.5573  XYY=           -133.8087
  XXY=             21.7341  XXZ=              8.6095  XZZ=           -125.2665  YZZ=             10.1167
  YYZ=             17.0820  XYZ=             13.7518
 Hexadecapole moment (field-independent basis, Debye-Ang**3):
 XXXX=          -3469.9715 YYYY=           -692.0886 ZZZZ=           -364.0168 XXXY=            173.8666
 XXXZ=            125.0611 YYYX=            175.2499 YYYZ=           -155.7477 ZZZX=            139.1269
 ZZZY=           -123.2262 XXYY=           -617.8154 XXZZ=           -508.5121 YYZZ=           -155.4028
 XXYZ=            -26.3697 YYXZ=             30.8465 ZZXY=             13.4219
 N-N= 7.710933074673D+02 E-N=-8.697160346945D+03  KE= 3.005825524344D+03
 No NMR shielding tensors so no spin-rotation constants.
 Leave Link  601 at Thu May  2 14:19:46 2024, MaxMem=   134217728 cpu:               7.3 elap:               7.3
 (Enter /software/gaussian/g16-c01/sse4/g16/l9999.exe)
 Unable to Open any file for archive entry.
 1\1\GINC-BHX0018\SP\RwB97XD\6-311+G(d)\C6H5Br1N1O2(1+)\BWEIGHT\02-May-
 2024\0\\#P wB97XD/6-311+G* NoSymm #P Field=Z+145\\TitleMe\\1,1\C,0,0.5
 193,1.233,-0.0319\C,0,1.9445,1.2692,-0.0367\C,0,2.6204,0.0928,-0.025\C
 ,0,-0.196,0.0301,0.001\H,0,-0.0207,2.1742,-0.0434\H,0,2.4828,2.2089,-0
 .0361\H,0,-1.2777,0.0399,0.0117\N,0,4.0921,0.0959,0.0366\O,0,4.6393,-1
 .0217,0.1446\O,0,4.6649,1.1984,-0.0233\C,0,0.4943,-1.1671,0.021\H,0,-0
 .0325,-2.1149,0.0545\C,0,1.9629,-1.2165,-0.0211\H,0,2.4436,-1.9631,0.6
 151\Br,0,2.173,-1.9491,-1.9062\\Version=ES64L-G16RevC.01\HF=-3010.5436
 474\RMSD=7.790e-09\Dipole=-3.1469504,0.6370322,-0.0786016\Quadrupole=-
 6.5799972,6.5521346,0.0278626,-3.1102336,-5.9253331,3.7269715\PG=C01 [
 X(C6H5Br1N1O2)]\\@
 The archive entry for this job was punched.


 STEINBACH'S GUIDELINES FOR SYSTEMS PROGRAMMING:
 NEVER TEST FOR AN ERROR CONDITION YOU DON'T KNOW HOW
 TO HANDLE.
 Job cpu time:       0 days  0 hours 21 minutes 28.5 seconds.
 Elapsed time:       0 days  0 hours 21 minutes 28.6 seconds.
 File lengths (MBytes):  RWF=     40 Int=      0 D2E=      0 Chk=     32 Scr=      1
 Normal termination of Gaussian 16 at Thu May  2 14:19:47 2024.
