 Entering Gaussian System, Link 0=g16
 Initial command:
 /software/gaussian/g16-a03/l1.exe "/local_scratch/6484941/Gau-8711.inp" -scrdir="/local_scratch/6484941/"
 Entering Link 1 = /software/gaussian/g16-a03/l1.exe PID=      8714.
  
 Copyright (c) 1988,1990,1992,1993,1995,1998,2003,2009,2016,
            Gaussian, Inc.  All Rights Reserved.
  
 This is part of the Gaussian(R) 16 program.  It is based on
 the Gaussian(R) 09 system (copyright 2009, Gaussian, Inc.),
 the Gaussian(R) 03 system (copyright 2003, Gaussian, Inc.),
 the Gaussian(R) 98 system (copyright 1998, Gaussian, Inc.),
 the Gaussian(R) 94 system (copyright 1995, Gaussian, Inc.),
 the Gaussian 92(TM) system (copyright 1992, Gaussian, Inc.),
 the Gaussian 90(TM) system (copyright 1990, Gaussian, Inc.),
 the Gaussian 88(TM) system (copyright 1988, Gaussian, Inc.),
 the Gaussian 86(TM) system (copyright 1986, Carnegie Mellon
 University), and the Gaussian 82(TM) system (copyright 1983,
 Carnegie Mellon University). Gaussian is a federally registered
 trademark of Gaussian, Inc.
  
 This software contains proprietary and confidential information,
 including trade secrets, belonging to Gaussian, Inc.
  
 This software is provided under written license and may be
 used, copied, transmitted, or stored only in accord with that
 written license.
  
 The following legend is applicable only to US Government
 contracts under FAR:
  
                    RESTRICTED RIGHTS LEGEND
  
 Use, reproduction and disclosure by the US Government is
 subject to restrictions as set forth in subparagraphs (a)
 and (c) of the Commercial Computer Software - Restricted
 Rights clause in FAR 52.227-19.
  
 Gaussian, Inc.
 340 Quinnipiac St., Bldg. 40, Wallingford CT 06492
  
  
 ---------------------------------------------------------------
 Warning -- This program may not be used in any manner that
 competes with the business of Gaussian, Inc. or will provide
 assistance to any competitor of Gaussian, Inc.  The licensee
 of this program is prohibited from giving any competitor of
 Gaussian, Inc. access to this program.  By using this program,
 the user acknowledges that Gaussian, Inc. is engaged in the
 business of creating and licensing software in the field of
 computational chemistry and represents and warrants to the
 licensee that it is not a competitor of Gaussian, Inc. and that
 it will not use this program in any manner prohibited above.
 ---------------------------------------------------------------
  

 Cite this work as:
 Gaussian 16, Revision A.03,
 M. J. Frisch, G. W. Trucks, H. B. Schlegel, G. E. Scuseria, 
 M. A. Robb, J. R. Cheeseman, G. Scalmani, V. Barone, 
 G. A. Petersson, H. Nakatsuji, X. Li, M. Caricato, A. V. Marenich, 
 J. Bloino, B. G. Janesko, R. Gomperts, B. Mennucci, H. P. Hratchian, 
 J. V. Ortiz, A. F. Izmaylov, J. L. Sonnenberg, D. Williams-Young, 
 F. Ding, F. Lipparini, F. Egidi, J. Goings, B. Peng, A. Petrone, 
 T. Henderson, D. Ranasinghe, V. G. Zakrzewski, J. Gao, N. Rega, 
 G. Zheng, W. Liang, M. Hada, M. Ehara, K. Toyota, R. Fukuda, 
 J. Hasegawa, M. Ishida, T. Nakajima, Y. Honda, O. Kitao, H. Nakai, 
 T. Vreven, K. Throssell, J. A. Montgomery, Jr., J. E. Peralta, 
 F. Ogliaro, M. J. Bearpark, J. J. Heyd, E. N. Brothers, K. N. Kudin, 
 V. N. Staroverov, T. A. Keith, R. Kobayashi, J. Normand, 
 K. Raghavachari, A. P. Rendell, J. C. Burant, S. S. Iyengar, 
 J. Tomasi, M. Cossi, J. M. Millam, M. Klene, C. Adamo, R. Cammi, 
 J. W. Ochterski, R. L. Martin, K. Morokuma, O. Farkas, 
 J. B. Foresman, and D. J. Fox, Gaussian, Inc., Wallingford CT, 2016.
 
 ******************************************
 Gaussian 16:  ES64L-G16RevA.03 25-Dec-2016
                17-Sep-2021 
 ******************************************
 %chk=geometry.chk
 %mem=2GB
 %nprocshared=1
 Will use up to    1 processors via shared memory.
 --------------------------------------------------------------------
 #p B3LYP/6-311+G** #p TD=(singlets,nstates=30)IOp(6/8=3) IOp(9/40=4)
 --------------------------------------------------------------------
 1/38=1,172=1/1;
 2/12=2,17=6,18=5,40=1/2;
 3/5=4,6=6,7=111,11=9,25=1,30=1,74=-5/1,2,3,8;
 4//1;
 5/5=2,38=5/2;
 8/6=1,10=2,108=30/1;
 9/40=4,41=30,42=1,48=1,70=2/14;
 6/7=2,8=3,9=2,10=2/1;
 99/5=1,9=1/99;
 Leave Link    1 at Fri Sep 17 10:52:31 2021, MaxMem=   268435456 cpu:               0.0 elap:               0.4
 (Enter /software/gaussian/g16-a03/l101.exe)
 -------------------------------
 Scan Step 210, Bond Length 1.55
 -------------------------------
 Symbolic Z-matrix:
 Charge =  0 Multiplicity = 1
 C                     0.        0.       -0.52736 
 H                     0.        0.93726  -1.11871 
 H                     0.       -0.93726  -1.11871 
 O                     0.        0.        1.02264 
 
 ITRead=  0  0  0  0
 MicOpt= -1 -1 -1 -1
 NAtoms=      4 NQM=        4 NQMF=       0 NMMI=      0 NMMIF=      0
                NMic=       0 NMicF=      0.
                    Isotopes and Nuclear Properties:
 (Nuclear quadrupole moments (NQMom) in fm**2, nuclear magnetic moments (NMagM)
  in nuclear magnetons)

  Atom         1           2           3           4
 IAtWgt=          12           1           1          16
 AtmWgt=  12.0000000   1.0078250   1.0078250  15.9949146
 NucSpn=           0           1           1           0
 AtZEff=  -0.0000000  -0.0000000  -0.0000000  -0.0000000
 NQMom=    0.0000000   0.0000000   0.0000000   0.0000000
 NMagM=    0.0000000   2.7928460   2.7928460   0.0000000
 AtZNuc=   6.0000000   1.0000000   1.0000000   8.0000000
 Leave Link  101 at Fri Sep 17 10:52:32 2021, MaxMem=   268435456 cpu:               0.1 elap:               0.1
 (Enter /software/gaussian/g16-a03/l202.exe)
                          Input orientation:                          
 ---------------------------------------------------------------------
 Center     Atomic      Atomic             Coordinates (Angstroms)
 Number     Number       Type             X           Y           Z
 ---------------------------------------------------------------------
      1          6           0        0.000000    0.000000   -0.527360
      2          1           0        0.000000    0.937260   -1.118710
      3          1           0        0.000000   -0.937260   -1.118710
      4          8           0        0.000000    0.000000    1.022640
 ---------------------------------------------------------------------
                    Distance matrix (angstroms):
                    1          2          3          4
     1  C    0.000000
     2  H    1.108220   0.000000
     3  H    1.108220   1.874520   0.000000
     4  O    1.550000   2.337485   2.337485   0.000000
 Stoichiometry    CH2O
 Framework group  C2V[C2(CO),SGV(H2)]
 Deg. of freedom     3
 Full point group                 C2V     NOp   4
 Largest Abelian subgroup         C2V     NOp   4
 Largest concise Abelian subgroup C2      NOp   2
                         Standard orientation:                         
 ---------------------------------------------------------------------
 Center     Atomic      Atomic             Coordinates (Angstroms)
 Number     Number       Type             X           Y           Z
 ---------------------------------------------------------------------
      1          6           0        0.000000    0.000000   -0.701081
      2          1           0        0.000000    0.937260   -1.292431
      3          1           0       -0.000000   -0.937260   -1.292431
      4          8           0        0.000000   -0.000000    0.848919
 ---------------------------------------------------------------------
 Rotational constants (GHZ):         285.4183527          24.5644534          22.6178539
 Leave Link  202 at Fri Sep 17 10:52:32 2021, MaxMem=   268435456 cpu:               0.0 elap:               0.0
 (Enter /software/gaussian/g16-a03/l301.exe)
 Standard basis: 6-311+G(d,p) (5D, 7F)
 Ernie: Thresh=  0.10000D-02 Tol=  0.10000D-05 Strict=F.
 There are    29 symmetry adapted cartesian basis functions of A1  symmetry.
 There are     3 symmetry adapted cartesian basis functions of A2  symmetry.
 There are    11 symmetry adapted cartesian basis functions of B1  symmetry.
 There are    15 symmetry adapted cartesian basis functions of B2  symmetry.
 There are    27 symmetry adapted basis functions of A1  symmetry.
 There are     3 symmetry adapted basis functions of A2  symmetry.
 There are    11 symmetry adapted basis functions of B1  symmetry.
 There are    15 symmetry adapted basis functions of B2  symmetry.
    56 basis functions,    88 primitive gaussians,    58 cartesian basis functions
     8 alpha electrons        8 beta electrons
       nuclear repulsion energy        26.0219466457 Hartrees.
 IExCor=  402 DFT=T Ex+Corr=B3LYP ExCW=0 ScaHFX=  0.200000
 ScaDFX=  0.800000  0.720000  1.000000  0.810000 ScalE2=  1.000000  1.000000
 IRadAn=      5 IRanWt=     -1 IRanGd=            0 ICorTp=0 IEmpDi=  4
 NAtoms=    4 NActive=    4 NUniq=    3 SFac= 1.78D+00 NAtFMM=   60 NAOKFM=F Big=F
 Integral buffers will be    131072 words long.
 Regular integral format.
 Two-electron integral symmetry is turned on.
 Leave Link  301 at Fri Sep 17 10:52:32 2021, MaxMem=   268435456 cpu:               0.1 elap:               0.1
 (Enter /software/gaussian/g16-a03/l302.exe)
 NPDir=0 NMtPBC=     1 NCelOv=     1 NCel=       1 NClECP=     1 NCelD=      1
         NCelK=      1 NCelE2=     1 NClLst=     1 CellRange=     0.0.
 One-electron integrals computed using PRISM.
 One-electron integral symmetry used in STVInt
 NBasis=    56 RedAO= T EigKep=  8.93D-03  NBF=    27     3    11    15
 NBsUse=    56 1.00D-06 EigRej= -1.00D+00 NBFU=    27     3    11    15
 Precomputing XC quadrature grid using
 IXCGrd= 4 IRadAn=           5 IRanWt=          -1 IRanGd=           0 AccXCQ= 0.00D+00.
 Generated NRdTot=       0 NPtTot=           0 NUsed=           0 NTot=          32
 NSgBfM=    58    58    58    58    58 MxSgAt=     4 MxSgA2=     4.
 Leave Link  302 at Fri Sep 17 10:52:32 2021, MaxMem=   268435456 cpu:               0.1 elap:               0.1
 (Enter /software/gaussian/g16-a03/l303.exe)
 DipDrv:  MaxL=1.
 Leave Link  303 at Fri Sep 17 10:52:32 2021, MaxMem=   268435456 cpu:               0.0 elap:               0.1
 (Enter /software/gaussian/g16-a03/l308.exe)
 Leave Link  308 at Fri Sep 17 10:52:32 2021, MaxMem=   268435456 cpu:               0.0 elap:               0.0
 (Enter /software/gaussian/g16-a03/l401.exe)
 ExpMin= 4.38D-02 ExpMax= 8.59D+03 ExpMxC= 1.30D+03 IAcc=3 IRadAn=         5 AccDes= 0.00D+00
 Harris functional with IExCor=  402 and IRadAn=       5 diagonalized for initial guess.
 HarFok:  IExCor=  402 AccDes= 0.00D+00 IRadAn=         5 IDoV= 1 UseB2=F ITyADJ=14
 ICtDFT=  3500011 ScaDFX=  1.000000  1.000000  1.000000  1.000000
 FoFCou: FMM=F IPFlag=           0 FMFlag=      100000 FMFlg1=           0
         NFxFlg=           0 DoJE=T BraDBF=F KetDBF=T FulRan=T
         wScrn=  0.000000 ICntrl=       500 IOpCl=  0 I1Cent=   200000004 NGrid=           0
         NMat0=    1 NMatS0=      1 NMatT0=    0 NMatD0=    1 NMtDS0=    0 NMtDT0=    0
 Petite list used in FoFCou.
 Harris En= -114.466012665315    
 JPrj=0 DoOrth=F DoCkMO=F.
 Initial guess orbital symmetries:
       Occupied  (A1) (A1) (A1) (A1) (B2) (A1) (B1) (B2)
       Virtual   (B1) (A1) (A1) (B2) (B1) (A1) (A1) (B2) (A1) (B1)
                 (B2) (A1) (A1) (B2) (B1) (A1) (B2) (A1) (B1) (A2)
                 (A1) (B2) (B1) (A1) (B2) (A1) (A1) (B2) (B1) (A2)
                 (A1) (B2) (A1) (B2) (A1) (B1) (A1) (A2) (A1) (B1)
                 (B2) (B2) (A1) (B1) (B2) (A1) (A1) (A1)
 The electronic state of the initial guess is 1-A1.
 Leave Link  401 at Fri Sep 17 10:52:33 2021, MaxMem=   268435456 cpu:               0.3 elap:               0.3
 (Enter /software/gaussian/g16-a03/l502.exe)
 Keep R1 ints in memory in symmetry-blocked form, NReq=2159909.
 FoFCou: FMM=F IPFlag=           0 FMFlag=           0 FMFlg1=           0
         NFxFlg=           0 DoJE=F BraDBF=F KetDBF=F FulRan=T
         wScrn=  0.000000 ICntrl=       600 IOpCl=  0 I1Cent=           0 NGrid=           0
         NMat0=    1 NMatS0=   1596 NMatT0=    0 NMatD0=    1 NMtDS0=    0 NMtDT0=    0
 Petite list used in FoFCou.
 Closed shell SCF:
 Using DIIS extrapolation, IDIIS=  1040.
 NGot=   268435456 LenX=   268074384 LenY=   268070579
 Requested convergence on RMS density matrix=1.00D-08 within 128 cycles.
 Requested convergence on MAX density matrix=1.00D-06.
 Requested convergence on             energy=1.00D-06.
 No special actions if energy rises.

 Cycle   1  Pass 1  IDiag  1:
 E= -114.363856464564    
 DIIS: error= 6.05D-02 at cycle   1 NSaved=   1.
 NSaved= 1 IEnMin= 1 EnMin= -114.363856464564     IErMin= 1 ErrMin= 6.05D-02
 ErrMax= 6.05D-02  0.00D+00 EMaxC= 1.00D-01 BMatC= 9.78D-02 BMatP= 9.78D-02
 IDIUse=3 WtCom= 3.95D-01 WtEn= 6.05D-01
 Coeff-Com:  0.100D+01
 Coeff-En:   0.100D+01
 Coeff:      0.100D+01
 Gap=     0.038 Goal=   None    Shift=    0.000
 GapD=    0.038 DampG=0.250 DampE=0.500 DampFc=0.2500 IDamp=-1.
 Damping current iteration by 2.50D-01
 RMSDP=1.56D-02 MaxDP=1.38D-01              OVMax= 2.79D-01

 Cycle   2  Pass 1  IDiag  1:
 E= -114.371780825274     Delta-E=       -0.007924360710 Rises=F Damp=T
 DIIS: error= 1.21D-02 at cycle   2 NSaved=   2.
 NSaved= 2 IEnMin= 2 EnMin= -114.371780825274     IErMin= 2 ErrMin= 1.21D-02
 ErrMax= 1.21D-02  0.00D+00 EMaxC= 1.00D-01 BMatC= 1.00D-02 BMatP= 9.78D-02
 IDIUse=3 WtCom= 8.79D-01 WtEn= 1.21D-01
 Coeff-Com:  0.142D+00 0.858D+00
 Coeff-En:   0.455D+00 0.545D+00
 Coeff:      0.180D+00 0.820D+00
 Gap=     0.093 Goal=   None    Shift=    0.000
 RMSDP=1.98D-03 MaxDP=3.22D-02 DE=-7.92D-03 OVMax= 5.25D-01

 Cycle   3  Pass 1  IDiag  1:
 E= -114.444320270282     Delta-E=       -0.072539445008 Rises=F Damp=F
 DIIS: error= 8.50D-03 at cycle   3 NSaved=   3.
 NSaved= 3 IEnMin= 3 EnMin= -114.444320270282     IErMin= 3 ErrMin= 8.50D-03
 ErrMax= 8.50D-03  0.00D+00 EMaxC= 1.00D-01 BMatC= 2.19D-03 BMatP= 1.00D-02
 IDIUse=3 WtCom= 9.15D-01 WtEn= 8.50D-02
 Coeff-Com:  0.392D-01 0.281D+00 0.680D+00
 Coeff-En:   0.000D+00 0.000D+00 0.100D+01
 Coeff:      0.358D-01 0.257D+00 0.707D+00
 Gap=     0.147 Goal=   None    Shift=    0.000
 RMSDP=8.03D-04 MaxDP=1.74D-02 DE=-7.25D-02 OVMax= 3.05D-02

 Cycle   4  Pass 1  IDiag  1:
 E= -114.446059350749     Delta-E=       -0.001739080468 Rises=F Damp=F
 DIIS: error= 3.87D-03 at cycle   4 NSaved=   4.
 NSaved= 4 IEnMin= 4 EnMin= -114.446059350749     IErMin= 4 ErrMin= 3.87D-03
 ErrMax= 3.87D-03  0.00D+00 EMaxC= 1.00D-01 BMatC= 5.65D-04 BMatP= 2.19D-03
 IDIUse=3 WtCom= 9.61D-01 WtEn= 3.87D-02
 Coeff-Com:  0.314D-01-0.239D-02 0.286D+00 0.685D+00
 Coeff-En:   0.000D+00 0.000D+00 0.151D+00 0.849D+00
 Coeff:      0.302D-01-0.230D-02 0.280D+00 0.692D+00
 Gap=     0.151 Goal=   None    Shift=    0.000
 RMSDP=2.52D-04 MaxDP=5.97D-03 DE=-1.74D-03 OVMax= 6.91D-03

 Cycle   5  Pass 1  IDiag  1:
 E= -114.446582710260     Delta-E=       -0.000523359511 Rises=F Damp=F
 DIIS: error= 1.17D-03 at cycle   5 NSaved=   5.
 NSaved= 5 IEnMin= 5 EnMin= -114.446582710260     IErMin= 5 ErrMin= 1.17D-03
 ErrMax= 1.17D-03  0.00D+00 EMaxC= 1.00D-01 BMatC= 3.29D-05 BMatP= 5.65D-04
 IDIUse=3 WtCom= 9.88D-01 WtEn= 1.17D-02
 Coeff-Com:  0.179D-01-0.276D-01 0.641D-01 0.225D+00 0.720D+00
 Coeff-En:   0.000D+00 0.000D+00 0.000D+00 0.000D+00 0.100D+01
 Coeff:      0.177D-01-0.272D-01 0.633D-01 0.223D+00 0.724D+00
 Gap=     0.152 Goal=   None    Shift=    0.000
 RMSDP=4.73D-05 MaxDP=3.42D-04 DE=-5.23D-04 OVMax= 1.19D-03

 Cycle   6  Pass 1  IDiag  1:
 E= -114.446608180839     Delta-E=       -0.000025470578 Rises=F Damp=F
 DIIS: error= 4.53D-04 at cycle   6 NSaved=   6.
 NSaved= 6 IEnMin= 6 EnMin= -114.446608180839     IErMin= 6 ErrMin= 4.53D-04
 ErrMax= 4.53D-04  0.00D+00 EMaxC= 1.00D-01 BMatC= 4.08D-06 BMatP= 3.29D-05
 IDIUse=3 WtCom= 9.95D-01 WtEn= 4.53D-03
 Coeff-Com:  0.412D-02-0.491D-02 0.491D-02-0.170D-01-0.718D-01 0.108D+01
 Coeff-En:   0.000D+00 0.000D+00 0.000D+00 0.000D+00 0.000D+00 0.100D+01
 Coeff:      0.410D-02-0.489D-02 0.489D-02-0.169D-01-0.715D-01 0.108D+01
 Gap=     0.152 Goal=   None    Shift=    0.000
 RMSDP=1.85D-05 MaxDP=1.59D-04 DE=-2.55D-05 OVMax= 7.52D-04

 Cycle   7  Pass 1  IDiag  1:
 E= -114.446611839254     Delta-E=       -0.000003658415 Rises=F Damp=F
 DIIS: error= 5.07D-05 at cycle   7 NSaved=   7.
 NSaved= 7 IEnMin= 7 EnMin= -114.446611839254     IErMin= 7 ErrMin= 5.07D-05
 ErrMax= 5.07D-05  0.00D+00 EMaxC= 1.00D-01 BMatC= 5.41D-08 BMatP= 4.08D-06
 IDIUse=1 WtCom= 1.00D+00 WtEn= 0.00D+00
 Coeff-Com:  0.418D-03-0.438D-03 0.149D-02 0.180D-03-0.227D-02-0.327D-01
 Coeff-Com:  0.103D+01
 Coeff:      0.418D-03-0.438D-03 0.149D-02 0.180D-03-0.227D-02-0.327D-01
 Coeff:      0.103D+01
 Gap=     0.152 Goal=   None    Shift=    0.000
 RMSDP=1.46D-06 MaxDP=2.36D-05 DE=-3.66D-06 OVMax= 6.97D-05

 Cycle   8  Pass 1  IDiag  1:
 E= -114.446611884815     Delta-E=       -0.000000045561 Rises=F Damp=F
 DIIS: error= 1.37D-05 at cycle   8 NSaved=   8.
 NSaved= 8 IEnMin= 8 EnMin= -114.446611884815     IErMin= 8 ErrMin= 1.37D-05
 ErrMax= 1.37D-05  0.00D+00 EMaxC= 1.00D-01 BMatC= 3.51D-09 BMatP= 5.41D-08
 IDIUse=1 WtCom= 1.00D+00 WtEn= 0.00D+00
 Coeff-Com:  0.131D-04 0.735D-06 0.717D-04 0.505D-03 0.161D-02-0.433D-01
 Coeff-Com:  0.795D-01 0.962D+00
 Coeff:      0.131D-04 0.735D-06 0.717D-04 0.505D-03 0.161D-02-0.433D-01
 Coeff:      0.795D-01 0.962D+00
 Gap=     0.152 Goal=   None    Shift=    0.000
 RMSDP=6.01D-07 MaxDP=6.33D-06 DE=-4.56D-08 OVMax= 2.86D-05

 Cycle   9  Pass 1  IDiag  1:
 E= -114.446611888056     Delta-E=       -0.000000003241 Rises=F Damp=F
 DIIS: error= 1.88D-07 at cycle   9 NSaved=   9.
 NSaved= 9 IEnMin= 9 EnMin= -114.446611888056     IErMin= 9 ErrMin= 1.88D-07
 ErrMax= 1.88D-07  0.00D+00 EMaxC= 1.00D-01 BMatC= 9.16D-13 BMatP= 3.51D-09
 IDIUse=1 WtCom= 1.00D+00 WtEn= 0.00D+00
 Coeff-Com:  0.143D-06-0.949D-06-0.384D-05 0.456D-04 0.117D-03-0.347D-04
 Coeff-Com: -0.100D-01 0.304D-01 0.980D+00
 Coeff:      0.143D-06-0.949D-06-0.384D-05 0.456D-04 0.117D-03-0.347D-04
 Coeff:     -0.100D-01 0.304D-01 0.980D+00
 Gap=     0.152 Goal=   None    Shift=    0.000
 RMSDP=1.93D-08 MaxDP=1.86D-07 DE=-3.24D-09 OVMax= 4.28D-07

 Cycle  10  Pass 1  IDiag  1:
 E= -114.446611888057     Delta-E=       -0.000000000001 Rises=F Damp=F
 DIIS: error= 4.13D-08 at cycle  10 NSaved=  10.
 NSaved=10 IEnMin=10 EnMin= -114.446611888057     IErMin=10 ErrMin= 4.13D-08
 ErrMax= 4.13D-08  0.00D+00 EMaxC= 1.00D-01 BMatC= 5.14D-14 BMatP= 9.16D-13
 IDIUse=1 WtCom= 1.00D+00 WtEn= 0.00D+00
 Coeff-Com: -0.187D-06 0.367D-07 0.109D-05 0.527D-05-0.170D-05 0.483D-03
 Coeff-Com: -0.165D-02-0.775D-02 0.940D-01 0.915D+00
 Coeff:     -0.187D-06 0.367D-07 0.109D-05 0.527D-05-0.170D-05 0.483D-03
 Coeff:     -0.165D-02-0.775D-02 0.940D-01 0.915D+00
 Gap=     0.152 Goal=   None    Shift=    0.000
 RMSDP=2.82D-09 MaxDP=2.73D-08 DE=-5.12D-13 OVMax= 6.43D-08

 SCF Done:  E(RB3LYP) =  -114.446611888     A.U. after   10 cycles
            NFock= 10  Conv=0.28D-08     -V/T= 2.0090
 KE= 1.134273570221D+02 PE=-3.205977972589D+02 EE= 6.670188170307D+01
 Leave Link  502 at Fri Sep 17 10:52:35 2021, MaxMem=   268435456 cpu:               1.8 elap:               2.2
 (Enter /software/gaussian/g16-a03/l801.exe)
 DoSCS=F DFT=T ScalE2(SS,OS)=  1.000000  1.000000
 ExpMin= 4.38D-02 ExpMax= 8.59D+03 ExpMxC= 1.30D+03 IAcc=3 IRadAn=         5 AccDes= 0.00D+00
 HarFok:  IExCor=  205 AccDes= 0.00D+00 IRadAn=         5 IDoV=-2 UseB2=F ITyADJ=14
 ICtDFT= 12500011 ScaDFX=  1.000000  1.000000  1.000000  1.000000
 Largest valence mixing into a core orbital is  5.31D-05
 Largest core mixing into a valence orbital is  1.22D-05
 Range of M.O.s used for correlation:     3    56
 NBasis=    56 NAE=     8 NBE=     8 NFC=     2 NFV=     0
 NROrb=     54 NOA=     6 NOB=     6 NVA=    48 NVB=    48
 Leave Link  801 at Fri Sep 17 10:52:35 2021, MaxMem=   268435456 cpu:               0.2 elap:               0.2
 (Enter /software/gaussian/g16-a03/l914.exe)
 RHF ground state
 Keep R1, R2, and R3 ints in memory in symmetry-blocked form, NReq=6042848.
 FoFCou: FMM=F IPFlag=           0 FMFlag=           0 FMFlg1=           0
         NFxFlg=           0 DoJE=F BraDBF=F KetDBF=F FulRan=T
         wScrn=  0.000000 ICntrl=       600 IOpCl=  0 I1Cent=           0 NGrid=           0
         NMat0=    1 NMatS0=   1596 NMatT0=    0 NMatD0=    1 NMtDS0=    0 NMtDT0=    0
 Petite list used in FoFCou.
 MDV=   268435456 DFT=T DoStab=F Mixed=T DoRPA=T DoScal=F NonHer=T
 Making orbital integer symmetry assigments:
 Orbital symmetries:
       Occupied  (A1) (A1) (A1) (A1) (B2) (A1) (B1) (B2)
       Virtual   (B1) (A1) (A1) (B2) (B1) (A1) (A1) (B2) (A1) (B1)
                 (B2) (A1) (A1) (B2) (B1) (A1) (B2) (A1) (A2) (B1)
                 (A1) (B2) (B1) (A1) (B2) (A1) (A1) (B2) (B1) (A2)
                 (A1) (B2) (A1) (B2) (A1) (B1) (A1) (A2) (A1) (B1)
                 (B2) (B2) (A1) (B1) (B2) (A1) (A1) (A1)
   120 initial guesses have been made.
 Convergence on wavefunction:    0.001000000000000
 Davidson Disk Diagonalization:  ConvIn= 1.00D-03 SkipCon=T Conv= 1.00D-03.
 Max sub-space:  1728 roots to seek:   120 dimension of matrix:          576
 Iteration     1 Dimension   120 NMult     0 NNew    120
 CISAX will form   120 AO SS matrices at one time.
 NMat=   120 NSing=   120 JSym2X=-1.
 New state      3 was old state      4
 New state      4 was old state      3
 New state      6 was old state      8
 New state      7 was old state      6
 New state      8 was old state      7
 New state      9 was old state     10
 New state     10 was old state      9
 New state     14 was old state     15
 New state     15 was old state     14
 New state     16 was old state     17
 New state     17 was old state     18
 New state     18 was old state     20
 New state     19 was old state     16
 New state     20 was old state     19
 New state     22 was old state     24
 New state     23 was old state     22
 New state     24 was old state     23
 New state     27 was old state     28
 New state     28 was old state     30
 New state     29 was old state     27
 New state     30 was old state     29
 Excitation Energies [eV] at current iteration:
 Root      1 :     2.186723571175474
 Root      2 :     5.569269599340569
 Root      3 :     5.821447592286707
 Root      4 :     6.535216381671889
 Root      5 :     7.123778660876671
 Root      6 :     7.716421357320119
 Root      7 :     7.844225573792841
 Root      8 :     8.051385628488854
 Root      9 :     8.450278762619613
 Root     10 :     8.604316627031469
 Root     11 :     9.281249623083431
 Root     12 :     9.343872788886294
 Root     13 :     9.910192570567080
 Root     14 :    10.358173054004220
 Root     15 :    10.381207710345870
 Root     16 :    10.638680100880050
 Root     17 :    10.899179710134400
 Root     18 :    11.511043982873160
 Root     19 :    11.582664143052120
 Root     20 :    11.607895598497600
 Root     21 :    11.664310427382960
 Root     22 :    11.875736014175230
 Root     23 :    11.971938129484100
 Root     24 :    12.157623461809120
 Root     25 :    12.267011194305490
 Root     26 :    12.603429921860690
 Root     27 :    13.050967991710770
 Root     28 :    13.215731017743730
 Root     29 :    13.373407859849610
 Root     30 :    13.563242794967440
 Root     31 :    13.826152027507440
 Root     32 :    14.095480189964140
 Root     33 :    14.285701755123370
 Root     34 :    14.415581366170890
 Root     35 :    14.752610856690900
 Root     36 :    14.761999086378360
 Root     37 :    14.942357263066470
 Root     38 :    15.262076834710610
 Root     39 :    15.962249594491710
 Root     40 :    16.063940368052610
 Root     41 :    16.185017406737070
 Root     42 :    16.244877847941790
 Root     43 :    16.472520049213970
 Root     44 :    16.816093080232240
 Root     45 :    17.487911177186200
 Root     46 :    17.575455789874030
 Root     47 :    17.829087650710710
 Root     48 :    18.095112594240900
 Root     49 :    18.126348251178800
 Root     50 :    18.500934060601390
 Root     51 :    18.696026091027680
 Root     52 :    18.958440473650930
 Root     53 :    19.057159977802860
 Root     54 :    19.068996921355590
 Root     55 :    19.501244546306550
 Root     56 :    19.572663377090520
 Root     57 :    20.356810707841220
 Root     58 :    20.366057906803750
 Root     59 :    20.528711777431080
 Root     60 :    21.132495540172540
 Root     61 :    21.294690419285530
 Root     62 :    21.301453522166330
 Root     63 :    21.615449249336960
 Root     64 :    21.765119893317060
 Root     65 :    21.812695743393890
 Root     66 :    22.216536940336400
 Root     67 :    22.441244410127490
 Root     68 :    22.758149430929060
 Root     69 :    23.052862186986040
 Root     70 :    23.348203168090100
 Root     71 :    23.651098021802560
 Root     72 :    23.707507377140420
 Root     73 :    23.757992039164230
 Root     74 :    24.163712522585160
 Root     75 :    24.318416477680210
 Root     76 :    24.611117556003280
 Root     77 :    25.226278914739170
 Root     78 :    25.346988810303280
 Root     79 :    25.483681006137980
 Root     80 :    25.784568260887340
 Root     81 :    25.786469797082110
 Root     82 :    26.055970834934830
 Root     83 :    26.070163156203150
 Root     84 :    26.328675461620850
 Root     85 :    26.642312599890030
 Root     86 :    27.009516577516320
 Root     87 :    27.498056520623360
 Root     88 :    28.341696902062990
 Root     89 :    28.461671796500870
 Root     90 :    28.554568765571080
 Root     91 :    29.065641187898350
 Root     92 :    29.245799646095160
 Root     93 :    29.574844236616520
 Root     94 :    30.305620305483230
 Root     95 :    30.354066405350880
 Root     96 :    30.971484270786820
 Root     97 :    31.013521936046960
 Root     98 :    31.086346420723510
 Root     99 :    32.510139007891600
 Root    100 :    33.031516938853210
 Root    101 :    33.098902921388860
 Root    102 :    33.364539605629440
 Root    103 :    33.468763126800430
 Root    104 :    34.290768266083860
 Root    105 :    34.891022426991850
 Root    106 :    35.038284522979100
 Root    107 :    35.224366333518500
 Root    108 :    35.655817631345240
 Root    109 :    35.859580780898950
 Root    110 :    36.559653772052530
 Root    111 :    36.621696999642640
 Root    112 :    36.955943219419600
 Root    113 :    37.205527606794020
 Root    114 :    37.965291681147960
 Root    115 :    38.029917206808930
 Root    116 :    38.931852998470820
 Root    117 :    39.089358258708640
 Root    118 :    39.154952415487140
 Root    119 :    39.925253767824860
 Root    120 :    44.006083352759210
 Iteration     2 Dimension   180 NMult   120 NNew     60
 CISAX will form    60 AO SS matrices at one time.
 NMat=    60 NSing=    60 JSym2X=-1.
 Root      1 not converged, maximum delta is    0.006563665096012
 Root      2 not converged, maximum delta is    0.007837703951899
 Root      3 not converged, maximum delta is    0.010813743029717
 Root      4 not converged, maximum delta is    0.014728233357566
 Root      5 not converged, maximum delta is    0.014716092390309
 Root      6 not converged, maximum delta is    0.011091949300353
 Root      7 not converged, maximum delta is    0.009063016853298
 Root      8 not converged, maximum delta is    0.001979563719850
 Root      9 not converged, maximum delta is    0.008983359386958
 Root     10 not converged, maximum delta is    0.001940923701707
 Root     11 not converged, maximum delta is    0.001663642591095
 Root     12 not converged, maximum delta is    0.005082329478191
 Root     13 not converged, maximum delta is    0.002400122814289
 Root     14 not converged, maximum delta is    0.003417570223827
 Root     15 not converged, maximum delta is    0.003427221025233
 Root     16 not converged, maximum delta is    0.003749137647792
 Root     17 not converged, maximum delta is    0.004878533423901
 Root     18 not converged, maximum delta is    0.003598451149400
 Root     19 not converged, maximum delta is    0.007955526099738
 Root     20 not converged, maximum delta is    0.011288254484112
 Root     21 not converged, maximum delta is    0.011109593646514
 Root     22 not converged, maximum delta is    0.004208945474362
 Root     23 not converged, maximum delta is    0.010958392756746
 Root     24 not converged, maximum delta is    0.001493042729144
 Root     25 not converged, maximum delta is    0.006576395369656
 Root     26 not converged, maximum delta is    0.010425706433254
 Root     27 not converged, maximum delta is    0.002646733195205
 Root     28 not converged, maximum delta is    0.011838905350893
 Root     29 not converged, maximum delta is    0.010448220378513
 Root     30 not converged, maximum delta is    0.006268074570065
 Excitation Energies [eV] at current iteration:
 Root      1 :     2.177766560905069   Change is   -0.008957010270405
 Root      2 :     5.545858800179039   Change is   -0.023410799161531
 Root      3 :     5.783740472779903   Change is   -0.037707119506804
 Root      4 :     6.513724395953021   Change is   -0.021491985718868
 Root      5 :     7.113307859051630   Change is   -0.010470801825042
 Root      6 :     7.701274072577954   Change is   -0.015147284742165
 Root      7 :     7.833273881854855   Change is   -0.010951691937986
 Root      8 :     8.050182293829577   Change is   -0.001203334659278
 Root      9 :     8.442614293604496   Change is   -0.007664469015116
 Root     10 :     8.603930407399339   Change is   -0.000386219632131
 Root     11 :     9.280692175251913   Change is   -0.000557447831518
 Root     12 :     9.326865970659915   Change is   -0.017006818226379
 Root     13 :     9.907551810304849   Change is   -0.002640760262231
 Root     14 :    10.353697544415830   Change is   -0.004475509588392
 Root     15 :    10.375426598637700   Change is   -0.005781111708173
 Root     16 :    10.630696286956280   Change is   -0.007983813923778
 Root     17 :    10.889902427832880   Change is   -0.009277282301514
 Root     18 :    11.508153293976830   Change is   -0.002890688896329
 Root     19 :    11.569804078333270   Change is   -0.012860064718851
 Root     20 :    11.606303938365350   Change is   -0.001591660132259
 Root     21 :    11.656386029965610   Change is   -0.007924397417348
 Root     22 :    11.873297874974200   Change is   -0.002438139201028
 Root     23 :    11.955657477657590   Change is   -0.016280651826510
 Root     24 :    12.156779702985610   Change is   -0.000843758823509
 Root     25 :    12.263481314781240   Change is   -0.003529879524250
 Root     26 :    12.591704313206260   Change is   -0.011725608654426
 Root     27 :    13.048690323686020   Change is   -0.002277668024752
 Root     28 :    13.206464074120170   Change is   -0.009266943623560
 Root     29 :    13.364831595320880   Change is   -0.008576264528726
 Root     30 :    13.555921768070550   Change is   -0.007321026896885
 Iteration     3 Dimension   240 NMult   180 NNew     60
 CISAX will form    60 AO SS matrices at one time.
 NMat=    60 NSing=    60 JSym2X=-1.
 Root      1 has converged.
 Root      2 has converged.
 Root      3 has converged.
 Root      4 has converged.
 Root      5 has converged.
 Root      6 has converged.
 Root      7 has converged.
 Root      8 has converged.
 Root      9 has converged.
 Root     10 has converged.
 Root     11 has converged.
 Root     12 has converged.
 Root     13 has converged.
 Root     14 has converged.
 Root     15 has converged.
 Root     16 has converged.
 Root     17 has converged.
 Root     18 has converged.
 Root     19 has converged.
 Root     20 has converged.
 Root     21 has converged.
 Root     22 has converged.
 Root     23 has converged.
 Root     24 has converged.
 Root     25 has converged.
 Root     26 has converged.
 Root     27 has converged.
 Root     28 has converged.
 Root     29 has converged.
 Root     30 has converged.
 Excitation Energies [eV] at current iteration:
 Root      1 :     2.177765367698912   Change is   -0.000001193206157
 Root      2 :     5.545836319126842   Change is   -0.000022481052196
 Root      3 :     5.783715851358589   Change is   -0.000024621421314
 Root      4 :     6.513710690224466   Change is   -0.000013705728555
 Root      5 :     7.113301080780515   Change is   -0.000006778271114
 Root      6 :     7.701267215955037   Change is   -0.000006856622917
 Root      7 :     7.833268498919317   Change is   -0.000005382935538
 Root      8 :     8.050181135117075   Change is   -0.000001158712502
 Root      9 :     8.442610161472659   Change is   -0.000004132131838
 Root     10 :     8.603930353613212   Change is   -0.000000053786126
 Root     11 :     9.280691814901365   Change is   -0.000000360350548
 Root     12 :     9.326848809504236   Change is   -0.000017161155679
 Root     13 :     9.907546689562226   Change is   -0.000005120742622
 Root     14 :    10.353693353435050   Change is   -0.000004190980779
 Root     15 :    10.375415198454640   Change is   -0.000011400183054
 Root     16 :    10.630689418209380   Change is   -0.000006868746892
 Root     17 :    10.889881879706820   Change is   -0.000020548126067
 Root     18 :    11.508149940619130   Change is   -0.000003353357698
 Root     19 :    11.569766236280190   Change is   -0.000037842053080
 Root     20 :    11.606301854368590   Change is   -0.000002083996759
 Root     21 :    11.656376746306890   Change is   -0.000009283658723
 Root     22 :    11.873293675905000   Change is   -0.000004199069200
 Root     23 :    11.955633092147930   Change is   -0.000024385509664
 Root     24 :    12.156779137489790   Change is   -0.000000565495820
 Root     25 :    12.263479827374030   Change is   -0.000001487407211
 Root     26 :    12.591690566969020   Change is   -0.000013746237246
 Root     27 :    13.048686209141280   Change is   -0.000004114544742
 Root     28 :    13.206444077939850   Change is   -0.000019996180321
 Root     29 :    13.364814672738780   Change is   -0.000016922582104
 Root     30 :    13.555901452682280   Change is   -0.000020315388271
 Convergence achieved on expansion vectors.
 ***********************************************************************
 Excited states from <AA,BB:AA,BB> singles matrix:
 ***********************************************************************
 
 1PDM for each excited state written to RWF  633
 Ground to excited state transition densities written to RWF  633
 Ground to excited state transition electric dipole moments (Au):
       state          X           Y           Z        Dip. S.      Osc.
         1        -0.0000      0.0000     -0.0000      0.0000      0.0000
         2        -0.0000     -0.0000      0.8096      0.6554      0.0891
         3         0.1021     -0.0000      0.0000      0.0104      0.0015
         4         0.0000      0.3379     -0.0000      0.1142      0.0182
         5        -0.0000     -0.1615     -0.0000      0.0261      0.0045
         6        -0.0000     -0.0000      0.0000      0.0000      0.0000
         7        -0.0049      0.0000     -0.0000      0.0000      0.0000
         8         0.0000      0.0000     -0.3398      0.1155      0.0228
         9        -0.7225     -0.0000      0.0000      0.5220      0.1080
        10        -0.0000      0.0000     -0.0000      0.0000      0.0000
        11        -0.0000      0.0000      0.0000      0.0000      0.0000
        12        -0.0000      0.1649     -0.0000      0.0272      0.0062
        13         0.0000      0.0000      0.1002      0.0100      0.0024
        14         0.0000     -0.3947      0.0000      0.1558      0.0395
        15         0.0000      0.0000      0.6143      0.3774      0.0959
        16         0.0352      0.0000     -0.0000      0.0012      0.0003
        17        -0.0000      0.0000     -0.2525      0.0638      0.0170
        18        -0.3723     -0.0000     -0.0000      0.1386      0.0391
        19         0.0000     -0.0000     -1.0889      1.1858      0.3361
        20         0.0000     -0.3258     -0.0000      0.1061      0.0302
        21        -0.0000      0.0071     -0.0000      0.0001      0.0000
        22         0.0000      0.0000      0.0000      0.0000      0.0000
        23        -0.0000     -0.4669      0.0000      0.2180      0.0638
        24        -0.1372     -0.0000      0.0000      0.0188      0.0056
        25         0.0000     -0.0000      0.0000      0.0000      0.0000
        26         0.0000     -0.5259      0.0000      0.2766      0.0853
        27         0.1373     -0.0000     -0.0000      0.0189      0.0060
        28        -0.0000      0.0000     -0.5488      0.3012      0.0975
        29        -0.0000      0.0000     -0.7941      0.6307      0.2065
        30        -0.0000      0.0000      0.0191      0.0004      0.0001
 Ground to excited state transition velocity dipole moments (Au):
       state          X           Y           Z        Dip. S.      Osc.
         1         0.0000     -0.0000      0.0000      0.0000      0.0000
         2        -0.0000     -0.0000     -0.1519      0.0231      0.0755
         3        -0.0391     -0.0000     -0.0000      0.0015      0.0048
         4        -0.0000     -0.0821      0.0000      0.0067      0.0188
         5         0.0000      0.0396      0.0000      0.0016      0.0040
         6         0.0000      0.0000     -0.0000      0.0000      0.0000
         7         0.0091     -0.0000      0.0000      0.0001      0.0002
         8        -0.0000      0.0000      0.0984      0.0097      0.0218
         9         0.2254     -0.0000     -0.0000      0.0508      0.1092
        10         0.0000     -0.0000      0.0000      0.0000      0.0000
        11         0.0000     -0.0000     -0.0000      0.0000      0.0000
        12         0.0000     -0.0617      0.0000      0.0038      0.0074
        13        -0.0000      0.0000     -0.0332      0.0011      0.0020
        14        -0.0000      0.1532     -0.0000      0.0235      0.0411
        15        -0.0000     -0.0000     -0.2390      0.0571      0.0998
        16        -0.0366     -0.0000      0.0000      0.0013      0.0023
        17        -0.0000     -0.0000      0.1130      0.0128      0.0213
        18         0.1471      0.0000      0.0000      0.0217      0.0341
        19         0.0000      0.0000      0.4661      0.2173      0.3407
        20        -0.0000      0.1367      0.0000      0.0187      0.0292
        21         0.0000     -0.0145      0.0000      0.0002      0.0003
        22        -0.0000     -0.0000     -0.0000      0.0000      0.0000
        23         0.0000      0.2062     -0.0000      0.0425      0.0645
        24         0.0565      0.0000     -0.0000      0.0032      0.0048
        25         0.0000      0.0000     -0.0000      0.0000      0.0000
        26        -0.0000      0.2375     -0.0000      0.0564      0.0813
        27        -0.0583      0.0000      0.0000      0.0034      0.0047
        28        -0.0000     -0.0000      0.2529      0.0640      0.0878
        29         0.0000      0.0000      0.3812      0.1453      0.1973
        30        -0.0000      0.0000     -0.0073      0.0001      0.0001
 Ground to excited state transition magnetic dipole moments (Au):
       state          X           Y           Z
         1         0.0000     -0.0000      1.0560
         2         0.0000     -0.0000      0.0000
         3        -0.0000     -1.7038      0.0000
         4        -0.1561     -0.0000     -0.0000
         5        -0.4515      0.0000      0.0000
         6        -0.0000     -0.0000     -0.9495
         7         0.0000      0.3678     -0.0000
         8        -0.0000     -0.0000     -0.0000
         9        -0.0000     -0.3086      0.0000
        10         0.0000      0.0000      0.0091
        11        -0.0000     -0.0000      0.0283
        12         0.5763     -0.0000     -0.0000
        13        -0.0000     -0.0000      0.0000
        14         0.4307     -0.0000     -0.0000
        15        -0.0000     -0.0000     -0.0000
        16        -0.0000     -0.4053     -0.0000
        17        -0.0000     -0.0000      0.0000
        18        -0.0000      0.3521      0.0000
        19        -0.0000     -0.0000     -0.0000
        20        -0.1238     -0.0000     -0.0000
        21         0.2095      0.0000     -0.0000
        22         0.0000      0.0000     -0.0496
        23        -0.0772     -0.0000     -0.0000
        24         0.0000      0.1433     -0.0000
        25         0.0000     -0.0000     -0.0337
        26         0.9976      0.0000      0.0000
        27         0.0000     -0.0447     -0.0000
        28        -0.0000     -0.0000     -0.0000
        29        -0.0000      0.0000     -0.0000
        30        -0.0000     -0.0000     -0.0000
 Ground to excited state transition velocity quadrupole moments (Au):
       state          XX          YY          ZZ          XY          XZ          YZ
         1         0.0000     -0.0000     -0.0000     -0.0418     -0.0000      0.0000
         2         0.1009     -0.0046     -0.0594      0.0000     -0.0000     -0.0000
         3        -0.0000     -0.0000     -0.0000     -0.0000     -0.1738     -0.0000
         4        -0.0000     -0.0000      0.0000      0.0000      0.0000      0.1255
         5        -0.0000     -0.0000     -0.0000     -0.0000     -0.0000      0.3261
         6        -0.0000     -0.0000      0.0000      0.1831      0.0000      0.0000
         7        -0.0000     -0.0000      0.0000      0.0000     -0.2670      0.0000
         8         0.0243     -0.0261     -0.2343     -0.0000     -0.0000      0.0000
         9         0.0000      0.0000      0.0000      0.0000      0.0424      0.0000
        10        -0.0000     -0.0000     -0.0000      0.0326     -0.0000      0.0000
        11         0.0000      0.0000      0.0000      0.2857      0.0000     -0.0000
        12         0.0000      0.0000     -0.0000      0.0000     -0.0000     -0.1910
        13         0.8072      0.0327     -0.0607     -0.0000     -0.0000      0.0000
        14        -0.0000     -0.0000     -0.0000      0.0000     -0.0000     -0.1377
        15        -0.0373     -0.0603      0.3143     -0.0000     -0.0000      0.0000
        16        -0.0000      0.0000     -0.0000      0.0000     -0.2594      0.0000
        17         0.2681      0.3921      0.5226     -0.0000     -0.0000      0.0000
        18        -0.0000     -0.0000     -0.0000      0.0000      0.0018     -0.0000
        19        -0.0236     -0.3860     -0.2591      0.0000     -0.0000     -0.0000
        20         0.0000     -0.0000     -0.0000     -0.0000      0.0000     -0.3295
        21         0.0000     -0.0000      0.0000     -0.0000      0.0000      0.4480
        22        -0.0000      0.0000     -0.0000     -0.2526      0.0000      0.0000
        23        -0.0000      0.0000     -0.0000      0.0000     -0.0000     -0.8162
        24        -0.0000      0.0000     -0.0000      0.0000     -0.1178      0.0000
        25        -0.0000      0.0000     -0.0000      0.3850      0.0000      0.0000
        26        -0.0000      0.0000      0.0000     -0.0000     -0.0000     -0.1457
        27        -0.0000     -0.0000      0.0000     -0.0000      0.2576     -0.0000
        28        -0.0669      0.2688      0.1784      0.0000     -0.0000      0.0000
        29         0.1738     -0.9311     -0.0241     -0.0000      0.0000      0.0000
        30         0.2359      0.5880      0.3992     -0.0000     -0.0000      0.0000
 <0|del|b> * <b|rxdel|0> + <0|del|b> * <b|delr+rdel|0>
 Rotatory Strengths (R) in cgs (10**-40 erg-esu-cm/Gauss)
       state          XX          YY          ZZ    R(velocity)    E-M Angle
         1         0.0000      0.0000      0.0000      0.0000       90.00
         2        -0.0000      0.0000     -0.0000     -0.0000       90.00
         3         0.0000      0.0000      0.0000      0.0000       90.00
         4         0.0000      0.0000      0.0000      0.0000       90.00
         5         0.0000     -0.0000     -0.0000     -0.0000       90.00
         6         0.0000      0.0000     -0.0000      0.0000       90.00
         7        -0.0000      0.0000     -0.0000     -0.0000       90.00
         8        -0.0000      0.0000      0.0000     -0.0000       90.00
         9         0.0000     -0.0000     -0.0000      0.0000       90.00
        10         0.0000     -0.0000     -0.0000      0.0000       90.00
        11        -0.0000      0.0000      0.0000     -0.0000       90.00
        12         0.0000      0.0000      0.0000      0.0000       90.00
        13         0.0000     -0.0000      0.0000     -0.0000       90.00
        14        -0.0000     -0.0000     -0.0000     -0.0000       90.00
        15         0.0000     -0.0000      0.0000      0.0000       90.00
        16         0.0000      0.0000      0.0000      0.0000       90.00
        17        -0.0000      0.0000      0.0000      0.0000       90.00
        18         0.0000     -0.0000      0.0000      0.0000       90.00
        19         0.0000     -0.0000     -0.0000     -0.0000       90.00
        20        -0.0000      0.0000     -0.0000     -0.0000       90.00
        21        -0.0000      0.0000     -0.0000      0.0000       90.00
        22         0.0000     -0.0000     -0.0000      0.0000       90.00
        23         0.0000     -0.0000      0.0000     -0.0000       90.00
        24         0.0000      0.0000      0.0000      0.0000       90.00
        25        -0.0000      0.0000      0.0000      0.0000       90.00
        26         0.0000     -0.0000     -0.0000     -0.0000       90.00
        27        -0.0000     -0.0000     -0.0000     -0.0000       90.00
        28         0.0000     -0.0000      0.0000     -0.0000       90.00
        29        -0.0000     -0.0000     -0.0000     -0.0000       90.00
        30         0.0000      0.0000      0.0000      0.0000       90.00
 1/2[<0|r|b>*<b|rxdel|0> + (<0|rxdel|b>*<b|r|0>)*]
 Rotatory Strengths (R) in cgs (10**-40 erg-esu-cm/Gauss)
       state          XX          YY          ZZ     R(length)
         1         0.0000      0.0000      0.0000      0.0000
         2         0.0000     -0.0000     -0.0000     -0.0000
         3         0.0000     -0.0000     -0.0000     -0.0000
         4         0.0000      0.0000     -0.0000      0.0000
         5        -0.0000      0.0000      0.0000     -0.0000
         6        -0.0000     -0.0000      0.0000      0.0000
         7         0.0000     -0.0000     -0.0000     -0.0000
         8         0.0000      0.0000     -0.0000     -0.0000
         9        -0.0000     -0.0000     -0.0000     -0.0000
        10         0.0000     -0.0000      0.0000      0.0000
        11        -0.0000      0.0000     -0.0000     -0.0000
        12         0.0000      0.0000     -0.0000      0.0000
        13         0.0000      0.0000     -0.0000     -0.0000
        14        -0.0000     -0.0000      0.0000     -0.0000
        15         0.0000      0.0000      0.0000      0.0000
        16         0.0000      0.0000     -0.0000      0.0000
        17        -0.0000      0.0000      0.0000      0.0000
        18        -0.0000      0.0000      0.0000      0.0000
        19         0.0000     -0.0000     -0.0000     -0.0000
        20         0.0000     -0.0000     -0.0000     -0.0000
        21         0.0000     -0.0000     -0.0000      0.0000
        22        -0.0000     -0.0000      0.0000      0.0000
        23        -0.0000     -0.0000      0.0000     -0.0000
        24         0.0000      0.0000      0.0000      0.0000
        25        -0.0000     -0.0000      0.0000      0.0000
        26        -0.0000      0.0000     -0.0000     -0.0000
        27        -0.0000     -0.0000     -0.0000     -0.0000
        28        -0.0000      0.0000     -0.0000     -0.0000
        29        -0.0000     -0.0000     -0.0000     -0.0000
        30        -0.0000      0.0000      0.0000      0.0000
  1/2[<0|del|b>*<b|r|0> + (<0|r|b>*<b|del|0>)*] (Au)
       state          X           Y           Z        Dip. S.   Osc.(frdel)
         1        -0.0000     -0.0000     -0.0000      0.0000      0.0000
         2         0.0000      0.0000     -0.1230      0.1230      0.0820
         3        -0.0040      0.0000     -0.0000      0.0040      0.0027
         4        -0.0000     -0.0277     -0.0000      0.0277      0.0185
         5        -0.0000     -0.0064     -0.0000      0.0064      0.0043
         6        -0.0000     -0.0000     -0.0000      0.0000      0.0000
         7        -0.0000     -0.0000     -0.0000      0.0000      0.0000
         8        -0.0000      0.0000     -0.0334      0.0334      0.0223
         9        -0.1629      0.0000     -0.0000      0.1629      0.1086
        10        -0.0000     -0.0000     -0.0000      0.0000      0.0000
        11        -0.0000     -0.0000     -0.0000      0.0000      0.0000
        12        -0.0000     -0.0102     -0.0000      0.0102      0.0068
        13        -0.0000      0.0000     -0.0033      0.0033      0.0022
        14        -0.0000     -0.0605     -0.0000      0.0605      0.0403
        15        -0.0000     -0.0000     -0.1468      0.1468      0.0979
        16        -0.0013     -0.0000     -0.0000      0.0013      0.0009
        17         0.0000     -0.0000     -0.0285      0.0285      0.0190
        18        -0.0548     -0.0000     -0.0000      0.0548      0.0365
        19         0.0000     -0.0000     -0.5076      0.5076      0.3384
        20        -0.0000     -0.0445     -0.0000      0.0445      0.0297
        21        -0.0000     -0.0001     -0.0000      0.0001      0.0001
        22        -0.0000     -0.0000     -0.0000      0.0000      0.0000
        23        -0.0000     -0.0963     -0.0000      0.0963      0.0642
        24        -0.0077     -0.0000     -0.0000      0.0077      0.0052
        25         0.0000     -0.0000     -0.0000      0.0000      0.0000
        26        -0.0000     -0.1249     -0.0000      0.1249      0.0833
        27        -0.0080     -0.0000     -0.0000      0.0080      0.0053
        28         0.0000     -0.0000     -0.1388      0.1388      0.0925
        29        -0.0000      0.0000     -0.3027      0.3027      0.2018
        30         0.0000      0.0000     -0.0001      0.0001      0.0001

 Excitation energies and oscillator strengths:
 
 Excited State   1:      Singlet-A2     2.1778 eV  569.32 nm  f=0.0000  <S**2>=0.000
       3 -> 27         0.00132
       3 -> 38         0.00100
       3 -> 46         0.00324
       4 -> 27         0.00080
       4 -> 38        -0.00017
       4 -> 46        -0.00134
       5 ->  9         0.00913
       5 -> 13         0.00078
       5 -> 18         0.00321
       5 -> 23         0.00160
       5 -> 28         0.00283
       5 -> 31        -0.00026
       5 -> 37         0.00158
       5 -> 44         0.00036
       5 -> 52         0.00039
       6 -> 27        -0.00062
       6 -> 38        -0.00081
       6 -> 46         0.00142
       7 -> 12        -0.00084
       7 -> 16         0.00457
       7 -> 19        -0.00390
       7 -> 22        -0.00066
       7 -> 25         0.00103
       7 -> 30        -0.00146
       7 -> 33         0.00039
       7 -> 49         0.00013
       7 -> 50         0.00018
       7 -> 53         0.00045
       8 ->  9         0.70814
       8 -> 13        -0.01523
       8 -> 18         0.02177
       8 -> 23        -0.00416
       8 -> 28         0.01107
       8 -> 31         0.00080
       8 -> 37         0.00065
       8 -> 48        -0.00031
       8 -> 52         0.00194
       3 <- 27         0.00065
       3 <- 38         0.00072
       3 <- 46         0.00330
       4 <- 27         0.00136
       4 <- 38         0.00023
       4 <- 46        -0.00109
       5 <-  9        -0.00035
       5 <- 13        -0.00056
       5 <- 18        -0.00075
       5 <- 23         0.00030
       5 <- 28        -0.00052
       5 <- 31         0.00039
       5 <- 37         0.00087
       5 <- 44         0.00012
       5 <- 52         0.00010
       6 <- 38        -0.00067
       6 <- 46         0.00110
       7 <- 12         0.00041
       7 <- 16        -0.00983
       7 <- 19         0.00332
       7 <- 22         0.00709
       7 <- 25         0.00049
       7 <- 30         0.00513
       7 <- 33        -0.00060
       7 <- 36         0.00102
       7 <- 40         0.00057
       7 <- 42         0.00012
       7 <- 49        -0.00035
       7 <- 50         0.00011
       7 <- 53         0.00145
       8 <-  9        -0.04724
       8 <- 13         0.00071
       8 <- 18        -0.00632
       8 <- 23         0.00028
       8 <- 28        -0.00224
       8 <- 31        -0.00059
       8 <- 37        -0.00054
       8 <- 52         0.00052
 This state for optimization and/or second-order correction.
 Total Energy, E(TD-HF/TD-DFT) =  -114.366580483    
 Copying the excited state density for this state as the 1-particle RhoCI density.
 
 Excited State   2:      Singlet-A1     5.5458 eV  223.56 nm  f=0.0891  <S**2>=0.000
       3 -> 10         0.01226
       3 -> 11        -0.01623
       3 -> 14        -0.01296
       3 -> 15         0.01137
       3 -> 17        -0.00364
       3 -> 20        -0.00360
       3 -> 21        -0.00188
       3 -> 24         0.00315
       3 -> 26         0.00481
       3 -> 29        -0.00091
       3 -> 32         0.00278
       3 -> 34         0.00303
       3 -> 35        -0.00054
       3 -> 39         0.00094
       3 -> 43         0.00043
       3 -> 45        -0.00039
       3 -> 47         0.00218
       3 -> 51         0.00087
       3 -> 54         0.00024
       4 -> 10         0.01588
       4 -> 11         0.01114
       4 -> 14        -0.00852
       4 -> 15        -0.00916
       4 -> 17         0.00324
       4 -> 20         0.00631
       4 -> 21         0.00039
       4 -> 24        -0.00554
       4 -> 26         0.00542
       4 -> 29         0.00115
       4 -> 32        -0.00128
       4 -> 34        -0.00210
       4 -> 35         0.00021
       4 -> 39        -0.00014
       4 -> 41         0.00014
       4 -> 43        -0.00037
       4 -> 45        -0.00062
       4 -> 47        -0.00144
       4 -> 51        -0.00029
       5 -> 12         0.01984
       5 -> 16         0.01444
       5 -> 19         0.00156
       5 -> 22         0.00692
       5 -> 25         0.00935
       5 -> 30        -0.00068
       5 -> 33        -0.00321
       5 -> 36         0.00266
       5 -> 40         0.00155
       5 -> 42         0.00062
       5 -> 49         0.00053
       5 -> 50        -0.00063
       5 -> 53        -0.00017
       6 -> 10        -0.09915
       6 -> 11         0.11113
       6 -> 14         0.09036
       6 -> 15        -0.09343
       6 -> 17        -0.02053
       6 -> 20        -0.01531
       6 -> 21         0.01673
       6 -> 24        -0.01623
       6 -> 26        -0.00807
       6 -> 29        -0.00874
       6 -> 32         0.00039
       6 -> 34         0.00166
       6 -> 35        -0.00109
       6 -> 39         0.00069
       6 -> 41        -0.00052
       6 -> 43         0.00075
       6 -> 45         0.00064
       6 -> 47         0.00147
       6 -> 51         0.00084
       6 -> 54        -0.00057
       7 ->  9         0.68541
       7 -> 13         0.00437
       7 -> 18        -0.02069
       7 -> 23         0.00126
       7 -> 28        -0.00226
       7 -> 31        -0.00283
       7 -> 37         0.00071
       7 -> 44        -0.00106
       7 -> 48         0.00048
       7 -> 52         0.00104
       8 -> 12        -0.00624
       8 -> 16         0.08160
       8 -> 19        -0.02545
       8 -> 22        -0.03115
       8 -> 25         0.00104
       8 -> 30        -0.01306
       8 -> 33         0.00286
       8 -> 36        -0.00356
       8 -> 40        -0.00166
       8 -> 42        -0.00034
       8 -> 49         0.00065
       8 -> 50         0.00026
       8 -> 53        -0.00078
       3 <- 10         0.00783
       3 <- 11        -0.01093
       3 <- 14        -0.00936
       3 <- 15         0.00769
       3 <- 17        -0.00183
       3 <- 20        -0.00247
       3 <- 21        -0.00203
       3 <- 24         0.00205
       3 <- 26         0.00296
       3 <- 29        -0.00052
       3 <- 32         0.00255
       3 <- 34         0.00200
       3 <- 35        -0.00051
       3 <- 39         0.00080
       3 <- 41         0.00011
       3 <- 43         0.00051
       3 <- 45        -0.00021
       3 <- 47         0.00233
       3 <- 51         0.00084
       3 <- 54         0.00033
       4 <- 10         0.00776
       4 <- 11         0.00673
       4 <- 14        -0.00416
       4 <- 15        -0.00537
       4 <- 17         0.00155
       4 <- 20         0.00489
       4 <- 21         0.00031
       4 <- 24        -0.00365
       4 <- 26         0.00415
       4 <- 29         0.00030
       4 <- 32        -0.00161
       4 <- 34        -0.00184
       4 <- 35         0.00042
       4 <- 39        -0.00020
       4 <- 43        -0.00037
       4 <- 45        -0.00082
       4 <- 47        -0.00104
       4 <- 51        -0.00013
       5 <- 12         0.00814
       5 <- 16         0.00690
       5 <- 19         0.00104
       5 <- 22         0.00410
       5 <- 25         0.00610
       5 <- 30        -0.00032
       5 <- 33        -0.00244
       5 <- 36         0.00214
       5 <- 40         0.00134
       5 <- 42         0.00050
       5 <- 49         0.00046
       5 <- 50        -0.00057
       5 <- 53        -0.00016
       6 <- 10        -0.02729
       6 <- 11         0.03270
       6 <- 14         0.03348
       6 <- 15        -0.03764
       6 <- 17        -0.00932
       6 <- 20        -0.00876
       6 <- 21         0.00928
       6 <- 24        -0.00959
       6 <- 26        -0.00475
       6 <- 29        -0.00584
       6 <- 32         0.00087
       6 <- 34         0.00197
       6 <- 35        -0.00101
       6 <- 39         0.00080
       6 <- 41        -0.00035
       6 <- 43         0.00065
       6 <- 45         0.00067
       6 <- 47         0.00098
       6 <- 51         0.00066
       6 <- 54        -0.00046
       7 <-  9        -0.12014
       7 <- 13         0.00858
       7 <- 18        -0.01429
       7 <- 23         0.00435
       7 <- 28        -0.00444
       7 <- 31        -0.00121
       7 <- 37         0.00019
       7 <- 44        -0.00058
       7 <- 48        -0.00010
       7 <- 52         0.00090
       8 <- 12        -0.00119
       8 <- 16         0.02577
       8 <- 19        -0.00992
       8 <- 22        -0.01590
       8 <- 25         0.00031
       8 <- 30        -0.00913
       8 <- 33         0.00208
       8 <- 36        -0.00267
       8 <- 40        -0.00132
       8 <- 42        -0.00027
       8 <- 49         0.00044
       8 <- 50         0.00021
       8 <- 53        -0.00070
 
 Excited State   3:      Singlet-B1     5.7837 eV  214.37 nm  f=0.0015  <S**2>=0.000
       3 ->  9        -0.03019
       3 -> 13         0.00206
       3 -> 18        -0.00504
       3 -> 23         0.00204
       3 -> 28        -0.00112
       3 -> 31        -0.00049
       3 -> 44         0.00027
       3 -> 48         0.00089
       3 -> 52         0.00100
       4 ->  9         0.01427
       4 -> 13        -0.00270
       4 -> 18         0.00036
       4 -> 23        -0.00246
       4 -> 28         0.00021
       4 -> 31        -0.00164
       4 -> 37        -0.00043
       4 -> 44         0.00012
       4 -> 48        -0.00121
       4 -> 52        -0.00066
       5 -> 27        -0.00037
       5 -> 38         0.00200
       5 -> 46         0.00113
       6 ->  9         0.70583
       6 -> 13        -0.02149
       6 -> 18         0.01764
       6 -> 23        -0.01123
       6 -> 28         0.00468
       6 -> 31         0.00350
       6 -> 37        -0.00230
       6 -> 44        -0.00304
       6 -> 48         0.00437
       6 -> 52         0.00155
       7 -> 10        -0.01977
       7 -> 11         0.01997
       7 -> 14         0.01302
       7 -> 15        -0.00812
       7 -> 17        -0.00950
       7 -> 20         0.00265
       7 -> 21        -0.00026
       7 -> 24        -0.00025
       7 -> 26        -0.00121
       7 -> 29        -0.00407
       7 -> 32        -0.00080
       7 -> 34         0.00041
       7 -> 35         0.00185
       7 -> 39         0.00013
       7 -> 41        -0.00073
       7 -> 43         0.00060
       7 -> 45        -0.00118
       7 -> 47         0.00433
       7 -> 51         0.00117
       7 -> 54         0.00048
       8 -> 27         0.00074
       8 -> 38         0.00019
       8 -> 46         0.00564
       3 <-  9        -0.01003
       3 <- 13        -0.00048
       3 <- 18        -0.00302
       3 <- 23        -0.00046
       3 <- 28        -0.00074
       3 <- 31        -0.00063
       3 <- 44        -0.00027
       3 <- 48         0.00108
       3 <- 52         0.00080
       4 <-  9         0.00667
       4 <- 13        -0.00017
       4 <- 18         0.00208
       4 <- 23        -0.00051
       4 <- 28         0.00178
       4 <- 31        -0.00114
       4 <- 37        -0.00019
       4 <- 44         0.00013
       4 <- 48        -0.00104
       4 <- 52        -0.00037
       5 <- 27        -0.00087
       5 <- 38         0.00160
       5 <- 46         0.00100
       6 <-  9        -0.02407
       6 <- 13         0.00174
       6 <- 18        -0.00314
       6 <- 23        -0.00027
       6 <- 28        -0.00323
       6 <- 31         0.00149
       6 <- 37        -0.00203
       6 <- 44        -0.00172
       6 <- 48         0.00391
       6 <- 52         0.00055
       7 <- 10         0.00972
       7 <- 11        -0.01146
       7 <- 14        -0.01206
       7 <- 15         0.01533
       7 <- 17         0.00104
       7 <- 20         0.00541
       7 <- 21        -0.00474
       7 <- 24         0.00465
       7 <- 26         0.00190
       7 <- 29         0.00090
       7 <- 32        -0.00043
       7 <- 35         0.00287
       7 <- 39         0.00041
       7 <- 41        -0.00036
       7 <- 43         0.00048
       7 <- 45        -0.00124
       7 <- 47         0.00391
       7 <- 51         0.00098
       7 <- 54         0.00109
       8 <- 27         0.00116
       8 <- 38         0.00036
       8 <- 46         0.00521
 
 Excited State   4:      Singlet-B2     6.5137 eV  190.34 nm  f=0.0182  <S**2>=0.000
       3 -> 12         0.00168
       3 -> 16        -0.00157
       3 -> 19         0.00400
       3 -> 22        -0.00033
       3 -> 30         0.00295
       3 -> 33         0.00037
       3 -> 36        -0.00198
       3 -> 40        -0.00155
       3 -> 42        -0.00016
       3 -> 49         0.00210
       3 -> 50        -0.00021
       3 -> 53        -0.00026
       4 -> 12        -0.00054
       4 -> 16         0.00289
       4 -> 19         0.00040
       4 -> 22        -0.00344
       4 -> 25         0.00255
       4 -> 30        -0.00126
       4 -> 33         0.00044
       4 -> 36        -0.00046
       4 -> 40         0.00050
       4 -> 49        -0.00029
       5 -> 10         0.00124
       5 -> 11        -0.00507
       5 -> 14        -0.01455
       5 -> 15        -0.00036
       5 -> 17        -0.00138
       5 -> 20        -0.00167
       5 -> 21        -0.00671
       5 -> 24        -0.00187
       5 -> 26         0.00211
       5 -> 29         0.00190
       5 -> 32         0.00087
       5 -> 34         0.00133
       5 -> 35         0.00064
       5 -> 39         0.00086
       5 -> 41        -0.00082
       5 -> 45        -0.00026
       5 -> 47         0.00078
       5 -> 51        -0.00047
       5 -> 54         0.00022
       6 -> 12        -0.00347
       6 -> 16         0.00127
       6 -> 19        -0.00230
       6 -> 22        -0.00028
       6 -> 25         0.00074
       6 -> 30         0.00051
       6 -> 33        -0.00046
       6 -> 36         0.00215
       6 -> 40         0.00162
       6 -> 42         0.00024
       6 -> 49        -0.00133
       6 -> 53         0.00028
       7 -> 27         0.00055
       7 -> 38        -0.00099
       7 -> 46        -0.00316
       8 -> 10         0.63625
       8 -> 11        -0.27902
       8 -> 14        -0.10681
       8 -> 15         0.07546
       8 -> 17         0.00929
       8 -> 20         0.00470
       8 -> 21        -0.00466
       8 -> 24         0.00525
       8 -> 26         0.00544
       8 -> 29         0.00816
       8 -> 32         0.00208
       8 -> 34         0.00138
       8 -> 35         0.00068
       8 -> 39         0.00047
       8 -> 41        -0.00044
       8 -> 43         0.00060
       8 -> 45        -0.00212
       8 -> 47         0.00337
       8 -> 51        -0.00195
       8 -> 54         0.00121
       3 <- 12         0.00056
       3 <- 16        -0.00033
       3 <- 19         0.00188
       3 <- 22        -0.00083
       3 <- 25        -0.00012
       3 <- 30         0.00117
       3 <- 33         0.00033
       3 <- 36        -0.00159
       3 <- 40        -0.00140
       3 <- 42        -0.00014
       3 <- 49         0.00216
       3 <- 50        -0.00018
       3 <- 53        -0.00072
       4 <- 12         0.00041
       4 <- 16         0.00246
       4 <- 19         0.00056
       4 <- 22        -0.00280
       4 <- 25         0.00157
       4 <- 30        -0.00103
       4 <- 33         0.00052
       4 <- 36        -0.00064
       4 <- 40         0.00015
       4 <- 42        -0.00016
       4 <- 49        -0.00022
       5 <- 10         0.00120
       5 <- 11         0.00143
       5 <- 14        -0.00304
       5 <- 15        -0.00350
       5 <- 17        -0.00025
       5 <- 20        -0.00033
       5 <- 21        -0.00202
       5 <- 24        -0.00279
       5 <- 26         0.00078
       5 <- 29         0.00049
       5 <- 32        -0.00037
       5 <- 34         0.00044
       5 <- 39         0.00026
       5 <- 41        -0.00078
       5 <- 43        -0.00014
       5 <- 45        -0.00054
       5 <- 47         0.00056
       5 <- 51        -0.00025
       6 <- 12        -0.00020
       6 <- 16        -0.00423
       6 <- 19         0.00193
       6 <- 22         0.00298
       6 <- 25         0.00033
       6 <- 30         0.00370
       6 <- 33        -0.00068
       6 <- 36         0.00214
       6 <- 40         0.00158
       6 <- 42         0.00028
       6 <- 49        -0.00138
       6 <- 53         0.00081
       7 <- 27         0.00056
       7 <- 38        -0.00076
       7 <- 46        -0.00258
       8 <- 10        -0.00794
       8 <- 11         0.00993
       8 <- 14         0.01000
       8 <- 15        -0.00601
       8 <- 17        -0.00021
       8 <- 20         0.00182
       8 <- 21         0.00233
       8 <- 24        -0.00082
       8 <- 26        -0.00199
       8 <- 29         0.00079
       8 <- 32        -0.00168
       8 <- 34        -0.00129
       8 <- 39        -0.00123
       8 <- 41        -0.00059
       8 <- 45        -0.00250
       8 <- 47         0.00229
       8 <- 51        -0.00114
       8 <- 54         0.00029
 
 Excited State   5:      Singlet-B2     7.1133 eV  174.30 nm  f=0.0045  <S**2>=0.000
       3 -> 12         0.00127
       3 -> 16         0.00175
       3 -> 19        -0.00133
       3 -> 22        -0.00040
       3 -> 25         0.00096
       3 -> 30        -0.00280
       3 -> 36         0.00075
       3 -> 40         0.00066
       3 -> 49        -0.00094
       4 -> 12        -0.00146
       4 -> 16         0.00025
       4 -> 19         0.00086
       4 -> 22        -0.00046
       4 -> 25         0.00030
       4 -> 30         0.00149
       4 -> 33        -0.00026
       4 -> 36         0.00046
       4 -> 50        -0.00012
       5 -> 10        -0.00818
       5 -> 11        -0.00055
       5 -> 14         0.00088
       5 -> 15         0.00602
       5 -> 17         0.00146
       5 -> 20         0.00228
       5 -> 21         0.00100
       5 -> 24        -0.00015
       5 -> 26        -0.00066
       5 -> 29        -0.00070
       5 -> 32        -0.00160
       5 -> 34         0.00010
       5 -> 35        -0.00048
       5 -> 39        -0.00071
       5 -> 43        -0.00036
       5 -> 45         0.00041
       5 -> 47        -0.00049
       5 -> 51         0.00035
       6 -> 12        -0.00081
       6 -> 16        -0.00022
       6 -> 19         0.00072
       6 -> 22        -0.00108
       6 -> 30        -0.00097
       6 -> 36        -0.00045
       6 -> 40        -0.00087
       6 -> 42        -0.00023
       6 -> 49         0.00146
       6 -> 50        -0.00012
       6 -> 53        -0.00014
       7 -> 27        -0.00069
       7 -> 46         0.00220
       8 -> 10         0.29088
       8 -> 11         0.64199
       8 -> 14         0.02167
       8 -> 15        -0.04913
       8 -> 17        -0.00638
       8 -> 20         0.01539
       8 -> 21         0.00421
       8 -> 24        -0.00402
       8 -> 26         0.00084
       8 -> 29        -0.00384
       8 -> 32        -0.00060
       8 -> 34        -0.00088
       8 -> 35        -0.00083
       8 -> 39         0.00011
       8 -> 43         0.00013
       8 -> 45         0.00184
       8 -> 47        -0.00226
       8 -> 51         0.00125
       8 -> 54        -0.00043
       3 <- 16         0.00077
       3 <- 19        -0.00091
       3 <- 22        -0.00020
       3 <- 25         0.00043
       3 <- 30        -0.00140
       3 <- 36         0.00059
       3 <- 40         0.00058
       3 <- 49        -0.00094
       3 <- 53         0.00038
       4 <- 12         0.00045
       4 <- 16         0.00022
       4 <- 19         0.00091
       4 <- 25         0.00036
       4 <- 30         0.00103
       4 <- 33        -0.00024
       4 <- 36         0.00035
       4 <- 42        -0.00010
       4 <- 50        -0.00014
       5 <- 10         0.00116
       5 <- 11        -0.00127
       5 <- 14        -0.00100
       5 <- 15         0.00144
       5 <- 20         0.00032
       5 <- 21         0.00066
       5 <- 24        -0.00022
       5 <- 26         0.00044
       5 <- 29        -0.00031
       5 <- 32        -0.00042
       5 <- 34         0.00059
       5 <- 39        -0.00027
       5 <- 41         0.00011
       5 <- 43        -0.00021
       5 <- 45         0.00050
       5 <- 47        -0.00045
       5 <- 51         0.00024
       6 <- 12        -0.00022
       6 <- 16         0.00183
       6 <- 19        -0.00077
       6 <- 22        -0.00159
       6 <- 25         0.00010
       6 <- 30        -0.00184
       6 <- 33         0.00017
       6 <- 36        -0.00057
       6 <- 40        -0.00085
       6 <- 42        -0.00025
       6 <- 49         0.00130
       6 <- 50        -0.00011
       6 <- 53        -0.00029
       7 <- 27        -0.00056
       7 <- 46         0.00184
       8 <- 10         0.00359
       8 <- 11        -0.00553
       8 <- 14        -0.00419
       8 <- 15         0.00391
       8 <- 17        -0.00103
       8 <- 20        -0.00278
       8 <- 21        -0.00066
       8 <- 24         0.00117
       8 <- 26         0.00075
       8 <- 29        -0.00099
       8 <- 32         0.00193
       8 <- 34         0.00147
       8 <- 35        -0.00077
       8 <- 39         0.00095
       8 <- 41         0.00044
       8 <- 43         0.00022
       8 <- 45         0.00171
       8 <- 47        -0.00164
       8 <- 51         0.00087
 
 Excited State   6:      Singlet-A2     7.7013 eV  160.99 nm  f=0.0000  <S**2>=0.000
       3 -> 27        -0.00130
       3 -> 38        -0.00049
       3 -> 46         0.00035
       4 -> 27        -0.00588
       4 -> 38         0.00048
       4 -> 46        -0.00041
       5 ->  9         0.70585
       5 -> 13        -0.02805
       5 -> 18         0.00667
       5 -> 23        -0.01524
       5 -> 28         0.00110
       5 -> 31        -0.00103
       5 -> 37        -0.00584
       5 -> 44        -0.00210
       5 -> 48        -0.00021
       5 -> 52         0.00013
       6 -> 27        -0.00114
       6 -> 38         0.00211
       6 -> 46         0.00034
       7 -> 12         0.01477
       7 -> 16         0.01390
       7 -> 19         0.00105
       7 -> 22        -0.00512
       7 -> 25         0.00033
       7 -> 30        -0.00081
       7 -> 33        -0.00040
       7 -> 36        -0.00039
       7 -> 40        -0.00013
       7 -> 42        -0.00026
       7 -> 49        -0.00019
       7 -> 50        -0.00080
       8 ->  9        -0.00900
       8 -> 13         0.01714
       8 -> 18         0.00678
       8 -> 23         0.00283
       8 -> 28         0.00153
       8 -> 31         0.00100
       8 -> 37         0.00207
       8 -> 44         0.00022
       8 -> 48         0.00013
       8 -> 52         0.00038
       3 <- 27        -0.00151
       3 <- 38        -0.00062
       3 <- 46         0.00045
       4 <- 27        -0.00515
       4 <- 38         0.00017
       5 <-  9        -0.01243
       5 <- 13         0.00199
       5 <- 18        -0.00022
       5 <- 28         0.00179
       5 <- 31        -0.00285
       5 <- 37        -0.00339
       5 <- 44        -0.00039
       5 <- 48        -0.00027
       6 <- 27        -0.00148
       6 <- 38         0.00153
       6 <- 46         0.00020
       7 <- 12        -0.00243
       7 <- 16        -0.00099
       7 <- 19        -0.00029
       7 <- 22        -0.00336
       7 <- 25        -0.00308
       7 <- 30         0.00015
       7 <- 33         0.00044
       7 <- 36        -0.00089
       7 <- 40        -0.00062
       7 <- 42        -0.00058
       7 <- 49        -0.00038
       7 <- 50        -0.00089
       7 <- 53         0.00022
       8 <-  9         0.00019
       8 <- 13        -0.00045
       8 <- 18        -0.00148
       8 <- 28        -0.00200
       8 <- 31         0.00131
       8 <- 37         0.00099
 
 Excited State   7:      Singlet-B1     7.8333 eV  158.28 nm  f=0.0000  <S**2>=0.000
       3 ->  9         0.01418
       3 -> 13        -0.00060
       3 -> 18         0.00239
       3 -> 23        -0.00119
       3 -> 28         0.00270
       3 -> 31         0.00091
       3 -> 44        -0.00051
       3 -> 48         0.00136
       4 ->  9         0.03398
       4 -> 13        -0.00510
       4 -> 18        -0.00154
       4 -> 23        -0.00426
       4 -> 28        -0.00204
       4 -> 31         0.00072
       4 -> 37        -0.00048
       4 -> 44         0.00024
       4 -> 48        -0.00032
       5 -> 27         0.00642
       5 -> 38         0.00250
       5 -> 46        -0.00068
       6 ->  9         0.02588
       6 -> 13         0.00460
       6 -> 18        -0.00218
       6 -> 23         0.00174
       6 -> 28        -0.00249
       6 -> 31         0.00289
       6 -> 37        -0.00131
       6 -> 44         0.00044
       6 -> 48        -0.00107
       6 -> 52         0.00027
       7 -> 10         0.67022
       7 -> 11        -0.19442
       7 -> 14        -0.08728
       7 -> 15         0.05916
       7 -> 17         0.00492
       7 -> 20         0.00702
       7 -> 21        -0.00010
       7 -> 24         0.00402
       7 -> 26         0.00743
       7 -> 29         0.00479
       7 -> 34         0.00255
       7 -> 35         0.00214
       7 -> 39         0.00066
       7 -> 41        -0.00014
       7 -> 43        -0.00022
       7 -> 47        -0.00192
       7 -> 51        -0.00098
       7 -> 54         0.00073
       8 -> 27        -0.00152
       8 -> 38        -0.00049
       8 -> 46        -0.00213
       3 <-  9         0.00293
       3 <- 13        -0.00061
       3 <- 18         0.00095
       3 <- 23        -0.00075
       3 <- 28         0.00152
       3 <- 37         0.00019
       3 <- 44        -0.00021
       3 <- 48         0.00154
       3 <- 52        -0.00037
       4 <-  9         0.00649
       4 <- 13        -0.00134
       4 <- 18        -0.00045
       4 <- 23        -0.00154
       4 <- 28        -0.00166
       4 <- 31         0.00078
       4 <- 37        -0.00052
       4 <- 44         0.00058
       5 <- 27         0.00391
       5 <- 38         0.00181
       5 <- 46        -0.00056
       6 <-  9         0.01388
       6 <- 13         0.00049
       6 <- 18         0.00241
       6 <- 23         0.00051
       6 <- 28         0.00052
       6 <- 31         0.00279
       6 <- 37        -0.00094
       6 <- 44         0.00029
       6 <- 48        -0.00112
       6 <- 52         0.00064
       7 <- 10        -0.00623
       7 <- 11         0.00744
       7 <- 14         0.00867
       7 <- 15        -0.00356
       7 <- 17        -0.00067
       7 <- 20         0.00103
       7 <- 21         0.00222
       7 <- 24         0.00050
       7 <- 26        -0.00111
       7 <- 32        -0.00153
       7 <- 34         0.00071
       7 <- 35         0.00141
       7 <- 39        -0.00028
       7 <- 43        -0.00047
       7 <- 45        -0.00016
       7 <- 47        -0.00152
       7 <- 51        -0.00043
       7 <- 54         0.00027
       8 <- 27        -0.00090
       8 <- 38        -0.00026
       8 <- 46        -0.00155
 
 Excited State   8:      Singlet-A1     8.0502 eV  154.01 nm  f=0.0228  <S**2>=0.000
       3 -> 10         0.00294
       3 -> 11        -0.00040
       3 -> 14        -0.00293
       3 -> 15         0.00167
       3 -> 17        -0.00025
       3 -> 24         0.00015
       3 -> 26         0.00024
       3 -> 29         0.00022
       3 -> 32         0.00017
       3 -> 34         0.00076
       3 -> 35        -0.00059
       3 -> 41        -0.00017
       3 -> 45        -0.00018
       3 -> 47        -0.00010
       3 -> 54        -0.00011
       4 -> 10         0.00149
       4 -> 11        -0.00102
       4 -> 14        -0.00020
       4 -> 15        -0.00171
       4 -> 17         0.00101
       4 -> 20         0.00103
       4 -> 21         0.00105
       4 -> 24        -0.00372
       4 -> 26         0.00170
       4 -> 32        -0.00039
       4 -> 34        -0.00026
       4 -> 35         0.00013
       4 -> 39         0.00014
       4 -> 43         0.00012
       5 -> 12        -0.00124
       5 -> 16         0.00025
       5 -> 19         0.00368
       5 -> 22        -0.00250
       5 -> 25         0.00308
       5 -> 30        -0.00016
       5 -> 36         0.00050
       5 -> 40         0.00012
       6 -> 10         0.00206
       6 -> 11         0.00317
       6 -> 14         0.00110
       6 -> 15        -0.00398
       6 -> 17        -0.00251
       6 -> 20         0.00069
       6 -> 21         0.00154
       6 -> 24        -0.00294
       6 -> 26         0.00011
       6 -> 29        -0.00205
       6 -> 32         0.00030
       6 -> 34         0.00017
       6 -> 35         0.00022
       6 -> 39         0.00045
       6 -> 43         0.00022
       6 -> 45         0.00041
       6 -> 47         0.00020
       6 -> 51         0.00011
       6 -> 54        -0.00015
       7 ->  9         0.00510
       7 -> 13         0.00961
       7 -> 18        -0.00399
       7 -> 23         0.00262
       7 -> 28        -0.00128
       7 -> 31        -0.00118
       7 -> 37         0.00051
       7 -> 44         0.00043
       7 -> 48        -0.00029
       7 -> 52        -0.00015
       8 -> 12         0.70641
       8 -> 16         0.01041
       8 -> 19         0.02445
       8 -> 22         0.00126
       8 -> 25         0.00675
       8 -> 30        -0.00198
       8 -> 33         0.00117
       8 -> 36        -0.00130
       8 -> 42        -0.00011
       8 -> 49        -0.00042
       8 -> 53        -0.00015
       3 <- 10         0.00095
       3 <- 11        -0.00094
       3 <- 14        -0.00099
       3 <- 15         0.00067
       3 <- 20        -0.00038
       3 <- 24        -0.00016
       3 <- 26         0.00032
       3 <- 29         0.00011
       3 <- 32         0.00024
       3 <- 34         0.00048
       3 <- 35        -0.00047
       3 <- 45        -0.00018
       4 <- 10         0.00174
[...]
  50        5PY         0.00000  -0.00000  -0.01142  -0.02205  -0.02174
  51        5PZ        -0.00005  -0.00000   0.00191   0.00248  -0.00008
  52        6D 0        0.00028   0.00000  -0.00047  -0.00079  -0.00123
  53        6D+1        0.00000   0.00000   0.00000   0.00000  -0.00000
  54        6D-1       -0.00000  -0.00000  -0.00125  -0.00116   0.00154
  55        6D+2        0.00002   0.00000  -0.00005  -0.00003  -0.00000
  56        6D-2        0.00000   0.00000  -0.00000  -0.00000  -0.00000
                          26        27        28        29        30
  26        4PX         0.00027
  27        4PY        -0.00000   0.00106
  28        4PZ         0.00000  -0.00048   0.00061
  29 3   H  1S          0.00000  -0.00179  -0.00278   0.07808
  30        2S          0.00000  -0.00168  -0.00437   0.11089   0.16079
  31        3S         -0.00000   0.00064  -0.00231   0.03481   0.05798
  32        4PX         0.00027   0.00000   0.00000  -0.00000  -0.00000
  33        4PY         0.00000  -0.00056  -0.00007   0.00806   0.01071
  34        4PZ        -0.00000   0.00007   0.00001   0.00442   0.00618
  35 4   O  1S         -0.00000   0.00003  -0.00057   0.00153   0.00054
  36        2S         -0.00000   0.00006  -0.00075   0.00249   0.00102
  37        2PX         0.00557   0.00000  -0.00000  -0.00000  -0.00000
  38        2PY         0.00000  -0.00182   0.00105   0.01433   0.04026
  39        2PZ         0.00000  -0.00127  -0.00467   0.01511   0.02218
  40        3S          0.00000  -0.00003   0.00152  -0.00833  -0.00458
  41        3PX         0.00810   0.00000  -0.00000  -0.00000  -0.00000
  42        3PY         0.00000  -0.00264   0.00154   0.02011   0.05707
  43        3PZ         0.00000  -0.00181  -0.00695   0.02206   0.03238
  44        4S          0.00000  -0.00026  -0.00052  -0.00256   0.00266
  45        4PX         0.00720   0.00000  -0.00000  -0.00000  -0.00000
  46        4PY         0.00000  -0.00214   0.00111   0.02175   0.05698
  47        4PZ         0.00000  -0.00155  -0.00463   0.01689   0.02445
  48        5S          0.00000  -0.00050  -0.00280   0.00766   0.01121
  49        5PX         0.00103   0.00000   0.00000  -0.00000  -0.00000
  50        5PY         0.00000   0.00006  -0.00033   0.01142   0.02205
  51        5PZ         0.00000  -0.00038   0.00023   0.00191   0.00248
  52        6D 0        0.00000  -0.00003   0.00042  -0.00047  -0.00079
  53        6D+1       -0.00036  -0.00000   0.00000  -0.00000  -0.00000
  54        6D-1       -0.00000   0.00020  -0.00018   0.00125   0.00116
  55        6D+2        0.00000   0.00000   0.00001  -0.00005  -0.00003
  56        6D-2       -0.00000   0.00000   0.00000  -0.00000  -0.00000
                          31        32        33        34        35
  31        3S          0.03990
  32        4PX        -0.00000   0.00027
  33        4PY         0.00168  -0.00000   0.00106
  34        4PZ         0.00100  -0.00000   0.00048   0.00061
  35 4   O  1S          0.00008   0.00000  -0.00003  -0.00057   0.64126
  36        2S          0.00003   0.00000  -0.00006  -0.00075   0.57161
  37        2PX        -0.00000   0.00557   0.00000   0.00000   0.00000
  38        2PY         0.06647   0.00000  -0.00182  -0.00105   0.00000
  39        2PZ         0.01640  -0.00000   0.00127  -0.00467  -0.01066
  40        3S          0.00034  -0.00000   0.00003   0.00152  -0.14532
  41        3PX        -0.00000   0.00810   0.00000   0.00000   0.00000
  42        3PY         0.09507   0.00000  -0.00264  -0.00154   0.00000
  43        3PZ         0.02427  -0.00000   0.00181  -0.00695  -0.01211
  44        4S          0.00604  -0.00000   0.00026  -0.00052  -0.13940
  45        4PX        -0.00000   0.00720   0.00000   0.00000   0.00000
  46        4PY         0.08804   0.00000  -0.00214  -0.00111   0.00000
  47        4PZ         0.01672  -0.00000   0.00155  -0.00463  -0.00939
  48        5S          0.00928  -0.00000   0.00050  -0.00280   0.00678
  49        5PX        -0.00000   0.00103   0.00000  -0.00000   0.00000
  50        5PY         0.02174   0.00000   0.00006   0.00033   0.00000
  51        5PZ        -0.00008  -0.00000   0.00038   0.00023  -0.00441
  52        6D 0       -0.00123  -0.00000   0.00003   0.00042  -0.00073
  53        6D+1        0.00000  -0.00036  -0.00000  -0.00000   0.00000
  54        6D-1       -0.00154  -0.00000   0.00020   0.00018   0.00000
  55        6D+2       -0.00000   0.00000  -0.00000   0.00001  -0.00082
  56        6D-2       -0.00000   0.00000   0.00000   0.00000  -0.00000
                          36        37        38        39        40
  36        2S          0.52746
  37        2PX         0.00000   0.11555
  38        2PY         0.00000  -0.00000   0.19031
  39        2PZ        -0.01656   0.00000   0.00000   0.10619
  40        3S         -0.24396   0.00000   0.00000   0.04844   0.76245
  41        3PX         0.00000   0.16811  -0.00000   0.00000   0.00000
  42        3PY         0.00000  -0.00000   0.27287  -0.00000  -0.00000
  43        3PZ        -0.02007   0.00000   0.00000   0.15681   0.06343
  44        4S         -0.21751   0.00000   0.00000   0.07678   0.62659
  45        4PX         0.00000   0.14932  -0.00000   0.00000   0.00000
  46        4PY         0.00000  -0.00000   0.24710  -0.00000  -0.00000
  47        4PZ        -0.01604   0.00000   0.00000   0.10767   0.05206
  48        5S          0.00585   0.00000   0.00000   0.05882   0.00032
  49        5PX         0.00000   0.02142  -0.00000   0.00000   0.00000
  50        5PY         0.00000  -0.00000   0.05021   0.00000  -0.00000
  51        5PZ        -0.00631   0.00000   0.00000  -0.00048   0.01605
  52        6D 0       -0.00107  -0.00000  -0.00000  -0.00791   0.00275
  53        6D+1        0.00000  -0.00746   0.00000   0.00000  -0.00000
  54        6D-1        0.00000   0.00000  -0.00725   0.00000  -0.00000
  55        6D+2       -0.00132   0.00000  -0.00000   0.00022   0.00391
  56        6D-2       -0.00000   0.00000  -0.00000   0.00000   0.00000
                          41        42        43        44        45
  41        3PX         0.24459
  42        3PY        -0.00000   0.39125
  43        3PZ         0.00000   0.00000   0.23166
  44        4S          0.00000   0.00000   0.10687   0.52887
  45        4PX         0.21725  -0.00000   0.00000   0.00000   0.19297
  46        4PY        -0.00000   0.35427  -0.00000  -0.00000  -0.00000
  47        4PZ         0.00000   0.00000   0.15895   0.08007   0.00000
  48        5S          0.00000   0.00000   0.08719   0.02116   0.00000
  49        5PX         0.03117  -0.00000   0.00000   0.00000   0.02768
  50        5PY        -0.00000   0.07192   0.00000  -0.00000  -0.00000
  51        5PZ         0.00000   0.00000  -0.00093   0.01259   0.00000
  52        6D 0       -0.00000  -0.00000  -0.01177  -0.00067  -0.00000
  53        6D+1       -0.01085  -0.00000   0.00000  -0.00000  -0.00964
  54        6D-1       -0.00000  -0.01041   0.00000  -0.00000   0.00000
  55        6D+2        0.00000  -0.00000   0.00028   0.00320   0.00000
  56        6D-2        0.00000  -0.00000   0.00000   0.00000   0.00000
                          46        47        48        49        50
  46        4PY         0.32105
  47        4PZ         0.00000   0.10929
  48        5S          0.00000   0.05949   0.03371
  49        5PX        -0.00000   0.00000   0.00000   0.00397
  50        5PY         0.06571   0.00000   0.00000  -0.00000   0.01451
  51        5PZ         0.00000  -0.00030  -0.00098   0.00000   0.00000
  52        6D 0       -0.00000  -0.00795  -0.00465  -0.00000  -0.00000
  53        6D+1        0.00000   0.00000   0.00000  -0.00138   0.00000
  54        6D-1       -0.00929   0.00000   0.00000   0.00000  -0.00161
  55        6D+2       -0.00000   0.00023  -0.00002  -0.00000  -0.00000
  56        6D-2       -0.00000   0.00000   0.00000   0.00000   0.00000
                          51        52        53        54        55
  51        5PZ         0.00056
  52        6D 0        0.00024   0.00067
  53        6D+1       -0.00000   0.00000   0.00048
  54        6D-1       -0.00000   0.00000   0.00000   0.00035
  55        6D+2        0.00008   0.00002  -0.00000   0.00000   0.00002
  56        6D-2        0.00000   0.00000  -0.00000   0.00000   0.00000
                          56
  56        6D-2        0.00000
          Condensed to atoms (all electrons):
               1          2          3          4
     1  C    5.017145   0.360749   0.360749   0.312789
     2  H    0.360749   0.554893  -0.060816  -0.028962
     3  H    0.360749  -0.060816   0.554893  -0.028962
     4  O    0.312789  -0.028962  -0.028962   8.041976
 Mulliken charges:
               1
     1  C   -0.051432
     2  H    0.174136
     3  H    0.174136
     4  O   -0.296841
 Sum of Mulliken charges =   0.00000
 Mulliken charges with hydrogens summed into heavy atoms:
               1
     1  C    0.296841
     4  O   -0.296841
 Electronic spatial extent (au):  <R**2>=             76.0530
 Charge=              0.0000 electrons
 Dipole moment (field-independent basis, Debye):
    X=             -0.0000    Y=             -0.0000    Z=             -3.6423  Tot=              3.6423
 Quadrupole moment (field-independent basis, Debye-Ang):
   XX=            -12.6374   YY=            -11.8534   ZZ=            -11.4608
   XY=              0.0000   XZ=              0.0000   YZ=              0.0000
 Traceless Quadrupole moment (field-independent basis, Debye-Ang):
   XX=             -0.6535   YY=              0.1305   ZZ=              0.5231
   XY=              0.0000   XZ=              0.0000   YZ=              0.0000
 Octapole moment (field-independent basis, Debye-Ang**2):
  XXX=              0.0000  YYY=              0.0000  ZZZ=             -2.0182  XYY=             -0.0000
  XXY=             -0.0000  XXZ=              0.5335  XZZ=             -0.0000  YZZ=             -0.0000
  YYZ=             -2.0777  XYZ=             -0.0000
 Hexadecapole moment (field-independent basis, Debye-Ang**3):
 XXXX=            -12.9808 YYYY=            -18.3406 ZZZZ=            -62.2420 XXXY=             -0.0000
 XXXZ=             -0.0000 YYYX=             -0.0000 YYYZ=             -0.0000 ZZZX=             -0.0000
 ZZZY=             -0.0000 XXYY=             -5.6452 XXZZ=            -13.1133 YYZZ=            -12.2067
 XXYZ=              0.0000 YYXZ=              0.0000 ZZXY=              0.0000
 N-N= 2.602194664566D+01 E-N=-3.205977966813D+02  KE= 1.134273570221D+02
 Symmetry A1   KE= 1.029820601540D+02
 Symmetry A2   KE= 1.896992636433D-35
 Symmetry B1   KE= 3.613468012506D+00
 Symmetry B2   KE= 6.831828855541D+00
 Leave Link  601 at Fri Sep 17 10:52:58 2021, MaxMem=   268435456 cpu:               0.0 elap:               0.0
 (Enter /software/gaussian/g16-a03/l9999.exe)
 Electronic transition elements 
                 1             2             3             4             5 
      1  -0.114367D+03 -0.114243D+03 -0.114234D+03 -0.114207D+03 -0.114185D+03
      2   0.000000D+00  0.000000D+00  0.102119D+00  0.000000D+00  0.000000D+00
      3   0.000000D+00  0.000000D+00  0.000000D+00  0.337935D+00 -0.161464D+00
      4   0.000000D+00  0.809586D+00  0.000000D+00  0.000000D+00  0.000000D+00
      5   0.000000D+00  0.000000D+00 -0.390711D-01  0.000000D+00  0.000000D+00
      6   0.000000D+00  0.000000D+00  0.000000D+00 -0.820549D-01  0.395767D-01
      7   0.000000D+00 -0.151911D+00  0.000000D+00  0.000000D+00  0.000000D+00
      8   0.000000D+00  0.000000D+00  0.000000D+00 -0.156123D+00 -0.451461D+00
      9   0.000000D+00  0.000000D+00 -0.170378D+01  0.000000D+00  0.000000D+00
     10   0.105595D+01  0.000000D+00  0.000000D+00  0.000000D+00  0.000000D+00
     11   0.000000D+00  0.100864D+00  0.000000D+00  0.000000D+00  0.000000D+00
     12   0.000000D+00 -0.456923D-02  0.000000D+00  0.000000D+00  0.000000D+00
     13   0.000000D+00 -0.593711D-01  0.000000D+00  0.000000D+00  0.000000D+00
     14  -0.418213D-01  0.000000D+00  0.000000D+00  0.000000D+00  0.000000D+00
     15   0.000000D+00  0.000000D+00 -0.173809D+00  0.000000D+00  0.000000D+00
     16   0.000000D+00  0.000000D+00  0.000000D+00  0.125474D+00  0.326140D+00
                 6             7             8             9            10 
      1  -0.114164D+03 -0.114159D+03 -0.114151D+03 -0.114136D+03 -0.114130D+03
      2   0.000000D+00 -0.488744D-02  0.000000D+00 -0.722530D+00  0.000000D+00
      3   0.000000D+00  0.000000D+00  0.000000D+00  0.000000D+00  0.000000D+00
      4   0.000000D+00  0.000000D+00 -0.339804D+00  0.000000D+00  0.000000D+00
      5   0.000000D+00  0.910066D-02  0.000000D+00  0.225410D+00  0.000000D+00
      6   0.000000D+00  0.000000D+00  0.000000D+00  0.000000D+00  0.000000D+00
      7   0.000000D+00  0.000000D+00  0.983845D-01  0.000000D+00  0.000000D+00
      8   0.000000D+00  0.000000D+00  0.000000D+00  0.000000D+00  0.000000D+00
      9   0.000000D+00  0.367772D+00  0.000000D+00 -0.308617D+00  0.000000D+00
     10  -0.949492D+00  0.000000D+00  0.000000D+00  0.000000D+00  0.908974D-02
     11   0.000000D+00  0.000000D+00  0.242903D-01  0.000000D+00  0.000000D+00
     12   0.000000D+00  0.000000D+00 -0.261119D-01  0.000000D+00  0.000000D+00
     13   0.000000D+00  0.000000D+00 -0.234289D+00  0.000000D+00  0.000000D+00
     14   0.183052D+00  0.000000D+00  0.000000D+00  0.000000D+00  0.325530D-01
     15   0.000000D+00 -0.266993D+00  0.000000D+00  0.423956D-01  0.000000D+00
     16   0.000000D+00  0.000000D+00  0.000000D+00  0.000000D+00  0.000000D+00
                11            12            13            14            15 
      1  -0.114106D+03 -0.114104D+03 -0.114083D+03 -0.114066D+03 -0.114065D+03
      2   0.000000D+00  0.000000D+00  0.000000D+00  0.000000D+00  0.000000D+00
      3   0.000000D+00  0.164928D+00  0.000000D+00 -0.394657D+00  0.000000D+00
      4   0.000000D+00  0.000000D+00  0.100205D+00  0.000000D+00  0.614321D+00
      5   0.000000D+00  0.000000D+00  0.000000D+00  0.000000D+00  0.000000D+00
      6   0.000000D+00 -0.616865D-01  0.000000D+00  0.153178D+00  0.000000D+00
      7   0.000000D+00  0.000000D+00 -0.331750D-01  0.000000D+00 -0.238951D+00
      8   0.000000D+00  0.576316D+00  0.000000D+00  0.430741D+00  0.000000D+00
      9   0.000000D+00  0.000000D+00  0.000000D+00  0.000000D+00  0.000000D+00
     10   0.283077D-01  0.000000D+00  0.000000D+00  0.000000D+00  0.000000D+00
     11   0.000000D+00  0.000000D+00  0.807199D+00  0.000000D+00 -0.373348D-01
     12   0.000000D+00  0.000000D+00  0.326656D-01  0.000000D+00 -0.603138D-01
     13   0.000000D+00  0.000000D+00 -0.606928D-01  0.000000D+00  0.314255D+00
     14   0.285719D+00  0.000000D+00  0.000000D+00  0.000000D+00  0.000000D+00
     15   0.000000D+00  0.000000D+00  0.000000D+00  0.000000D+00  0.000000D+00
     16   0.000000D+00 -0.190988D+00  0.000000D+00 -0.137706D+00  0.000000D+00
                16            17            18            19            20 
      1  -0.114056D+03 -0.114046D+03 -0.114024D+03 -0.114021D+03 -0.114020D+03
      2   0.352164D-01  0.000000D+00 -0.372305D+00  0.000000D+00  0.000000D+00
      3   0.000000D+00  0.000000D+00  0.000000D+00  0.000000D+00 -0.325777D+00
      4   0.000000D+00 -0.252493D+00  0.000000D+00 -0.108894D+01  0.000000D+00
      5  -0.365655D-01  0.000000D+00  0.147147D+00  0.000000D+00  0.000000D+00
      6   0.000000D+00  0.000000D+00  0.000000D+00  0.000000D+00  0.136712D+00
      7   0.000000D+00  0.112997D+00  0.000000D+00  0.466133D+00  0.000000D+00
      8   0.000000D+00  0.000000D+00  0.000000D+00  0.000000D+00 -0.123834D+00
      9  -0.405298D+00  0.000000D+00  0.352088D+00  0.000000D+00  0.000000D+00
     10   0.000000D+00  0.000000D+00  0.000000D+00  0.000000D+00  0.000000D+00
     11   0.000000D+00  0.268138D+00  0.000000D+00 -0.235975D-01  0.000000D+00
     12   0.000000D+00  0.392055D+00  0.000000D+00 -0.386042D+00  0.000000D+00
     13   0.000000D+00  0.522578D+00  0.000000D+00 -0.259130D+00  0.000000D+00
     14   0.000000D+00  0.000000D+00  0.000000D+00  0.000000D+00  0.000000D+00
     15  -0.259449D+00  0.000000D+00  0.179739D-02  0.000000D+00  0.000000D+00
     16   0.000000D+00  0.000000D+00  0.000000D+00  0.000000D+00 -0.329495D+00
                21            22            23            24            25 
      1  -0.114018D+03 -0.114010D+03 -0.114007D+03 -0.114000D+03 -0.113996D+03
      2   0.000000D+00  0.000000D+00  0.000000D+00 -0.137239D+00  0.000000D+00
      3   0.711943D-02  0.000000D+00 -0.466857D+00  0.000000D+00  0.000000D+00
      4   0.000000D+00  0.000000D+00  0.000000D+00  0.000000D+00  0.000000D+00
      5   0.000000D+00  0.000000D+00  0.000000D+00  0.564542D-01  0.000000D+00
      6  -0.145262D-01  0.000000D+00  0.206169D+00  0.000000D+00  0.000000D+00
      7   0.000000D+00  0.000000D+00  0.000000D+00  0.000000D+00  0.000000D+00
      8   0.209478D+00  0.000000D+00 -0.772014D-01  0.000000D+00  0.000000D+00
      9   0.000000D+00  0.000000D+00  0.000000D+00  0.143338D+00  0.000000D+00
     10   0.000000D+00 -0.496383D-01  0.000000D+00  0.000000D+00 -0.336881D-01
     11   0.000000D+00  0.000000D+00  0.000000D+00  0.000000D+00  0.000000D+00
     12   0.000000D+00  0.000000D+00  0.000000D+00  0.000000D+00  0.000000D+00
     13   0.000000D+00  0.000000D+00  0.000000D+00  0.000000D+00  0.000000D+00
     14   0.000000D+00 -0.252645D+00  0.000000D+00  0.000000D+00  0.384954D+00
     15   0.000000D+00  0.000000D+00  0.000000D+00 -0.117829D+00  0.000000D+00
     16   0.447996D+00  0.000000D+00 -0.816192D+00  0.000000D+00  0.000000D+00
                26            27            28            29            30 
      1  -0.113984D+03 -0.113967D+03 -0.113961D+03 -0.113955D+03 -0.113948D+03
      2   0.000000D+00  0.137329D+00  0.000000D+00  0.000000D+00  0.000000D+00
      3  -0.525890D+00  0.000000D+00  0.000000D+00  0.000000D+00  0.000000D+00
      4   0.000000D+00  0.000000D+00 -0.548842D+00 -0.794137D+00  0.191364D-01
      5   0.000000D+00 -0.582529D-01  0.000000D+00  0.000000D+00  0.000000D+00
      6   0.237533D+00  0.000000D+00  0.000000D+00  0.000000D+00  0.000000D+00
      7   0.000000D+00  0.000000D+00  0.252885D+00  0.381228D+00 -0.730312D-02
      8   0.997583D+00  0.000000D+00  0.000000D+00  0.000000D+00  0.000000D+00
      9   0.000000D+00 -0.446594D-01  0.000000D+00  0.000000D+00  0.000000D+00
     10   0.000000D+00  0.000000D+00  0.000000D+00  0.000000D+00  0.000000D+00
     11   0.000000D+00  0.000000D+00 -0.668696D-01  0.173814D+00  0.235899D+00
     12   0.000000D+00  0.000000D+00  0.268766D+00 -0.931087D+00  0.588027D+00
     13   0.000000D+00  0.000000D+00  0.178420D+00 -0.240858D-01  0.399205D+00
     14   0.000000D+00  0.000000D+00  0.000000D+00  0.000000D+00  0.000000D+00
     15   0.000000D+00  0.257569D+00  0.000000D+00  0.000000D+00  0.000000D+00
     16  -0.145683D+00  0.000000D+00  0.000000D+00  0.000000D+00  0.000000D+00

 Test job not archived.
 1\1\GINC-BHD0016\SP\RB3LYP TD-FC\6-311+G(d,p)\C1H2O1\BWEIGHT\17-Sep-20
 21\0\\#p B3LYP/6-311+G** #p TD=(singlets,nstates=30)IOp(6/8=3) IOp(9/4
 0=4)\\Scan Step 210, Bond Length 1.55\\0,1\C,0,0.,0.,-0.52736\H,0,0.,0
 .93726,-1.11871\H,0,0.,-0.93726,-1.11871\O,0,0.,0.,1.02264\\Version=ES
 64L-G16RevA.03\State=1-A1\HF=-114.4466119\RMSD=2.822e-09\PG=C02V [C2(C
 1O1),SGV(H2)]\\@


 OLD HORSE! OLD HORSE! WHAT BROUGHT YOU HERE?
 FROM SACARAP' TO PORTLAND PIER
 I'VE CARTED STONE THIS MANY A YEAR;
 TILL, KILLED BY BLOWS AND SORE ABUSE,
 THEY SALTED ME DOWN FOR SAILORS' USE.
 THE SAILORS THEY DO ME DESPISE;
 THEY TURN ME OVER AND DAMN MY EYES;
 CUT OFF MY MEAT, AND SCRAPE MY BONES,
 AND PITCH ME OVER TO DAVY JONES.

    SAILORS' COMPLAINT ABOUT THE BEEF
    SERVED ON SHIPBOARD, CIRCA 1835.
 Job cpu time:       0 days  0 hours  0 minutes 26.2 seconds.
 Elapsed time:       0 days  0 hours  0 minutes 27.1 seconds.
 File lengths (MBytes):  RWF=     79 Int=      0 D2E=      0 Chk=     32 Scr=      1
 Normal termination of Gaussian 16 at Fri Sep 17 10:52:59 2021.
