 Entering Gaussian System, Link 0=g16
 Initial command:
 /software/gaussian/g16-c01/sse4/g16/l1.exe "/local_scratch/24657475/Gau-20729.inp" -scrdir="/local_scratch/24657475/"
 Entering Link 1 = /software/gaussian/g16-c01/sse4/g16/l1.exe PID=     20779.
  
 Copyright (c) 1988-2019, Gaussian, Inc.  All Rights Reserved.
  
 This is part of the Gaussian(R) 16 program.  It is based on
 the Gaussian(R) 09 system (copyright 2009, Gaussian, Inc.),
 the Gaussian(R) 03 system (copyright 2003, Gaussian, Inc.),
 the Gaussian(R) 98 system (copyright 1998, Gaussian, Inc.),
 the Gaussian(R) 94 system (copyright 1995, Gaussian, Inc.),
 the Gaussian 92(TM) system (copyright 1992, Gaussian, Inc.),
 the Gaussian 90(TM) system (copyright 1990, Gaussian, Inc.),
 the Gaussian 88(TM) system (copyright 1988, Gaussian, Inc.),
 the Gaussian 86(TM) system (copyright 1986, Carnegie Mellon
 University), and the Gaussian 82(TM) system (copyright 1983,
 Carnegie Mellon University). Gaussian is a federally registered
 trademark of Gaussian, Inc.
  
 This software contains proprietary and confidential information,
 including trade secrets, belonging to Gaussian, Inc.
  
 This software is provided under written license and may be
 used, copied, transmitted, or stored only in accord with that
 written license.
  
 The following legend is applicable only to US Government
 contracts under FAR:
  
                    RESTRICTED RIGHTS LEGEND
  
 Use, reproduction and disclosure by the US Government is
 subject to restrictions as set forth in subparagraphs (a)
 and (c) of the Commercial Computer Software - Restricted
 Rights clause in FAR 52.227-19.
  
 Gaussian, Inc.
 340 Quinnipiac St., Bldg. 40, Wallingford CT 06492
  
  
 ---------------------------------------------------------------
 Warning -- This program may not be used in any manner that
 competes with the business of Gaussian, Inc. or will provide
 assistance to any competitor of Gaussian, Inc.  The licensee
 of this program is prohibited from giving any competitor of
 Gaussian, Inc. access to this program.  By using this program,
 the user acknowledges that Gaussian, Inc. is engaged in the
 business of creating and licensing software in the field of
 computational chemistry and represents and warrants to the
 licensee that it is not a competitor of Gaussian, Inc. and that
 it will not use this program in any manner prohibited above.
 ---------------------------------------------------------------
  

 Cite this work as:
 Gaussian 16, Revision C.01,
 M. J. Frisch, G. W. Trucks, H. B. Schlegel, G. E. Scuseria, 
 M. A. Robb, J. R. Cheeseman, G. Scalmani, V. Barone, 
 G. A. Petersson, H. Nakatsuji, X. Li, M. Caricato, A. V. Marenich, 
 J. Bloino, B. G. Janesko, R. Gomperts, B. Mennucci, H. P. Hratchian, 
 J. V. Ortiz, A. F. Izmaylov, J. L. Sonnenberg, D. Williams-Young, 
 F. Ding, F. Lipparini, F. Egidi, J. Goings, B. Peng, A. Petrone, 
 T. Henderson, D. Ranasinghe, V. G. Zakrzewski, J. Gao, N. Rega, 
 G. Zheng, W. Liang, M. Hada, M. Ehara, K. Toyota, R. Fukuda, 
 J. Hasegawa, M. Ishida, T. Nakajima, Y. Honda, O. Kitao, H. Nakai, 
 T. Vreven, K. Throssell, J. A. Montgomery, Jr., J. E. Peralta, 
 F. Ogliaro, M. J. Bearpark, J. J. Heyd, E. N. Brothers, K. N. Kudin, 
 V. N. Staroverov, T. A. Keith, R. Kobayashi, J. Normand, 
 K. Raghavachari, A. P. Rendell, J. C. Burant, S. S. Iyengar, 
 J. Tomasi, M. Cossi, J. M. Millam, M. Klene, C. Adamo, R. Cammi, 
 J. W. Ochterski, R. L. Martin, K. Morokuma, O. Farkas, 
 J. B. Foresman, and D. J. Fox, Gaussian, Inc., Wallingford CT, 2019.
 
 ******************************************
 Gaussian 16:  ES64L-G16RevC.01  3-Jul-2019
                 1-May-2024 
 ******************************************
 %chk=geometry.chk
 %mem=9GB
 %nprocshared=12
 Will use up to   12 processors via shared memory.
 ----------------------------------------
 #P wB97XD/6-311+G* NoSymm #P Field=Y-252
 ----------------------------------------
 1/38=1,172=1/1;
 2/12=2,15=1,17=6,18=5,40=1/2;
 3/5=4,6=6,7=11,11=2,14=2,15=-252,25=1,30=1,74=-58/1,2,3;
 4//1;
 5/5=2,38=5/2;
 6/7=2,8=2,9=2,10=2,28=1/1;
 99/5=1,9=1/99;
 Leave Link    1 at Wed May  1 14:27:50 2024, MaxMem=  1207959552 cpu:               5.3 elap:               5.3
 (Enter /software/gaussian/g16-c01/sse4/g16/l101.exe)
 -------
 TitleMe
 -------
 Symbolic Z-matrix:
 Charge =  1 Multiplicity = 1
 C                     0.0295    1.3397    0.0682 
 C                     1.4348    1.2867    0.0064 
 C                     2.1118    0.0511   -0.0054 
 C                     1.4451   -1.1372    0.0312 
 C                    -0.6879    0.1682    0.11 
 H                    -0.4713    2.2984    0.0781 
 H                     2.0273    2.1965   -0.0322 
 H                     1.9897   -2.0764    0.0232 
 H                    -1.7716    0.1804    0.1582 
 N                     3.5864    0.051    -0.0675 
 O                     4.1471   -1.0597   -0.0881 
 O                     4.145     1.1639   -0.0901 
 C                    -0.0236   -1.1458    0.0835 
 H                    -0.4367   -1.8725    0.7889 
 Br                   -0.5359   -1.8697   -1.7408 
 
 ITRead=  0  0  0  0  0  0  0  0  0  0  0  0  0  0  0
 MicOpt= -1 -1 -1 -1 -1 -1 -1 -1 -1 -1 -1 -1 -1 -1 -1
 NAtoms=     15 NQM=       15 NQMF=       0 NMMI=      0 NMMIF=      0
                NMic=       0 NMicF=      0.
                    Isotopes and Nuclear Properties:
 (Nuclear quadrupole moments (NQMom) in fm**2, nuclear magnetic moments (NMagM)
  in nuclear magnetons)

  Atom         1           2           3           4           5           6           7           8           9          10
 IAtWgt=          12          12          12          12          12           1           1           1           1          14
 AtmWgt=  12.0000000  12.0000000  12.0000000  12.0000000  12.0000000   1.0078250   1.0078250   1.0078250   1.0078250  14.0030740
 NucSpn=           0           0           0           0           0           1           1           1           1           2
 AtZEff=  -0.0000000  -0.0000000  -0.0000000  -0.0000000  -0.0000000  -0.0000000  -0.0000000  -0.0000000  -0.0000000  -0.0000000
 NQMom=    0.0000000   0.0000000   0.0000000   0.0000000   0.0000000   0.0000000   0.0000000   0.0000000   0.0000000   2.0440000
 NMagM=    0.0000000   0.0000000   0.0000000   0.0000000   0.0000000   2.7928460   2.7928460   2.7928460   2.7928460   0.4037610
 AtZNuc=   6.0000000   6.0000000   6.0000000   6.0000000   6.0000000   1.0000000   1.0000000   1.0000000   1.0000000   7.0000000

  Atom        11          12          13          14          15
 IAtWgt=          16          16          12           1          79
 AtmWgt=  15.9949146  15.9949146  12.0000000   1.0078250  78.9183361
 NucSpn=           0           0           0           1           3
 AtZEff=  -0.0000000  -0.0000000  -0.0000000  -0.0000000  -0.0000000
 NQMom=    0.0000000   0.0000000   0.0000000   0.0000000  31.3000000
 NMagM=    0.0000000   0.0000000   0.0000000   2.7928460   2.1063990
 AtZNuc=   8.0000000   8.0000000   6.0000000   1.0000000  35.0000000
 Leave Link  101 at Wed May  1 14:27:54 2024, MaxMem=  1207959552 cpu:               1.4 elap:               1.5
 (Enter /software/gaussian/g16-c01/sse4/g16/l202.exe)
                          Input orientation:                          
 ---------------------------------------------------------------------
 Center     Atomic      Atomic             Coordinates (Angstroms)
 Number     Number       Type             X           Y           Z
 ---------------------------------------------------------------------
      1          6           0        0.029500    1.339700    0.068200
      2          6           0        1.434800    1.286700    0.006400
      3          6           0        2.111800    0.051100   -0.005400
      4          6           0        1.445100   -1.137200    0.031200
      5          6           0       -0.687900    0.168200    0.110000
      6          1           0       -0.471300    2.298400    0.078100
      7          1           0        2.027300    2.196500   -0.032200
      8          1           0        1.989700   -2.076400    0.023200
      9          1           0       -1.771600    0.180400    0.158200
     10          7           0        3.586400    0.051000   -0.067500
     11          8           0        4.147100   -1.059700   -0.088100
     12          8           0        4.145000    1.163900   -0.090100
     13          6           0       -0.023600   -1.145800    0.083500
     14          1           0       -0.436700   -1.872500    0.788900
     15         35           0       -0.535900   -1.869700   -1.740800
 ---------------------------------------------------------------------
                    Distance matrix (angstroms):
                    1          2          3          4          5
     1  C    0.000000
     2  C    1.407656   0.000000
     3  C    2.449874   1.408963   0.000000
     4  C    2.853126   2.424049   1.363043   0.000000
     5  C    1.374344   2.401589   2.804523   2.501993   0.000000
     6  H    1.081667   2.159142   3.424870   3.934226   2.141421
     7  H    2.176095   1.086408   2.147231   3.384750   3.392128
     8  H    3.938800   3.408612   2.131193   1.085702   3.495040
     9  H    2.143837   3.395283   3.888995   3.478413   1.084840
    10  N    3.785591   2.482297   1.475907   2.450862   4.279589
    11  O    4.768247   3.587631   2.320164   2.705743   4.992415
    12  O    4.122294   2.714696   2.319353   3.549540   4.938459
    13  C    2.486114   2.837240   2.449573   1.469656   1.472614
    14  H    3.324903   3.754379   3.290289   2.157764   2.165286
    15  Br   3.727252   4.110867   3.702891   2.756973   2.757100
                    6          7          8          9         10
     6  H    0.000000
     7  H    2.503108   0.000000
     8  H    5.019802   4.273425   0.000000
     9  H    2.486588   4.304945   4.388479   0.000000
    10  N    4.640790   2.652397   2.661486   5.364313   0.000000
    11  O    5.712624   3.885809   2.387560   6.052233   1.244373
    12  O    4.756638   2.356750   3.893289   6.002923   1.245428
    13  C    3.473180   3.923079   2.218790   2.195425   3.806210
    14  H    4.231175   4.827242   2.552506   2.528663   4.540772
    15  Br   4.548146   5.101303   3.087568   3.055498   4.845862
                   11         12         13         14         15
    11  O    0.000000
    12  O    2.223602   0.000000
    13  C    4.175117   4.768865   0.000000
    14  H    4.737193   5.566358   1.093770   0.000000
    15  Br   5.031700   5.817075   2.028436   2.531646   0.000000
 Symmetry turned off by external request.
 Stoichiometry    C6H5BrNO2(1+)
 Framework group  C1[X(C6H5BrNO2)]
 Deg. of freedom    39
 Full point group                 C1      NOp   1
 Rotational constants (GHZ):           1.8252210           0.5518633           0.4576002
 Leave Link  202 at Wed May  1 14:27:56 2024, MaxMem=  1207959552 cpu:               1.2 elap:               1.2
 (Enter /software/gaussian/g16-c01/sse4/g16/l301.exe)
 Standard basis: 6-311+G(d) (5D, 7F)
 Ernie: Thresh=  0.10000D-02 Tol=  0.10000D-05 Strict=F.
 The following finite field(s) will be applied:
 An electric field of              0.0000 -0.0252  0.0000
   261 basis functions,   443 primitive gaussians,   273 cartesian basis functions
    49 alpha electrons       49 beta electrons
       nuclear repulsion energy       739.2122215416 Hartrees.
 IExCor= 4639 DFT=T Ex+Corr=wB97XD ExCW=0 ScaHFX=  1.000000
 ScaDFX=  1.000000  1.000000  1.000000  1.000000 ScalE2=  1.000000  1.000000
 IRadAn=      5 IRanWt=     -1 IRanGd=            0 ICorTp=0 IEmpDi=121
 HFx  wShort=  0.000000 wLong=  0.200000 cFull=  0.222036 cShort=  0.000000 cLong=  0.777964
 DFx  wShort=  0.000000 wLong=  0.200000 cFull=  0.000000 cShort=  0.000000 cLong=  1.000000
 NAtoms=   15 NActive=   15 NUniq=   15 SFac= 1.00D+00 NAtFMM=   60 NAOKFM=F Big=F
 Integral buffers will be    131072 words long.
 Raffenetti 2 integral format.
 Two-electron integral symmetry is turned off.
 R6Disp:  Grimme-D2 Dispersion energy=       -0.0077368520 Hartrees.
 Nuclear repulsion after empirical dispersion term =      739.2044846896 Hartrees.
 Leave Link  301 at Wed May  1 14:27:57 2024, MaxMem=  1207959552 cpu:               1.1 elap:               1.0
 (Enter /software/gaussian/g16-c01/sse4/g16/l302.exe)
 NPDir=0 NMtPBC=     1 NCelOv=     1 NCel=       1 NClECP=     1 NCelD=      1
         NCelK=      1 NCelE2=     1 NClLst=     1 CellRange=     0.0.
 One-electron integrals computed using PRISM.
 NBasis=   261 RedAO= T EigKep=  2.35D-06  NBF=   261
 NBsUse=   261 1.00D-06 EigRej= -1.00D+00 NBFU=   261
 Precomputing XC quadrature grid using
 IXCGrd= 4 IRadAn=           5 IRanWt=          -1 IRanGd=           0 AccXCQ= 0.00D+00.
 Generated NRdTot=       0 NPtTot=           0 NUsed=           0 NTot=          32
 NSgBfM=   273   273   273   273   273 MxSgAt=    15 MxSgA2=    15.
 Leave Link  302 at Wed May  1 14:28:20 2024, MaxMem=  1207959552 cpu:              22.1 elap:              22.1
 (Enter /software/gaussian/g16-c01/sse4/g16/l303.exe)
 DipDrv:  MaxL=1.
 The nuclear repulsion energy is now       742.0687175566 hartrees.
 Leave Link  303 at Wed May  1 14:28:23 2024, MaxMem=  1207959552 cpu:               3.3 elap:               3.3
 (Enter /software/gaussian/g16-c01/sse4/g16/l401.exe)
 ExpMin= 3.50D-02 ExpMax= 4.40D+05 ExpMxC= 1.51D+04 IAcc=3 IRadAn=         5 AccDes= 0.00D+00
 Harris functional with IExCor= 4639 and IRadAn=       5 diagonalized for initial guess.
 HarFok:  IExCor= 4639 AccDes= 0.00D+00 IRadAn=         5 IDoV= 1 UseB2=F ITyADJ=14
 ICtDFT=  3500011 ScaDFX=  1.000000  1.000000  1.000000  1.000000
 FoFCou: FMM=F IPFlag=           0 FMFlag=      100000 FMFlg1=           0
         NFxFlg=           0 DoJE=T BraDBF=F KetDBF=T FulRan=T
         wScrn=  0.000000 ICntrl=       500 IOpCl=  0 I1Cent=   200000004 NGrid=           0
         NMat0=    1 NMatS0=      1 NMatT0=    0 NMatD0=    1 NMtDS0=    0 NMtDT0=    0
 Symmetry not used in FoFCou.
 Harris En= -2970.82567335106    
 JPrj=0 DoOrth=F DoCkMO=F.
 Leave Link  401 at Wed May  1 14:28:55 2024, MaxMem=  1207959552 cpu:              31.3 elap:              31.3
 (Enter /software/gaussian/g16-c01/sse4/g16/l502.exe)
 Two-electron integral symmetry not used.
 Closed shell SCF:
 Using DIIS extrapolation, IDIIS=  1040.
 NGot=  1207959552 LenX=  1207804877 LenY=  1207729907
 Requested convergence on RMS density matrix=1.00D-08 within 128 cycles.
 Requested convergence on MAX density matrix=1.00D-06.
 Requested convergence on             energy=1.00D-06.
 No special actions if energy rises.
 Fock matrices will be formed incrementally for  20 cycles.

 Cycle   1  Pass 1  IDiag  1:
 FoFJK:  IHMeth= 1 ICntrl=       0 DoSepK=T KAlg= 0 I1Cent=           0 FoldK=F
 IRaf=         1 NMat=       1 IRICut=       1 DoRegI=T DoRafI=F ISym2E= 0 IDoP0=0 IntGTp=1.
 FoFCou: FMM=F IPFlag=           0 FMFlag=      100000 FMFlg1=           0
         NFxFlg=           0 DoJE=T BraDBF=F KetDBF=F FulRan=T
         wScrn=  0.000000 ICntrl=       500 IOpCl=  0 I1Cent=           0 NGrid=           0
         NMat0=    1 NMatS0=      1 NMatT0=    0 NMatD0=    1 NMtDS0=    0 NMtDT0=    0
 Symmetry not used in FoFCou.
 E= -3007.23961976264    
 DIIS: error= 3.18D-01 at cycle   1 NSaved=   1.
 NSaved= 1 IEnMin= 1 EnMin= -3007.23961976264     IErMin= 1 ErrMin= 3.18D-01
 ErrMax= 3.18D-01  0.00D+00 EMaxC= 1.00D-01 BMatC= 1.31D+01 BMatP= 1.31D+01
 IDIUse=3 WtCom= 0.00D+00 WtEn= 1.00D+00
 Coeff-Com:  0.100D+01
 Coeff-En:   0.100D+01
 Coeff:      0.100D+01
 Gap=     0.816 Goal=   None    Shift=    0.000
 GapD=    0.816 DampG=2.000 DampE=0.250 DampFc=0.5000 IDamp=-1.
 Damping current iteration by 5.00D-01
 RMSDP=1.77D+00 MaxDP=2.00D+02              OVMax= 7.09D-01

 Cycle   2  Pass 1  IDiag  1:
 RMSU=  4.88D-02    CP:  5.09D-01
 E= -3006.58063057519     Delta-E=        0.658989187453 Rises=F Damp=T
 DIIS: error= 1.40D-01 at cycle   2 NSaved=   2.
 NSaved= 2 IEnMin= 1 EnMin= -3007.23961976264     IErMin= 2 ErrMin= 1.40D-01
 ErrMax= 1.40D-01  0.00D+00 EMaxC= 1.00D-01 BMatC= 3.04D+00 BMatP= 1.31D+01
 IDIUse=3 WtCom= 0.00D+00 WtEn= 1.00D+00
 Coeff-Com: -0.687D-01 0.107D+01
 Coeff-En:   0.558D+00 0.442D+00
 Coeff:      0.558D+00 0.442D+00
 Gap=     0.611 Goal=   None    Shift=    0.000
 RMSDP=8.95D-01 MaxDP=1.03D+02 DE= 6.59D-01 OVMax= 8.87D-01

 Cycle   3  Pass 1  IDiag  1:
 RMSU=  2.51D-02    CP:  1.31D-02  1.21D+00
 E= -3009.40642838529     Delta-E=       -2.825797810099 Rises=F Damp=F
 DIIS: error= 8.86D-02 at cycle   3 NSaved=   3.
 NSaved= 3 IEnMin= 3 EnMin= -3009.40642838529     IErMin= 3 ErrMin= 8.86D-02
 ErrMax= 8.86D-02  0.00D+00 EMaxC= 1.00D-01 BMatC= 2.33D+00 BMatP= 3.04D+00
 IDIUse=3 WtCom= 1.14D-01 WtEn= 8.86D-01
 Coeff-Com:  0.198D+00 0.125D+00 0.677D+00
 Coeff-En:   0.262D+00 0.000D+00 0.738D+00
 Coeff:      0.255D+00 0.143D-01 0.731D+00
 Gap=     0.327 Goal=   None    Shift=    0.000
 RMSDP=3.12D-02 MaxDP=2.18D+00 DE=-2.83D+00 OVMax= 4.89D-01

 Cycle   4  Pass 1  IDiag  1:
 RMSU=  2.92D-02    CP:  1.12D-02  1.01D+00  9.51D-01
 E= -3009.56635245891     Delta-E=       -0.159924073620 Rises=F Damp=F
 DIIS: error= 1.09D-01 at cycle   4 NSaved=   4.
 NSaved= 4 IEnMin= 4 EnMin= -3009.56635245891     IErMin= 3 ErrMin= 8.86D-02
 ErrMax= 1.09D-01  0.00D+00 EMaxC= 1.00D-01 BMatC= 1.42D+00 BMatP= 2.33D+00
 IDIUse=3 WtCom= 0.00D+00 WtEn= 1.00D+00
 Coeff-Com:  0.107D+00-0.635D-01 0.474D+00 0.482D+00
 Coeff-En:   0.000D+00 0.000D+00 0.468D+00 0.532D+00
 Coeff:      0.000D+00 0.000D+00 0.468D+00 0.532D+00
 Gap=     0.182 Goal=   None    Shift=    0.000
 RMSDP=2.02D-02 MaxDP=1.51D+00 DE=-1.60D-01 OVMax= 4.22D-01

 Cycle   5  Pass 1  IDiag  1:
 RMSU=  1.71D-02    CP:  1.22D-02  1.03D+00  1.26D+00  7.49D-01
 E= -3010.46347017414     Delta-E=       -0.897117715231 Rises=F Damp=F
 DIIS: error= 2.45D-02 at cycle   5 NSaved=   5.
 NSaved= 5 IEnMin= 5 EnMin= -3010.46347017414     IErMin= 5 ErrMin= 2.45D-02
 ErrMax= 2.45D-02  0.00D+00 EMaxC= 1.00D-01 BMatC= 1.85D-01 BMatP= 1.42D+00
 IDIUse=3 WtCom= 7.55D-01 WtEn= 2.45D-01
 Coeff-Com: -0.477D-02 0.927D-02 0.181D+00 0.264D+00 0.551D+00
 Coeff-En:   0.000D+00 0.000D+00 0.000D+00 0.502D-01 0.950D+00
 Coeff:     -0.360D-02 0.700D-02 0.137D+00 0.211D+00 0.648D+00
 Gap=     0.247 Goal=   None    Shift=    0.000
 RMSDP=1.47D-02 MaxDP=1.35D+00 DE=-8.97D-01 OVMax= 1.29D-01

 Cycle   6  Pass 1  IDiag  1:
 RMSU=  4.90D-03    CP:  1.02D-02  8.74D-01  1.04D+00  7.02D-01  4.40D-01
 E= -3010.54575435635     Delta-E=       -0.082284182216 Rises=F Damp=F
 DIIS: error= 1.61D-02 at cycle   6 NSaved=   6.
 NSaved= 6 IEnMin= 6 EnMin= -3010.54575435635     IErMin= 6 ErrMin= 1.61D-02
 ErrMax= 1.61D-02  0.00D+00 EMaxC= 1.00D-01 BMatC= 3.37D-02 BMatP= 1.85D-01
 IDIUse=3 WtCom= 8.39D-01 WtEn= 1.61D-01
 Coeff-Com: -0.102D-01 0.217D-01 0.133D-01 0.437D-02 0.307D+00 0.664D+00
 Coeff-En:   0.000D+00 0.000D+00 0.000D+00 0.000D+00 0.138D+00 0.862D+00
 Coeff:     -0.857D-02 0.182D-01 0.112D-01 0.367D-02 0.280D+00 0.696D+00
 Gap=     0.248 Goal=   None    Shift=    0.000
 RMSDP=1.95D-03 MaxDP=9.82D-02 DE=-8.23D-02 OVMax= 5.24D-02

 Cycle   7  Pass 1  IDiag  1:
 RMSU=  1.21D-03    CP:  1.01D-02  8.62D-01  1.05D+00  6.76D-01  5.09D-01
                    CP:  9.99D-01
 E= -3010.56409193837     Delta-E=       -0.018337582019 Rises=F Damp=F
 DIIS: error= 2.79D-03 at cycle   7 NSaved=   7.
 NSaved= 7 IEnMin= 7 EnMin= -3010.56409193837     IErMin= 7 ErrMin= 2.79D-03
 ErrMax= 2.79D-03  0.00D+00 EMaxC= 1.00D-01 BMatC= 1.67D-03 BMatP= 3.37D-02
 IDIUse=3 WtCom= 9.72D-01 WtEn= 2.79D-02
 Coeff-Com: -0.615D-02 0.127D-01-0.115D-01-0.120D-01 0.653D-01 0.278D+00
 Coeff-Com:  0.673D+00
 Coeff-En:   0.000D+00 0.000D+00 0.000D+00 0.000D+00 0.000D+00 0.000D+00
 Coeff-En:   0.100D+01
 Coeff:     -0.597D-02 0.123D-01-0.112D-01-0.117D-01 0.635D-01 0.270D+00
 Coeff:      0.683D+00
 Gap=     0.244 Goal=   None    Shift=    0.000
 RMSDP=7.68D-04 MaxDP=4.96D-02 DE=-1.83D-02 OVMax= 7.37D-03

 Cycle   8  Pass 1  IDiag  1:
 RMSU=  5.17D-04    CP:  1.00D-02  8.63D-01  1.04D+00  6.81D-01  4.85D-01
                    CP:  1.04D+00  9.76D-01
 E= -3010.56529488787     Delta-E=       -0.001202949500 Rises=F Damp=F
 DIIS: error= 6.15D-04 at cycle   8 NSaved=   8.
 NSaved= 8 IEnMin= 8 EnMin= -3010.56529488787     IErMin= 8 ErrMin= 6.15D-04
 ErrMax= 6.15D-04  0.00D+00 EMaxC= 1.00D-01 BMatC= 1.39D-04 BMatP= 1.67D-03
 IDIUse=3 WtCom= 9.94D-01 WtEn= 6.15D-03
 Coeff-Com: -0.174D-02 0.334D-02-0.385D-02-0.116D-03-0.190D-01-0.197D-01
 Coeff-Com:  0.240D+00 0.801D+00
 Coeff-En:   0.000D+00 0.000D+00 0.000D+00 0.000D+00 0.000D+00 0.000D+00
 Coeff-En:   0.000D+00 0.100D+01
 Coeff:     -0.172D-02 0.332D-02-0.383D-02-0.115D-03-0.188D-01-0.195D-01
 Coeff:      0.238D+00 0.803D+00
 Gap=     0.250 Goal=   None    Shift=    0.000
 RMSDP=7.12D-04 MaxDP=4.48D-02 DE=-1.20D-03 OVMax= 4.88D-03

 Cycle   9  Pass 1  IDiag  1:
 RMSU=  2.60D-04    CP:  9.92D-03  8.61D-01  1.03D+00  6.81D-01  4.61D-01
                    CP:  1.05D+00  1.23D+00  1.56D+00
 E= -3010.56546822862     Delta-E=       -0.000173340744 Rises=F Damp=F
 DIIS: error= 2.24D-04 at cycle   9 NSaved=   9.
 NSaved= 9 IEnMin= 9 EnMin= -3010.56546822862     IErMin= 9 ErrMin= 2.24D-04
 ErrMax= 2.24D-04  0.00D+00 EMaxC= 1.00D-01 BMatC= 1.28D-05 BMatP= 1.39D-04
 IDIUse=3 WtCom= 9.98D-01 WtEn= 2.24D-03
 Coeff-Com: -0.243D-03 0.417D-03-0.325D-03 0.104D-02-0.128D-01-0.328D-01
 Coeff-Com: -0.138D-01 0.229D+00 0.830D+00
 Coeff-En:   0.000D+00 0.000D+00 0.000D+00 0.000D+00 0.000D+00 0.000D+00
 Coeff-En:   0.000D+00 0.000D+00 0.100D+01
 Coeff:     -0.243D-03 0.416D-03-0.324D-03 0.103D-02-0.128D-01-0.327D-01
 Coeff:     -0.138D-01 0.228D+00 0.830D+00
 Gap=     0.249 Goal=   None    Shift=    0.000
 RMSDP=2.31D-04 MaxDP=1.95D-02 DE=-1.73D-04 OVMax= 2.44D-03

 Cycle  10  Pass 1  IDiag  1:
 RMSU=  8.13D-05    CP:  9.89D-03  8.60D-01  1.03D+00  6.82D-01  4.51D-01
                    CP:  1.06D+00  1.28D+00  1.67D+00  1.11D+00
 E= -3010.56548621852     Delta-E=       -0.000017989901 Rises=F Damp=F
 DIIS: error= 9.16D-05 at cycle  10 NSaved=  10.
 NSaved=10 IEnMin=10 EnMin= -3010.56548621852     IErMin=10 ErrMin= 9.16D-05
 ErrMax= 9.16D-05  0.00D+00 EMaxC= 1.00D-01 BMatC= 2.62D-06 BMatP= 1.28D-05
 IDIUse=1 WtCom= 1.00D+00 WtEn= 0.00D+00
 Coeff-Com:  0.160D-04-0.658D-04-0.230D-04 0.409D-03-0.246D-02-0.592D-02
 Coeff-Com: -0.186D-01 0.191D-01 0.325D+00 0.683D+00
 Coeff:      0.160D-04-0.658D-04-0.230D-04 0.409D-03-0.246D-02-0.592D-02
 Coeff:     -0.186D-01 0.191D-01 0.325D+00 0.683D+00
 Gap=     0.249 Goal=   None    Shift=    0.000
 RMSDP=8.17D-05 MaxDP=7.26D-03 DE=-1.80D-05 OVMax= 9.56D-04

 Cycle  11  Pass 1  IDiag  1:
 RMSU=  2.66D-05    CP:  9.88D-03  8.59D-01  1.03D+00  6.82D-01  4.49D-01
                    CP:  1.06D+00  1.29D+00  1.73D+00  1.19D+00  1.04D+00
 E= -3010.56548965285     Delta-E=       -0.000003434331 Rises=F Damp=F
 DIIS: error= 5.28D-05 at cycle  11 NSaved=  11.
 NSaved=11 IEnMin=11 EnMin= -3010.56548965285     IErMin=11 ErrMin= 5.28D-05
 ErrMax= 5.28D-05  0.00D+00 EMaxC= 1.00D-01 BMatC= 6.50D-07 BMatP= 2.62D-06
 IDIUse=1 WtCom= 1.00D+00 WtEn= 0.00D+00
 Coeff-Com:  0.290D-04-0.101D-03-0.206D-03-0.655D-04 0.169D-02 0.587D-02
 Coeff-Com:  0.171D-02-0.270D-01-0.453D-01 0.253D+00 0.810D+00
 Coeff:      0.290D-04-0.101D-03-0.206D-03-0.655D-04 0.169D-02 0.587D-02
 Coeff:      0.171D-02-0.270D-01-0.453D-01 0.253D+00 0.810D+00
 Gap=     0.249 Goal=   None    Shift=    0.000
 RMSDP=3.03D-05 MaxDP=2.49D-03 DE=-3.43D-06 OVMax= 6.57D-04

 Cycle  12  Pass 1  IDiag  1:
 RMSU=  1.32D-05    CP:  9.88D-03  8.59D-01  1.03D+00  6.82D-01  4.49D-01
                    CP:  1.06D+00  1.29D+00  1.74D+00  1.17D+00  1.13D+00
                    CP:  1.27D+00
 E= -3010.56549080234     Delta-E=       -0.000001149491 Rises=F Damp=F
 DIIS: error= 1.56D-05 at cycle  12 NSaved=  12.
 NSaved=12 IEnMin=12 EnMin= -3010.56549080234     IErMin=12 ErrMin= 1.56D-05
 ErrMax= 1.56D-05  0.00D+00 EMaxC= 1.00D-01 BMatC= 9.57D-08 BMatP= 6.50D-07
 IDIUse=1 WtCom= 1.00D+00 WtEn= 0.00D+00
 Coeff-Com:  0.568D-05-0.303D-04-0.127D-03-0.795D-04 0.694D-03 0.291D-02
 Coeff-Com:  0.666D-02-0.430D-02-0.675D-01-0.589D-01 0.188D+00 0.933D+00
 Coeff:      0.568D-05-0.303D-04-0.127D-03-0.795D-04 0.694D-03 0.291D-02
 Coeff:      0.666D-02-0.430D-02-0.675D-01-0.589D-01 0.188D+00 0.933D+00
 Gap=     0.249 Goal=   None    Shift=    0.000
 RMSDP=1.95D-05 MaxDP=1.29D-03 DE=-1.15D-06 OVMax= 4.08D-04

 Cycle  13  Pass 1  IDiag  1:
 RMSU=  5.18D-06    CP:  9.88D-03  8.59D-01  1.03D+00  6.83D-01  4.49D-01
                    CP:  1.06D+00  1.29D+00  1.74D+00  1.15D+00  1.17D+00
                    CP:  1.51D+00  1.40D+00
 E= -3010.56549110049     Delta-E=       -0.000000298148 Rises=F Damp=F
 DIIS: error= 7.84D-06 at cycle  13 NSaved=  13.
 NSaved=13 IEnMin=13 EnMin= -3010.56549110049     IErMin=13 ErrMin= 7.84D-06
 ErrMax= 7.84D-06  0.00D+00 EMaxC= 1.00D-01 BMatC= 1.61D-08 BMatP= 9.57D-08
 IDIUse=1 WtCom= 1.00D+00 WtEn= 0.00D+00
 Coeff-Com:  0.779D-06 0.400D-05 0.444D-05-0.125D-04-0.250D-03-0.375D-03
 Coeff-Com:  0.128D-02 0.352D-02-0.705D-02-0.662D-01-0.141D+00 0.277D+00
 Coeff-Com:  0.934D+00
 Coeff:      0.779D-06 0.400D-05 0.444D-05-0.125D-04-0.250D-03-0.375D-03
 Coeff:      0.128D-02 0.352D-02-0.705D-02-0.662D-01-0.141D+00 0.277D+00
 Coeff:      0.934D+00
 Gap=     0.249 Goal=   None    Shift=    0.000
 RMSDP=6.89D-06 MaxDP=3.21D-04 DE=-2.98D-07 OVMax= 2.40D-04

 Cycle  14  Pass 1  IDiag  1:
 RMSU=  2.33D-06    CP:  9.88D-03  8.59D-01  1.03D+00  6.83D-01  4.49D-01
                    CP:  1.07D+00  1.29D+00  1.74D+00  1.14D+00  1.18D+00
                    CP:  1.61D+00  1.60D+00  1.20D+00
 E= -3010.56549117190     Delta-E=       -0.000000071409 Rises=F Damp=F
 DIIS: error= 3.33D-06 at cycle  14 NSaved=  14.
 NSaved=14 IEnMin=14 EnMin= -3010.56549117190     IErMin=14 ErrMin= 3.33D-06
 ErrMax= 3.33D-06  0.00D+00 EMaxC= 1.00D-01 BMatC= 3.64D-09 BMatP= 1.61D-08
 IDIUse=1 WtCom= 1.00D+00 WtEn= 0.00D+00
 Coeff-Com: -0.140D-05 0.670D-05 0.142D-04 0.100D-04-0.197D-03-0.566D-03
 Coeff-Com: -0.495D-03 0.166D-02 0.508D-02-0.165D-01-0.817D-01 0.113D-02
 Coeff-Com:  0.410D+00 0.681D+00
 Coeff:     -0.140D-05 0.670D-05 0.142D-04 0.100D-04-0.197D-03-0.566D-03
 Coeff:     -0.495D-03 0.166D-02 0.508D-02-0.165D-01-0.817D-01 0.113D-02
 Coeff:      0.410D+00 0.681D+00
 Gap=     0.249 Goal=   None    Shift=    0.000
 RMSDP=2.06D-06 MaxDP=8.33D-05 DE=-7.14D-08 OVMax= 5.18D-05

 Cycle  15  Pass 1  IDiag  1:
 RMSU=  1.02D-06    CP:  9.88D-03  8.59D-01  1.03D+00  6.83D-01  4.49D-01
                    CP:  1.07D+00  1.29D+00  1.74D+00  1.14D+00  1.18D+00
                    CP:  1.61D+00  1.66D+00  1.32D+00  1.11D+00
 E= -3010.56549118021     Delta-E=       -0.000000008312 Rises=F Damp=F
 DIIS: error= 1.08D-06 at cycle  15 NSaved=  15.
 NSaved=15 IEnMin=15 EnMin= -3010.56549118021     IErMin=15 ErrMin= 1.08D-06
 ErrMax= 1.08D-06  0.00D+00 EMaxC= 1.00D-01 BMatC= 3.59D-10 BMatP= 3.64D-09
 IDIUse=1 WtCom= 1.00D+00 WtEn= 0.00D+00
 Coeff-Com: -0.713D-06 0.827D-06 0.383D-05 0.103D-04 0.233D-04-0.688D-04
 Coeff-Com: -0.548D-03-0.906D-03 0.166D-02 0.120D-01 0.118D-01-0.618D-01
 Coeff-Com: -0.729D-01 0.502D-01 0.106D+01
 Coeff:     -0.713D-06 0.827D-06 0.383D-05 0.103D-04 0.233D-04-0.688D-04
 Coeff:     -0.548D-03-0.906D-03 0.166D-02 0.120D-01 0.118D-01-0.618D-01
 Coeff:     -0.729D-01 0.502D-01 0.106D+01
 Gap=     0.249 Goal=   None    Shift=    0.000
 RMSDP=1.43D-06 MaxDP=7.73D-05 DE=-8.31D-09 OVMax= 5.11D-05

 Cycle  16  Pass 1  IDiag  1:
 RMSU=  3.66D-07    CP:  9.88D-03  8.59D-01  1.03D+00  6.83D-01  4.49D-01
                    CP:  1.07D+00  1.29D+00  1.74D+00  1.14D+00  1.17D+00
                    CP:  1.60D+00  1.67D+00  1.39D+00  1.26D+00  1.60D+00
 E= -3010.56549118230     Delta-E=       -0.000000002088 Rises=F Damp=F
 DIIS: error= 4.72D-07 at cycle  16 NSaved=  16.
 NSaved=16 IEnMin=16 EnMin= -3010.56549118230     IErMin=16 ErrMin= 4.72D-07
 ErrMax= 4.72D-07  0.00D+00 EMaxC= 1.00D-01 BMatC= 1.13D-10 BMatP= 3.59D-10
 IDIUse=1 WtCom= 1.00D+00 WtEn= 0.00D+00
 Coeff-Com:  0.154D-06-0.473D-06 0.132D-05 0.640D-06 0.356D-04 0.591D-04
 Coeff-Com: -0.560D-04-0.493D-03-0.711D-03 0.416D-02 0.128D-01-0.127D-01
 Coeff-Com: -0.566D-01-0.151D+00 0.284D+00 0.921D+00
 Coeff:      0.154D-06-0.473D-06 0.132D-05 0.640D-06 0.356D-04 0.591D-04
 Coeff:     -0.560D-04-0.493D-03-0.711D-03 0.416D-02 0.128D-01-0.127D-01
 Coeff:     -0.566D-01-0.151D+00 0.284D+00 0.921D+00
 Gap=     0.249 Goal=   None    Shift=    0.000
 RMSDP=7.26D-07 MaxDP=4.77D-05 DE=-2.09D-09 OVMax= 1.81D-05

 Cycle  17  Pass 1  IDiag  1:
 RMSU=  1.53D-07    CP:  9.88D-03  8.59D-01  1.03D+00  6.83D-01  4.49D-01
                    CP:  1.07D+00  1.29D+00  1.74D+00  1.14D+00  1.17D+00
                    CP:  1.59D+00  1.68D+00  1.42D+00  1.28D+00  1.88D+00
                    CP:  1.27D+00
 E= -3010.56549118262     Delta-E=       -0.000000000319 Rises=F Damp=F
 DIIS: error= 2.11D-07 at cycle  17 NSaved=  17.
 NSaved=17 IEnMin=17 EnMin= -3010.56549118262     IErMin=17 ErrMin= 2.11D-07
 ErrMax= 2.11D-07  0.00D+00 EMaxC= 1.00D-01 BMatC= 1.38D-11 BMatP= 1.13D-10
 IDIUse=1 WtCom= 1.00D+00 WtEn= 0.00D+00
 Coeff-Com:  0.186D-06-0.263D-06 0.450D-06-0.152D-05 0.558D-05 0.231D-04
 Coeff-Com:  0.772D-04 0.336D-04-0.309D-03-0.561D-03 0.129D-02 0.616D-02
 Coeff-Com:  0.162D-02-0.617D-01-0.677D-01 0.165D+00 0.956D+00
 Coeff:      0.186D-06-0.263D-06 0.450D-06-0.152D-05 0.558D-05 0.231D-04
 Coeff:      0.772D-04 0.336D-04-0.309D-03-0.561D-03 0.129D-02 0.616D-02
 Coeff:      0.162D-02-0.617D-01-0.677D-01 0.165D+00 0.956D+00
 Gap=     0.249 Goal=   None    Shift=    0.000
 RMSDP=3.90D-07 MaxDP=2.93D-05 DE=-3.19D-10 OVMax= 7.07D-06

 Cycle  18  Pass 1  IDiag  1:
 RMSU=  6.19D-08    CP:  9.88D-03  8.59D-01  1.03D+00  6.83D-01  4.49D-01
                    CP:  1.07D+00  1.29D+00  1.74D+00  1.14D+00  1.17D+00
                    CP:  1.59D+00  1.68D+00  1.42D+00  1.27D+00  1.97D+00
                    CP:  1.35D+00  1.52D+00
 E= -3010.56549118267     Delta-E=       -0.000000000054 Rises=F Damp=F
 DIIS: error= 7.93D-08 at cycle  18 NSaved=  18.
 NSaved=18 IEnMin=18 EnMin= -3010.56549118267     IErMin=18 ErrMin= 7.93D-08
 ErrMax= 7.93D-08  0.00D+00 EMaxC= 1.00D-01 BMatC= 2.33D-12 BMatP= 1.38D-11
 IDIUse=1 WtCom= 1.00D+00 WtEn= 0.00D+00
 Coeff-Com:  0.108D-06-0.165D-06 0.141D-06-0.533D-06-0.418D-05-0.420D-05
 Coeff-Com:  0.288D-04 0.760D-04 0.462D-04-0.746D-03-0.222D-02 0.278D-02
 Coeff-Com:  0.107D-01 0.658D-02-0.478D-01-0.134D+00 0.246D+00 0.918D+00
 Coeff:      0.108D-06-0.165D-06 0.141D-06-0.533D-06-0.418D-05-0.420D-05
 Coeff:      0.288D-04 0.760D-04 0.462D-04-0.746D-03-0.222D-02 0.278D-02
 Coeff:      0.107D-01 0.658D-02-0.478D-01-0.134D+00 0.246D+00 0.918D+00
 Gap=     0.249 Goal=   None    Shift=    0.000
 RMSDP=1.06D-07 MaxDP=6.61D-06 DE=-5.37D-11 OVMax= 2.64D-06

 Cycle  19  Pass 1  IDiag  1:
 RMSU=  2.08D-08    CP:  9.88D-03  8.59D-01  1.03D+00  6.83D-01  4.49D-01
                    CP:  1.07D+00  1.29D+00  1.74D+00  1.14D+00  1.17D+00
                    CP:  1.59D+00  1.69D+00  1.43D+00  1.26D+00  1.99D+00
                    CP:  1.34D+00  1.87D+00  1.41D+00
 E= -3010.56549118267     Delta-E=       -0.000000000005 Rises=F Damp=F
 DIIS: error= 4.83D-08 at cycle  19 NSaved=  19.
 NSaved=19 IEnMin=19 EnMin= -3010.56549118267     IErMin=19 ErrMin= 4.83D-08
 ErrMax= 4.83D-08  0.00D+00 EMaxC= 1.00D-01 BMatC= 2.59D-13 BMatP= 2.33D-12
 IDIUse=1 WtCom= 1.00D+00 WtEn= 0.00D+00
 Coeff-Com:  0.178D-07-0.463D-07-0.178D-06 0.457D-07-0.175D-05-0.358D-05
 Coeff-Com: -0.290D-05 0.125D-04 0.556D-04 0.317D-04-0.567D-03-0.298D-03
 Coeff-Com:  0.163D-02 0.908D-02 0.587D-02-0.589D-01-0.693D-01 0.122D+00
 Coeff-Com:  0.991D+00
 Coeff:      0.178D-07-0.463D-07-0.178D-06 0.457D-07-0.175D-05-0.358D-05
 Coeff:     -0.290D-05 0.125D-04 0.556D-04 0.317D-04-0.567D-03-0.298D-03
 Coeff:      0.163D-02 0.908D-02 0.587D-02-0.589D-01-0.693D-01 0.122D+00
 Coeff:      0.991D+00
 Gap=     0.249 Goal=   None    Shift=    0.000
 RMSDP=3.14D-08 MaxDP=1.69D-06 DE=-4.55D-12 OVMax= 1.28D-06

 Cycle  20  Pass 1  IDiag  1:
 RMSU=  1.14D-08    CP:  9.88D-03  8.59D-01  1.03D+00  6.83D-01  4.49D-01
                    CP:  1.07D+00  1.29D+00  1.74D+00  1.14D+00  1.17D+00
                    CP:  1.59D+00  1.69D+00  1.43D+00  1.26D+00  1.98D+00
                    CP:  1.33D+00  1.95D+00  1.53D+00  1.38D+00
 E= -3010.56549118270     Delta-E=       -0.000000000027 Rises=F Damp=F
 DIIS: error= 1.49D-08 at cycle  20 NSaved=  20.
 NSaved=20 IEnMin=20 EnMin= -3010.56549118270     IErMin=20 ErrMin= 1.49D-08
 ErrMax= 1.49D-08  0.00D+00 EMaxC= 1.00D-01 BMatC= 8.19D-14 BMatP= 2.59D-13
 IDIUse=1 WtCom= 1.00D+00 WtEn= 0.00D+00
 Coeff-Com:  0.149D-08-0.150D-07-0.982D-07 0.104D-06 0.125D-06-0.983D-07
 Coeff-Com: -0.569D-05-0.119D-04 0.528D-05 0.146D-03 0.192D-03-0.589D-03
 Coeff-Com: -0.144D-02 0.113D-02 0.111D-01 0.564D-02-0.599D-01-0.183D+00
 Coeff-Com:  0.319D+00 0.908D+00
 Coeff:      0.149D-08-0.150D-07-0.982D-07 0.104D-06 0.125D-06-0.983D-07
 Coeff:     -0.569D-05-0.119D-04 0.528D-05 0.146D-03 0.192D-03-0.589D-03
 Coeff:     -0.144D-02 0.113D-02 0.111D-01 0.564D-02-0.599D-01-0.183D+00
 Coeff:      0.319D+00 0.908D+00
 Gap=     0.249 Goal=   None    Shift=    0.000
 RMSDP=2.08D-08 MaxDP=1.10D-06 DE=-2.73D-11 OVMax= 4.97D-07

 Cycle  21  Pass 1  IDiag  1:
 Restarting incremental Fock formation.
 E= -3010.56549118265     Delta-E=        0.000000000056 Rises=F Damp=F
 DIIS: error= 3.75D-09 at cycle  21 NSaved=  20.
 NSaved=20 IEnMin=19 EnMin= -3010.56549118270     IErMin=20 ErrMin= 3.75D-09
 ErrMax= 3.75D-09  0.00D+00 EMaxC= 1.00D-01 BMatC= 5.10D-15 BMatP= 8.19D-14
 IDIUse=1 WtCom= 1.00D+00 WtEn= 0.00D+00
 Coeff-Com: -0.114D-08-0.106D-07 0.139D-07 0.196D-06 0.444D-06-0.723D-06
 Coeff-Com: -0.392D-05-0.374D-05 0.316D-04 0.110D-03-0.787D-04-0.484D-03
 Coeff-Com: -0.113D-02 0.184D-02 0.822D-02-0.574D-03-0.589D-01-0.443D-01
 Coeff-Com:  0.205D+00 0.891D+00
 Coeff:     -0.114D-08-0.106D-07 0.139D-07 0.196D-06 0.444D-06-0.723D-06
 Coeff:     -0.392D-05-0.374D-05 0.316D-04 0.110D-03-0.787D-04-0.484D-03
 Coeff:     -0.113D-02 0.184D-02 0.822D-02-0.574D-03-0.589D-01-0.443D-01
 Coeff:      0.205D+00 0.891D+00
 Gap=     0.249 Goal=   None    Shift=    0.000
 RMSDP=6.60D-09 MaxDP=3.93D-07 DE= 5.64D-11 OVMax= 1.15D-07

 SCF Done:  E(RwB97XD) =  -3010.56549118     A.U. after   21 cycles
            NFock= 21  Conv=0.66D-08     -V/T= 2.0016
 KE= 3.005871308429D+03 PE=-8.635717145909D+03 EE= 1.877211628741D+03
 Leave Link  502 at Wed May  1 14:49:29 2024, MaxMem=  1207959552 cpu:            1234.4 elap:            1234.5
 (Enter /software/gaussian/g16-c01/sse4/g16/l601.exe)
 Copying SCF densities to generalized density rwf, IOpCl= 0 IROHF=0.

 **********************************************************************

            Population analysis using the SCF Density.

 **********************************************************************

 Alpha  occ. eigenvalues -- -483.35539 -62.90602 -56.70233 -56.69751 -56.69744
 Alpha  occ. eigenvalues --  -19.46995 -19.46430 -14.86033 -10.61838 -10.58643
 Alpha  occ. eigenvalues --  -10.58558 -10.57290 -10.56802 -10.51924  -9.06436
 Alpha  occ. eigenvalues --   -6.88940  -6.87342  -6.87322  -2.98885  -2.98458
 Alpha  occ. eigenvalues --   -2.98442  -2.97163  -2.97162  -1.50384  -1.33351
 Alpha  occ. eigenvalues --   -1.24100  -1.16199  -1.12181  -1.07604  -1.01758
 Alpha  occ. eigenvalues --   -0.96736  -0.91821  -0.86142  -0.81861  -0.81351
 Alpha  occ. eigenvalues --   -0.80811  -0.79893  -0.76737  -0.76224  -0.74316
 Alpha  occ. eigenvalues --   -0.69532  -0.67293  -0.64756  -0.62985  -0.61407
 Alpha  occ. eigenvalues --   -0.58034  -0.57663  -0.56831  -0.56077
 Alpha virt. eigenvalues --   -0.31216  -0.22183  -0.21018  -0.19190  -0.16056
 Alpha virt. eigenvalues --   -0.15144  -0.13681  -0.10734  -0.09681  -0.09128
 Alpha virt. eigenvalues --   -0.07232  -0.05804  -0.04979  -0.03687  -0.02546
 Alpha virt. eigenvalues --   -0.01868  -0.01310   0.00127   0.00994   0.01390
 Alpha virt. eigenvalues --    0.01966   0.02434   0.04535   0.05006   0.05409
 Alpha virt. eigenvalues --    0.05500   0.07412   0.08173   0.09299   0.09891
 Alpha virt. eigenvalues --    0.10333   0.11317   0.11526   0.12487   0.13450
 Alpha virt. eigenvalues --    0.13863   0.14037   0.14375   0.14954   0.15905
 Alpha virt. eigenvalues --    0.17309   0.19102   0.19497   0.20207   0.20773
 Alpha virt. eigenvalues --    0.22269   0.22520   0.24124   0.25040   0.25699
 Alpha virt. eigenvalues --    0.25980   0.26864   0.27803   0.28169   0.29326
 Alpha virt. eigenvalues --    0.29873   0.31917   0.32779   0.34433   0.35092
 Alpha virt. eigenvalues --    0.36335   0.37235   0.38707   0.41163   0.41592
 Alpha virt. eigenvalues --    0.42895   0.43545   0.44489   0.45791   0.47223
 Alpha virt. eigenvalues --    0.47625   0.49111   0.50227   0.50914   0.51459
 Alpha virt. eigenvalues --    0.51707   0.52866   0.56401   0.56802   0.58961
 Alpha virt. eigenvalues --    0.60504   0.61142   0.63813   0.64472   0.67245
 Alpha virt. eigenvalues --    0.69389   0.70849   0.72224   0.72689   0.75927
 Alpha virt. eigenvalues --    0.76333   0.79346   0.80346   0.81696   0.84304
 Alpha virt. eigenvalues --    0.85098   0.87718   0.90657   0.91951   0.96695
 Alpha virt. eigenvalues --    0.99307   1.01110   1.02996   1.04791   1.05759
 Alpha virt. eigenvalues --    1.07498   1.09873   1.11676   1.12149   1.14495
 Alpha virt. eigenvalues --    1.22345   1.23857   1.25847   1.32801   1.35498
 Alpha virt. eigenvalues --    1.35856   1.36349   1.43677   1.53519   1.56335
 Alpha virt. eigenvalues --    1.57147   1.57936   1.60080   1.61109   1.65217
 Alpha virt. eigenvalues --    1.68087   1.68344   1.73421   1.74748   1.78460
 Alpha virt. eigenvalues --    1.79843   1.84632   1.87545   1.89431   1.91211
 Alpha virt. eigenvalues --    1.96370   2.01838   2.02542   2.04051   2.06582
 Alpha virt. eigenvalues --    2.07505   2.14052   2.20411   2.22546   2.31184
 Alpha virt. eigenvalues --    2.36202   2.39878   2.40790   2.42896   2.51828
 Alpha virt. eigenvalues --    2.56378   2.62610   2.65466   2.67572   2.71120
 Alpha virt. eigenvalues --    2.72351   2.75474   2.76777   2.80113   2.80702
 Alpha virt. eigenvalues --    2.92255   2.94720   2.99822   3.03064   3.08105
 Alpha virt. eigenvalues --    3.12348   3.15375   3.19326   3.22955   3.24030
 Alpha virt. eigenvalues --    3.26617   3.38421   3.48223   3.50671   3.53308
 Alpha virt. eigenvalues --    3.55939   3.69133   3.73414   3.81574   3.86212
 Alpha virt. eigenvalues --    4.04188   4.04450   4.12346   4.17424   4.38376
 Alpha virt. eigenvalues --    4.43639   4.56392   4.59173   4.92332   4.95240
 Alpha virt. eigenvalues --    5.03630   5.08088   5.62052   6.15035   6.59997
 Alpha virt. eigenvalues --    7.42884   7.44452   7.54443  23.20451  23.60563
 Alpha virt. eigenvalues --   23.66500  23.79335  23.95646  24.00846  35.31917
 Alpha virt. eigenvalues --   47.86794  49.84680  49.93507 289.76162 289.77834
 Alpha virt. eigenvalues --  289.903221020.87279
          Condensed to atoms (all electrons):
               1          2          3          4          5          6
     1  C    8.642922  -1.845687   0.270100  -1.614456  -1.085055   0.297459
     2  C   -1.845687  12.442989  -2.165118  -2.454129   1.415213  -0.007048
     3  C    0.270100  -2.165118  13.436734  -2.664186  -1.667583   0.020317
     4  C   -1.614456  -2.454129  -2.664186  17.486894   0.604276   0.001022
     5  C   -1.085055   1.415213  -1.667583   0.604276   8.146619   0.008936
     6  H    0.297459  -0.007048   0.020317   0.001022   0.008936   0.255307
     7  H    0.037569   0.251955   0.042190  -0.011793  -0.013455  -0.000667
     8  H    0.014756  -0.052552   0.160291   0.082163  -0.033897   0.000003
     9  H    0.073571  -0.033054   0.011287  -0.021553   0.279483  -0.001805
    10  N   -0.084270   0.283603  -0.946251   0.322510   0.059448  -0.000249
    11  O    0.057895  -0.139443  -0.228993  -0.092232  -0.079737  -0.000033
    12  O    0.253093   0.103417  -0.305222  -0.096832  -0.028563  -0.000018
    13  C    1.529835  -2.304727   0.789938  -5.752922  -1.669458  -0.003003
    14  H   -0.025814   0.040666  -0.028187   0.158850   0.004183   0.000005
    15  Br  -0.005968   0.050000  -0.114397  -0.234736  -0.001462  -0.000169
               7          8          9         10         11         12
     1  C    0.037569   0.014756   0.073571  -0.084270   0.057895   0.253093
     2  C    0.251955  -0.052552  -0.033054   0.283603  -0.139443   0.103417
     3  C    0.042190   0.160291   0.011287  -0.946251  -0.228993  -0.305222
     4  C   -0.011793   0.082163  -0.021553   0.322510  -0.092232  -0.096832
     5  C   -0.013455  -0.033897   0.279483   0.059448  -0.079737  -0.028563
     6  H   -0.000667   0.000003  -0.001805  -0.000249  -0.000033  -0.000018
     7  H    0.236485   0.000046   0.000068  -0.017183  -0.000726   0.014955
     8  H    0.000046   0.379705   0.000098  -0.032935   0.029559  -0.001649
     9  H    0.000068   0.000098   0.312446   0.000187   0.000012   0.000002
    10  N   -0.017183  -0.032935   0.000187   7.411675   0.074274   0.242149
    11  O   -0.000726   0.029559   0.000012   0.074274   8.076855   0.000193
    12  O    0.014955  -0.001649   0.000002   0.242149   0.000193   7.629992
    13  C    0.009643   0.167897   0.015772  -0.227784   0.398753   0.011154
    14  H   -0.000031  -0.007346  -0.004984  -0.000324   0.000004  -0.000093
    15  Br   0.000173   0.009986   0.009333   0.025269  -0.003511   0.002393
              13         14         15
     1  C    1.529835  -0.025814  -0.005968
     2  C   -2.304727   0.040666   0.050000
     3  C    0.789938  -0.028187  -0.114397
     4  C   -5.752922   0.158850  -0.234736
     5  C   -1.669458   0.004183  -0.001462
     6  H   -0.003003   0.000005  -0.000169
     7  H    0.009643  -0.000031   0.000173
     8  H    0.167897  -0.007346   0.009986
     9  H    0.015772  -0.004984   0.009333
    10  N   -0.227784  -0.000324   0.025269
    11  O    0.398753   0.000004  -0.003511
    12  O    0.011154  -0.000093   0.002393
    13  C   12.950941   0.173456   0.389705
    14  H    0.173456   0.426169  -0.075280
    15  Br   0.389705  -0.075280  34.939181
 Mulliken charges:
               1
     1  C   -0.515947
     2  C    0.413916
     3  C   -0.610920
     4  C    0.287125
     5  C    0.061053
     6  H    0.429942
     7  H    0.450771
     8  H    0.283874
     9  H    0.359135
    10  N   -0.110118
    11  O   -0.092868
    12  O    0.175029
    13  C   -0.479201
    14  H    0.338725
    15  Br   0.009483
 Sum of Mulliken charges =   1.00000
 Mulliken charges with hydrogens summed into heavy atoms:
               1
     1  C   -0.086005
     2  C    0.864687
     3  C   -0.610920
     4  C    0.570999
     5  C    0.420188
    10  N   -0.110118
    11  O   -0.092868
    12  O    0.175029
    13  C   -0.140476
    15  Br   0.009483
 Electronic spatial extent (au):  <R**2>=           2802.0409
 Charge=              1.0000 electrons
 Dipole moment (field-independent basis, Debye):
    X=              0.1076    Y=              6.6947    Z=              0.8955  Tot=              6.7552
 Quadrupole moment (field-independent basis, Debye-Ang):
   XX=            -69.6891   YY=            -56.2268   ZZ=            -64.8716
   XY=              9.4135   XZ=              0.3107   YZ=             -1.7006
 Traceless Quadrupole moment (field-independent basis, Debye-Ang):
   XX=             -6.0933   YY=              7.3691   ZZ=             -1.2757
   XY=              9.4135   XZ=              0.3107   YZ=             -1.7006
 Octapole moment (field-independent basis, Debye-Ang**2):
  XXX=           -290.0226  YYY=            132.9355  ZZZ=             83.7120  XYY=            -71.4917
  XXY=             69.0678  XXZ=             33.2161  XZZ=            -76.0886  YZZ=             28.2380
  YYZ=             35.8604  XYZ=             -1.7642
 Hexadecapole moment (field-independent basis, Debye-Ang**3):
 XXXX=          -2245.2128 YYYY=           -732.6609 ZZZZ=           -366.0735 XXXY=             65.8184
 XXXZ=            -25.0006 YYYX=            -35.3654 YYYZ=           -188.1348 ZZZX=            -22.7762
 ZZZY=           -155.9749 XXYY=           -458.0259 XXZZ=           -372.9523 YYZZ=           -187.7399
 XXYZ=            -60.8715 YYXZ=             -8.5132 ZZXY=             -7.8775
 N-N= 7.420687175566D+02 E-N=-8.635717145928D+03  KE= 3.005871308429D+03
 No NMR shielding tensors so no spin-rotation constants.
 Leave Link  601 at Wed May  1 14:49:37 2024, MaxMem=  1207959552 cpu:               7.4 elap:               7.4
 (Enter /software/gaussian/g16-c01/sse4/g16/l9999.exe)
 Unable to Open any file for archive entry.
 1\1\GINC-BHX0032\SP\RwB97XD\6-311+G(d)\C6H5Br1N1O2(1+)\BWEIGHT\01-May-
 2024\0\\#P wB97XD/6-311+G* NoSymm #P Field=Y-252\\TitleMe\\1,1\C,0,0.0
 295,1.3397,0.0682\C,0,1.4348,1.2867,0.0064\C,0,2.1118,0.0511,-0.0054\C
 ,0,1.4451,-1.1372,0.0312\C,0,-0.6879,0.1682,0.11\H,0,-0.4713,2.2984,0.
 0781\H,0,2.0273,2.1965,-0.0322\H,0,1.9897,-2.0764,0.0232\H,0,-1.7716,0
 .1804,0.1582\N,0,3.5864,0.051,-0.0675\O,0,4.1471,-1.0597,-0.0881\O,0,4
 .145,1.1639,-0.0901\C,0,-0.0236,-1.1458,0.0835\H,0,-0.4367,-1.8725,0.7
 889\Br,0,-0.5359,-1.8697,-1.7408\\Version=ES64L-G16RevC.01\HF=-3010.56
 54912\RMSD=6.601e-09\Dipole=-1.8641931,3.7819647,1.4985103\Quadrupole=
 -4.5302249,5.478711,-0.9484861,6.9986842,0.2310109,-1.2643834\PG=C01 [
 X(C6H5Br1N1O2)]\\@
 The archive entry for this job was punched.


 Other things may change us, but we start and end with family.
 -- Anthony Brandt
 Job cpu time:       0 days  0 hours 21 minutes 48.4 seconds.
 Elapsed time:       0 days  0 hours 21 minutes 48.5 seconds.
 File lengths (MBytes):  RWF=     40 Int=      0 D2E=      0 Chk=     32 Scr=      1
 Normal termination of Gaussian 16 at Wed May  1 14:49:38 2024.
