 Entering Gaussian System, Link 0=g16
 Initial command:
 /software/gaussian/g16-c01/sse4/g16/l1.exe "/local_scratch/24665265/Gau-22254.inp" -scrdir="/local_scratch/24665265/"
 Entering Link 1 = /software/gaussian/g16-c01/sse4/g16/l1.exe PID=     22294.
  
 Copyright (c) 1988-2019, Gaussian, Inc.  All Rights Reserved.
  
 This is part of the Gaussian(R) 16 program.  It is based on
 the Gaussian(R) 09 system (copyright 2009, Gaussian, Inc.),
 the Gaussian(R) 03 system (copyright 2003, Gaussian, Inc.),
 the Gaussian(R) 98 system (copyright 1998, Gaussian, Inc.),
 the Gaussian(R) 94 system (copyright 1995, Gaussian, Inc.),
 the Gaussian 92(TM) system (copyright 1992, Gaussian, Inc.),
 the Gaussian 90(TM) system (copyright 1990, Gaussian, Inc.),
 the Gaussian 88(TM) system (copyright 1988, Gaussian, Inc.),
 the Gaussian 86(TM) system (copyright 1986, Carnegie Mellon
 University), and the Gaussian 82(TM) system (copyright 1983,
 Carnegie Mellon University). Gaussian is a federally registered
 trademark of Gaussian, Inc.
  
 This software contains proprietary and confidential information,
 including trade secrets, belonging to Gaussian, Inc.
  
 This software is provided under written license and may be
 used, copied, transmitted, or stored only in accord with that
 written license.
  
 The following legend is applicable only to US Government
 contracts under FAR:
  
                    RESTRICTED RIGHTS LEGEND
  
 Use, reproduction and disclosure by the US Government is
 subject to restrictions as set forth in subparagraphs (a)
 and (c) of the Commercial Computer Software - Restricted
 Rights clause in FAR 52.227-19.
  
 Gaussian, Inc.
 340 Quinnipiac St., Bldg. 40, Wallingford CT 06492
  
  
 ---------------------------------------------------------------
 Warning -- This program may not be used in any manner that
 competes with the business of Gaussian, Inc. or will provide
 assistance to any competitor of Gaussian, Inc.  The licensee
 of this program is prohibited from giving any competitor of
 Gaussian, Inc. access to this program.  By using this program,
 the user acknowledges that Gaussian, Inc. is engaged in the
 business of creating and licensing software in the field of
 computational chemistry and represents and warrants to the
 licensee that it is not a competitor of Gaussian, Inc. and that
 it will not use this program in any manner prohibited above.
 ---------------------------------------------------------------
  

 Cite this work as:
 Gaussian 16, Revision C.01,
 M. J. Frisch, G. W. Trucks, H. B. Schlegel, G. E. Scuseria, 
 M. A. Robb, J. R. Cheeseman, G. Scalmani, V. Barone, 
 G. A. Petersson, H. Nakatsuji, X. Li, M. Caricato, A. V. Marenich, 
 J. Bloino, B. G. Janesko, R. Gomperts, B. Mennucci, H. P. Hratchian, 
 J. V. Ortiz, A. F. Izmaylov, J. L. Sonnenberg, D. Williams-Young, 
 F. Ding, F. Lipparini, F. Egidi, J. Goings, B. Peng, A. Petrone, 
 T. Henderson, D. Ranasinghe, V. G. Zakrzewski, J. Gao, N. Rega, 
 G. Zheng, W. Liang, M. Hada, M. Ehara, K. Toyota, R. Fukuda, 
 J. Hasegawa, M. Ishida, T. Nakajima, Y. Honda, O. Kitao, H. Nakai, 
 T. Vreven, K. Throssell, J. A. Montgomery, Jr., J. E. Peralta, 
 F. Ogliaro, M. J. Bearpark, J. J. Heyd, E. N. Brothers, K. N. Kudin, 
 V. N. Staroverov, T. A. Keith, R. Kobayashi, J. Normand, 
 K. Raghavachari, A. P. Rendell, J. C. Burant, S. S. Iyengar, 
 J. Tomasi, M. Cossi, J. M. Millam, M. Klene, C. Adamo, R. Cammi, 
 J. W. Ochterski, R. L. Martin, K. Morokuma, O. Farkas, 
 J. B. Foresman, and D. J. Fox, Gaussian, Inc., Wallingford CT, 2019.
 
 ******************************************
 Gaussian 16:  ES64L-G16RevC.01  3-Jul-2019
                 2-May-2024 
 ******************************************
 %chk=geometry.chk
 %mem=1GB
 %nprocshared=12
 Will use up to   12 processors via shared memory.
 ---------------------------------------
 #P wB97XD/6-311+G* NoSymm #P Field=X+19
 ---------------------------------------
 1/38=1,172=1/1;
 2/12=2,15=1,17=6,18=5,40=1/2;
 3/5=4,6=6,7=11,11=2,14=1,15=19,25=1,30=1,74=-58/1,2,3;
 4//1;
 5/5=2,38=5/2;
 6/7=2,8=2,9=2,10=2,28=1/1;
 99/5=1,9=1/99;
 Leave Link    1 at Thu May  2 13:57:35 2024, MaxMem=   134217728 cpu:               3.4 elap:               3.5
 (Enter /software/gaussian/g16-c01/sse4/g16/l101.exe)
 -------
 TitleMe
 -------
 Symbolic Z-matrix:
 Charge =  1 Multiplicity = 1
 C                     0.5193    1.233    -0.0319 
 C                     1.9445    1.2692   -0.0367 
 C                     2.6204    0.0928   -0.025 
 C                    -0.196     0.0301    0.001 
 H                    -0.0207    2.1742   -0.0434 
 H                     2.4828    2.2089   -0.0361 
 H                    -1.2777    0.0399    0.0117 
 N                     4.0921    0.0959    0.0366 
 O                     4.6393   -1.0217    0.1446 
 O                     4.6649    1.1984   -0.0233 
 C                     0.4943   -1.1671    0.021 
 H                    -0.0325   -2.1149    0.0545 
 C                     1.9629   -1.2165   -0.0211 
 H                     2.4436   -1.9631    0.6151 
 Br                    2.173    -1.9491   -1.9062 
 
 ITRead=  0  0  0  0  0  0  0  0  0  0  0  0  0  0  0
 MicOpt= -1 -1 -1 -1 -1 -1 -1 -1 -1 -1 -1 -1 -1 -1 -1
 NAtoms=     15 NQM=       15 NQMF=       0 NMMI=      0 NMMIF=      0
                NMic=       0 NMicF=      0.
                    Isotopes and Nuclear Properties:
 (Nuclear quadrupole moments (NQMom) in fm**2, nuclear magnetic moments (NMagM)
  in nuclear magnetons)

  Atom         1           2           3           4           5           6           7           8           9          10
 IAtWgt=          12          12          12          12           1           1           1          14          16          16
 AtmWgt=  12.0000000  12.0000000  12.0000000  12.0000000   1.0078250   1.0078250   1.0078250  14.0030740  15.9949146  15.9949146
 NucSpn=           0           0           0           0           1           1           1           2           0           0
 AtZEff=  -0.0000000  -0.0000000  -0.0000000  -0.0000000  -0.0000000  -0.0000000  -0.0000000  -0.0000000  -0.0000000  -0.0000000
 NQMom=    0.0000000   0.0000000   0.0000000   0.0000000   0.0000000   0.0000000   0.0000000   2.0440000   0.0000000   0.0000000
 NMagM=    0.0000000   0.0000000   0.0000000   0.0000000   2.7928460   2.7928460   2.7928460   0.4037610   0.0000000   0.0000000
 AtZNuc=   6.0000000   6.0000000   6.0000000   6.0000000   1.0000000   1.0000000   1.0000000   7.0000000   8.0000000   8.0000000

  Atom        11          12          13          14          15
 IAtWgt=          12           1          12           1          79
 AtmWgt=  12.0000000   1.0078250  12.0000000   1.0078250  78.9183361
 NucSpn=           0           1           0           1           3
 AtZEff=  -0.0000000  -0.0000000  -0.0000000  -0.0000000  -0.0000000
 NQMom=    0.0000000   0.0000000   0.0000000   0.0000000  31.3000000
 NMagM=    0.0000000   2.7928460   0.0000000   2.7928460   2.1063990
 AtZNuc=   6.0000000   1.0000000   6.0000000   1.0000000  35.0000000
 Leave Link  101 at Thu May  2 13:57:37 2024, MaxMem=   134217728 cpu:               1.7 elap:               1.7
 (Enter /software/gaussian/g16-c01/sse4/g16/l202.exe)
                          Input orientation:                          
 ---------------------------------------------------------------------
 Center     Atomic      Atomic             Coordinates (Angstroms)
 Number     Number       Type             X           Y           Z
 ---------------------------------------------------------------------
      1          6           0        0.519300    1.233000   -0.031900
      2          6           0        1.944500    1.269200   -0.036700
      3          6           0        2.620400    0.092800   -0.025000
      4          6           0       -0.196000    0.030100    0.001000
      5          1           0       -0.020700    2.174200   -0.043400
      6          1           0        2.482800    2.208900   -0.036100
      7          1           0       -1.277700    0.039900    0.011700
      8          7           0        4.092100    0.095900    0.036600
      9          8           0        4.639300   -1.021700    0.144600
     10          8           0        4.664900    1.198400   -0.023300
     11          6           0        0.494300   -1.167100    0.021000
     12          1           0       -0.032500   -2.114900    0.054500
     13          6           0        1.962900   -1.216500   -0.021100
     14          1           0        2.443600   -1.963100    0.615100
     15         35           0        2.173000   -1.949100   -1.906200
 ---------------------------------------------------------------------
                    Distance matrix (angstroms):
                    1          2          3          4          5
     1  C    0.000000
     2  C    1.425668   0.000000
     3  C    2.390549   1.356796   0.000000
     4  C    1.399895   2.473566   2.817218   0.000000
     5  H    1.085168   2.163581   3.362733   2.151712   0.000000
     6  H    2.192654   1.082960   2.120598   3.453189   2.503751
     7  H    2.157452   3.449071   3.898632   1.081797   2.477564
     8  N    3.750012   2.448304   1.472992   4.288753   4.608780
     9  O    4.699917   3.541615   2.312322   4.950458   5.653735
    10  O    4.145753   2.721354   2.324292   4.999386   4.786171
    11  C    2.400813   2.835836   2.471794   1.382101   3.381369
    12  H    3.394169   3.920329   3.452266   2.151887   4.290233
    13  C    2.843264   2.485817   1.465124   2.493060   3.928360
    14  H    3.786370   3.334922   2.160489   3.364142   4.860416
    15  Br   4.046416   3.728900   2.812194   3.628609   5.028314
                    6          7          8          9         10
     6  H    0.000000
     7  H    4.341452   0.000000
     8  N    2.657047   5.370150   0.000000
     9  O    3.888434   6.012948   1.249048   0.000000
    10  O    2.404752   6.054572   1.243863   2.226587   0.000000
    11  C    3.918516   2.144043   3.813080   4.149391   4.794941
    12  H    5.003018   2.489080   4.679774   4.798846   5.748876
    13  C    3.464662   3.475788   2.501842   2.688591   3.623886
    14  H    4.222698   4.268978   2.700314   2.434893   3.916224
    15  Br   4.569706   4.420610   3.411663   3.338935   4.434144
                   11         12         13         14         15
    11  C    0.000000
    12  H    1.084880   0.000000
    13  C    1.470034   2.189625   0.000000
    14  H    2.187771   2.543302   1.092353   0.000000
    15  Br   2.672762   2.955683   2.033334   2.535818   0.000000
 Symmetry turned off by external request.
 Stoichiometry    C6H5BrNO2(1+)
 Framework group  C1[X(C6H5BrNO2)]
 Deg. of freedom    39
 Full point group                 C1      NOp   1
 Rotational constants (GHZ):           1.1632986           0.9594224           0.5957624
 Leave Link  202 at Thu May  2 13:57:39 2024, MaxMem=   134217728 cpu:               1.5 elap:               1.5
 (Enter /software/gaussian/g16-c01/sse4/g16/l301.exe)
 Standard basis: 6-311+G(d) (5D, 7F)
 Ernie: Thresh=  0.10000D-02 Tol=  0.10000D-05 Strict=F.
 The following finite field(s) will be applied:
 An electric field of              0.0019  0.0000  0.0000
   261 basis functions,   443 primitive gaussians,   273 cartesian basis functions
    49 alpha electrons       49 beta electrons
       nuclear repulsion energy       772.8945969580 Hartrees.
 IExCor= 4639 DFT=T Ex+Corr=wB97XD ExCW=0 ScaHFX=  1.000000
 ScaDFX=  1.000000  1.000000  1.000000  1.000000 ScalE2=  1.000000  1.000000
 IRadAn=      5 IRanWt=     -1 IRanGd=            0 ICorTp=0 IEmpDi=121
 HFx  wShort=  0.000000 wLong=  0.200000 cFull=  0.222036 cShort=  0.000000 cLong=  0.777964
 DFx  wShort=  0.000000 wLong=  0.200000 cFull=  0.000000 cShort=  0.000000 cLong=  1.000000
 NAtoms=   15 NActive=   15 NUniq=   15 SFac= 1.00D+00 NAtFMM=   60 NAOKFM=F Big=F
 Integral buffers will be    131072 words long.
 Raffenetti 2 integral format.
 Two-electron integral symmetry is turned off.
 R6Disp:  Grimme-D2 Dispersion energy=       -0.0080346408 Hartrees.
 Nuclear repulsion after empirical dispersion term =      772.8865623173 Hartrees.
 Leave Link  301 at Thu May  2 13:57:40 2024, MaxMem=   134217728 cpu:               1.1 elap:               1.1
 (Enter /software/gaussian/g16-c01/sse4/g16/l302.exe)
 NPDir=0 NMtPBC=     1 NCelOv=     1 NCel=       1 NClECP=     1 NCelD=      1
         NCelK=      1 NCelE2=     1 NClLst=     1 CellRange=     0.0.
 One-electron integrals computed using PRISM.
 NBasis=   261 RedAO= T EigKep=  2.52D-06  NBF=   261
 NBsUse=   261 1.00D-06 EigRej= -1.00D+00 NBFU=   261
 Precomputing XC quadrature grid using
 IXCGrd= 4 IRadAn=           5 IRanWt=          -1 IRanGd=           0 AccXCQ= 0.00D+00.
 Generated NRdTot=       0 NPtTot=           0 NUsed=           0 NTot=          32
 NSgBfM=   273   273   273   273   273 MxSgAt=    15 MxSgA2=    15.
 Leave Link  302 at Thu May  2 13:58:01 2024, MaxMem=   134217728 cpu:              21.6 elap:              21.7
 (Enter /software/gaussian/g16-c01/sse4/g16/l303.exe)
 DipDrv:  MaxL=1.
 The nuclear repulsion energy is now       773.7008874075 hartrees.
 Leave Link  303 at Thu May  2 13:58:05 2024, MaxMem=   134217728 cpu:               3.4 elap:               3.4
 (Enter /software/gaussian/g16-c01/sse4/g16/l401.exe)
 ExpMin= 3.50D-02 ExpMax= 4.40D+05 ExpMxC= 1.51D+04 IAcc=3 IRadAn=         5 AccDes= 0.00D+00
 Harris functional with IExCor= 4639 and IRadAn=       5 diagonalized for initial guess.
 HarFok:  IExCor= 4639 AccDes= 0.00D+00 IRadAn=         5 IDoV= 1 UseB2=F ITyADJ=14
 ICtDFT=  3500011 ScaDFX=  1.000000  1.000000  1.000000  1.000000
 FoFCou: FMM=F IPFlag=           0 FMFlag=      100000 FMFlg1=           0
         NFxFlg=           0 DoJE=T BraDBF=F KetDBF=T FulRan=T
         wScrn=  0.000000 ICntrl=       500 IOpCl=  0 I1Cent=   200000004 NGrid=           0
         NMat0=    1 NMatS0=      1 NMatT0=    0 NMatD0=    1 NMtDS0=    0 NMtDT0=    0
 Symmetry not used in FoFCou.
 Harris En= -2970.59723480573    
 JPrj=0 DoOrth=F DoCkMO=F.
 Leave Link  401 at Thu May  2 13:58:37 2024, MaxMem=   134217728 cpu:              31.6 elap:              31.6
 (Enter /software/gaussian/g16-c01/sse4/g16/l502.exe)
 Two-electron integral symmetry not used.
 Closed shell SCF:
 Using DIIS extrapolation, IDIIS=  1040.
 NGot=   134217728 LenX=   134063053 LenY=   133988083
 Requested convergence on RMS density matrix=1.00D-08 within 128 cycles.
 Requested convergence on MAX density matrix=1.00D-06.
 Requested convergence on             energy=1.00D-06.
 No special actions if energy rises.
 Fock matrices will be formed incrementally for  20 cycles.

 Cycle   1  Pass 1  IDiag  1:
 FoFJK:  IHMeth= 1 ICntrl=       0 DoSepK=T KAlg= 0 I1Cent=           0 FoldK=F
 IRaf=         1 NMat=       1 IRICut=       1 DoRegI=T DoRafI=F ISym2E= 0 IDoP0=0 IntGTp=1.
 FoFCou: FMM=F IPFlag=           0 FMFlag=      100000 FMFlg1=           0
         NFxFlg=           0 DoJE=T BraDBF=F KetDBF=F FulRan=T
         wScrn=  0.000000 ICntrl=       500 IOpCl=  0 I1Cent=           0 NGrid=           0
         NMat0=    1 NMatS0=      1 NMatT0=    0 NMatD0=    1 NMtDS0=    0 NMtDT0=    0
 Symmetry not used in FoFCou.
 E= -3009.70503050978    
 DIIS: error= 2.90D-01 at cycle   1 NSaved=   1.
 NSaved= 1 IEnMin= 1 EnMin= -3009.70503050978     IErMin= 1 ErrMin= 2.90D-01
 ErrMax= 2.90D-01  0.00D+00 EMaxC= 1.00D-01 BMatC= 1.19D+01 BMatP= 1.19D+01
 IDIUse=3 WtCom= 0.00D+00 WtEn= 1.00D+00
 Coeff-Com:  0.100D+01
 Coeff-En:   0.100D+01
 Coeff:      0.100D+01
 Gap=     0.311 Goal=   None    Shift=    0.000
 GapD=    0.311 DampG=1.000 DampE=0.250 DampFc=0.2500 IDamp=-1.
 Damping current iteration by 2.50D-01
 RMSDP=4.18D-02 MaxDP=4.09D+00              OVMax= 2.62D-01

 Cycle   2  Pass 1  IDiag  1:
 RMSU=  5.59D-03    CP:  9.17D-01
 E= -3009.99348850905     Delta-E=       -0.288457999265 Rises=F Damp=T
 DIIS: error= 2.19D-01 at cycle   2 NSaved=   2.
 NSaved= 2 IEnMin= 2 EnMin= -3009.99348850905     IErMin= 2 ErrMin= 2.19D-01
 ErrMax= 2.19D-01  0.00D+00 EMaxC= 1.00D-01 BMatC= 5.45D+00 BMatP= 1.19D+01
 IDIUse=3 WtCom= 0.00D+00 WtEn= 1.00D+00
 Coeff-Com: -0.183D+01 0.283D+01
 Coeff-En:   0.000D+00 0.100D+01
 Coeff:      0.000D+00 0.100D+01
 Gap=     0.267 Goal=   None    Shift=    0.000
 RMSDP=3.31D-02 MaxDP=3.37D+00 DE=-2.88D-01 OVMax= 7.11D-02

 Cycle   3  Pass 1  IDiag  1:
 RMSU=  4.88D-03    CP:  6.28D-01  3.00D+00
 E= -3010.37626771900     Delta-E=       -0.382779209953 Rises=F Damp=F
 DIIS: error= 6.59D-02 at cycle   3 NSaved=   3.
 NSaved= 3 IEnMin= 3 EnMin= -3010.37626771900     IErMin= 3 ErrMin= 6.59D-02
 ErrMax= 6.59D-02  0.00D+00 EMaxC= 1.00D-01 BMatC= 7.34D-01 BMatP= 5.45D+00
 IDIUse=3 WtCom= 3.41D-01 WtEn= 6.59D-01
 Coeff-Com:  0.262D+01-0.344D+01 0.182D+01
 Coeff-En:   0.350D-01 0.000D+00 0.965D+00
 Coeff:      0.917D+00-0.117D+01 0.126D+01
 Gap=     0.260 Goal=   None    Shift=    0.000
 RMSDP=1.12D-02 MaxDP=7.25D-01 DE=-3.83D-01 OVMax= 7.13D-02

 Cycle   4  Pass 1  IDiag  1:
 RMSU=  5.45D-03    CP:  6.66D-01  1.73D+00  2.10D+00
 E= -3010.48378823391     Delta-E=       -0.107520514912 Rises=F Damp=F
 DIIS: error= 3.78D-02 at cycle   4 NSaved=   4.
 NSaved= 4 IEnMin= 4 EnMin= -3010.48378823391     IErMin= 4 ErrMin= 3.78D-02
 ErrMax= 3.78D-02  0.00D+00 EMaxC= 1.00D-01 BMatC= 2.23D-01 BMatP= 7.34D-01
 IDIUse=3 WtCom= 6.22D-01 WtEn= 3.78D-01
 Coeff-Com: -0.288D-01 0.521D-01 0.349D+00 0.628D+00
 Coeff-En:   0.000D+00 0.000D+00 0.193D+00 0.807D+00
 Coeff:     -0.179D-01 0.324D-01 0.290D+00 0.696D+00
 Gap=     0.254 Goal=   None    Shift=    0.000
 RMSDP=5.48D-03 MaxDP=6.75D-01 DE=-1.08D-01 OVMax= 3.24D-02

 Cycle   5  Pass 1  IDiag  1:
 RMSU=  1.50D-03    CP:  6.25D-01  2.00D+00  1.97D+00  5.49D-01
 E= -3010.52691705413     Delta-E=       -0.043128820218 Rises=F Damp=F
 DIIS: error= 6.56D-03 at cycle   5 NSaved=   5.
 NSaved= 5 IEnMin= 5 EnMin= -3010.52691705413     IErMin= 5 ErrMin= 6.56D-03
 ErrMax= 6.56D-03  0.00D+00 EMaxC= 1.00D-01 BMatC= 9.03D-03 BMatP= 2.23D-01
 IDIUse=3 WtCom= 9.34D-01 WtEn= 6.56D-02
 Coeff-Com: -0.109D+00 0.150D+00 0.111D+00 0.390D+00 0.458D+00
 Coeff-En:   0.000D+00 0.000D+00 0.000D+00 0.000D+00 0.100D+01
 Coeff:     -0.102D+00 0.141D+00 0.103D+00 0.364D+00 0.494D+00
 Gap=     0.246 Goal=   None    Shift=    0.000
 RMSDP=1.52D-03 MaxDP=1.88D-01 DE=-4.31D-02 OVMax= 2.43D-02

 Cycle   6  Pass 1  IDiag  1:
 RMSU=  5.57D-04    CP:  6.32D-01  1.99D+00  2.04D+00  7.32D-01  6.40D-01
 E= -3010.52955163558     Delta-E=       -0.002634581444 Rises=F Damp=F
 DIIS: error= 2.78D-03 at cycle   6 NSaved=   6.
 NSaved= 6 IEnMin= 6 EnMin= -3010.52955163558     IErMin= 6 ErrMin= 2.78D-03
 ErrMax= 2.78D-03  0.00D+00 EMaxC= 1.00D-01 BMatC= 6.52D-04 BMatP= 9.03D-03
 IDIUse=3 WtCom= 9.72D-01 WtEn= 2.78D-02
 Coeff-Com: -0.968D-01 0.130D+00 0.194D-02 0.166D+00 0.338D+00 0.461D+00
 Coeff-En:   0.000D+00 0.000D+00 0.000D+00 0.000D+00 0.971D-01 0.903D+00
 Coeff:     -0.941D-01 0.127D+00 0.189D-02 0.161D+00 0.331D+00 0.473D+00
 Gap=     0.245 Goal=   None    Shift=    0.000
 RMSDP=4.27D-04 MaxDP=4.03D-02 DE=-2.63D-03 OVMax= 8.39D-03

 Cycle   7  Pass 1  IDiag  1:
 RMSU=  2.09D-04    CP:  6.30D-01  1.98D+00  2.03D+00  6.95D-01  7.52D-01
                    CP:  6.62D-01
 E= -3010.53000812943     Delta-E=       -0.000456493857 Rises=F Damp=F
 DIIS: error= 3.22D-04 at cycle   7 NSaved=   7.
 NSaved= 7 IEnMin= 7 EnMin= -3010.53000812943     IErMin= 7 ErrMin= 3.22D-04
 ErrMax= 3.22D-04  0.00D+00 EMaxC= 1.00D-01 BMatC= 1.47D-05 BMatP= 6.52D-04
 IDIUse=3 WtCom= 9.97D-01 WtEn= 3.22D-03
 Coeff-Com: -0.355D-01 0.474D-01-0.116D-01 0.349D-01 0.848D-01 0.181D+00
 Coeff-Com:  0.699D+00
 Coeff-En:   0.000D+00 0.000D+00 0.000D+00 0.000D+00 0.000D+00 0.000D+00
 Coeff-En:   0.100D+01
 Coeff:     -0.354D-01 0.472D-01-0.116D-01 0.348D-01 0.846D-01 0.181D+00
 Coeff:      0.700D+00
 Gap=     0.246 Goal=   None    Shift=    0.000
 RMSDP=1.28D-04 MaxDP=9.91D-03 DE=-4.56D-04 OVMax= 1.12D-03

 Cycle   8  Pass 1  IDiag  1:
 RMSU=  5.56D-05    CP:  6.30D-01  1.98D+00  2.04D+00  7.05D-01  7.91D-01
                    CP:  6.99D-01  9.06D-01
 E= -3010.53002329001     Delta-E=       -0.000015160574 Rises=F Damp=F
 DIIS: error= 1.03D-04 at cycle   8 NSaved=   8.
 NSaved= 8 IEnMin= 8 EnMin= -3010.53002329001     IErMin= 8 ErrMin= 1.03D-04
 ErrMax= 1.03D-04  0.00D+00 EMaxC= 1.00D-01 BMatC= 2.05D-06 BMatP= 1.47D-05
 IDIUse=3 WtCom= 9.99D-01 WtEn= 1.03D-03
 Coeff-Com:  0.348D-02-0.486D-02-0.343D-02-0.114D-01-0.244D-01-0.281D-01
 Coeff-Com:  0.175D+00 0.893D+00
 Coeff-En:   0.000D+00 0.000D+00 0.000D+00 0.000D+00 0.000D+00 0.000D+00
 Coeff-En:   0.000D+00 0.100D+01
 Coeff:      0.348D-02-0.486D-02-0.342D-02-0.114D-01-0.244D-01-0.281D-01
 Coeff:      0.175D+00 0.893D+00
 Gap=     0.246 Goal=   None    Shift=    0.000
 RMSDP=6.44D-05 MaxDP=5.73D-03 DE=-1.52D-05 OVMax= 7.79D-04

 Cycle   9  Pass 1  IDiag  1:
 RMSU=  2.21D-05    CP:  6.30D-01  1.97D+00  2.04D+00  7.10D-01  8.00D-01
                    CP:  7.01D-01  1.05D+00  1.18D+00
 E= -3010.53002647038     Delta-E=       -0.000003180377 Rises=F Damp=F
 DIIS: error= 2.05D-05 at cycle   9 NSaved=   9.
 NSaved= 9 IEnMin= 9 EnMin= -3010.53002647038     IErMin= 9 ErrMin= 2.05D-05
 ErrMax= 2.05D-05  0.00D+00 EMaxC= 1.00D-01 BMatC= 1.98D-07 BMatP= 2.05D-06
 IDIUse=1 WtCom= 1.00D+00 WtEn= 0.00D+00
 Coeff-Com:  0.593D-02-0.797D-02 0.514D-03-0.818D-02-0.167D-01-0.297D-01
 Coeff-Com: -0.503D-01 0.260D+00 0.847D+00
 Coeff:      0.593D-02-0.797D-02 0.514D-03-0.818D-02-0.167D-01-0.297D-01
 Coeff:     -0.503D-01 0.260D+00 0.847D+00
 Gap=     0.246 Goal=   None    Shift=    0.000
 RMSDP=3.28D-05 MaxDP=3.58D-03 DE=-3.18D-06 OVMax= 4.21D-04

 Cycle  10  Pass 1  IDiag  1:
 RMSU=  7.18D-06    CP:  6.30D-01  1.97D+00  2.04D+00  7.09D-01  8.05D-01
                    CP:  6.89D-01  1.08D+00  1.44D+00  1.02D+00
 E= -3010.53002702378     Delta-E=       -0.000000553401 Rises=F Damp=F
 DIIS: error= 1.24D-05 at cycle  10 NSaved=  10.
 NSaved=10 IEnMin=10 EnMin= -3010.53002702378     IErMin=10 ErrMin= 1.24D-05
 ErrMax= 1.24D-05  0.00D+00 EMaxC= 1.00D-01 BMatC= 4.95D-08 BMatP= 1.98D-07
 IDIUse=1 WtCom= 1.00D+00 WtEn= 0.00D+00
 Coeff-Com:  0.663D-03-0.869D-03 0.357D-03-0.484D-03 0.116D-02 0.170D-02
 Coeff-Com: -0.370D-01-0.642D-01 0.209D+00 0.890D+00
 Coeff:      0.663D-03-0.869D-03 0.357D-03-0.484D-03 0.116D-02 0.170D-02
 Coeff:     -0.370D-01-0.642D-01 0.209D+00 0.890D+00
 Gap=     0.246 Goal=   None    Shift=    0.000
 RMSDP=1.18D-05 MaxDP=1.15D-03 DE=-5.53D-07 OVMax= 2.16D-04

 Cycle  11  Pass 1  IDiag  1:
 RMSU=  6.35D-06    CP:  6.30D-01  1.97D+00  2.04D+00  7.09D-01  8.06D-01
                    CP:  6.85D-01  1.07D+00  1.55D+00  1.12D+00  1.25D+00
 E= -3010.53002714860     Delta-E=       -0.000000124820 Rises=F Damp=F
 DIIS: error= 4.16D-06 at cycle  11 NSaved=  11.
 NSaved=11 IEnMin=11 EnMin= -3010.53002714860     IErMin=11 ErrMin= 4.16D-06
 ErrMax= 4.16D-06  0.00D+00 EMaxC= 1.00D-01 BMatC= 5.42D-09 BMatP= 4.95D-08
 IDIUse=1 WtCom= 1.00D+00 WtEn= 0.00D+00
 Coeff-Com: -0.235D-03 0.315D-03 0.515D-04 0.665D-03 0.168D-02 0.371D-02
 Coeff-Com:  0.107D-01-0.195D-01-0.149D+00-0.148D+00 0.130D+01
 Coeff:     -0.235D-03 0.315D-03 0.515D-04 0.665D-03 0.168D-02 0.371D-02
 Coeff:      0.107D-01-0.195D-01-0.149D+00-0.148D+00 0.130D+01
 Gap=     0.246 Goal=   None    Shift=    0.000
 RMSDP=1.22D-05 MaxDP=1.21D-03 DE=-1.25D-07 OVMax= 1.66D-04

 Cycle  12  Pass 1  IDiag  1:
 RMSU=  1.42D-06    CP:  6.30D-01  1.97D+00  2.04D+00  7.09D-01  8.06D-01
                    CP:  6.78D-01  1.06D+00  1.63D+00  1.13D+00  1.58D+00
                    CP:  1.70D+00
 E= -3010.53002718873     Delta-E=       -0.000000040126 Rises=F Damp=F
 DIIS: error= 2.85D-06 at cycle  12 NSaved=  12.
 NSaved=12 IEnMin=12 EnMin= -3010.53002718873     IErMin=12 ErrMin= 2.85D-06
 ErrMax= 2.85D-06  0.00D+00 EMaxC= 1.00D-01 BMatC= 1.51D-09 BMatP= 5.42D-09
 IDIUse=1 WtCom= 1.00D+00 WtEn= 0.00D+00
 Coeff-Com: -0.168D-03 0.222D-03-0.240D-04 0.339D-03 0.346D-03 0.101D-02
 Coeff-Com:  0.113D-01 0.387D-02-0.101D+00-0.240D+00 0.557D+00 0.767D+00
 Coeff:     -0.168D-03 0.222D-03-0.240D-04 0.339D-03 0.346D-03 0.101D-02
 Coeff:      0.113D-01 0.387D-02-0.101D+00-0.240D+00 0.557D+00 0.767D+00
 Gap=     0.246 Goal=   None    Shift=    0.000
 RMSDP=2.64D-06 MaxDP=2.60D-04 DE=-4.01D-08 OVMax= 6.64D-05

 Cycle  13  Pass 1  IDiag  1:
 RMSU=  7.28D-07    CP:  6.30D-01  1.97D+00  2.04D+00  7.09D-01  8.06D-01
                    CP:  6.77D-01  1.06D+00  1.64D+00  1.13D+00  1.64D+00
                    CP:  1.93D+00  1.25D+00
 E= -3010.53002719557     Delta-E=       -0.000000006838 Rises=F Damp=F
 DIIS: error= 1.20D-06 at cycle  13 NSaved=  13.
 NSaved=13 IEnMin=13 EnMin= -3010.53002719557     IErMin=13 ErrMin= 1.20D-06
 ErrMax= 1.20D-06  0.00D+00 EMaxC= 1.00D-01 BMatC= 2.78D-10 BMatP= 1.51D-09
 IDIUse=1 WtCom= 1.00D+00 WtEn= 0.00D+00
 Coeff-Com:  0.102D-04-0.138D-04-0.176D-04-0.101D-03-0.413D-03-0.876D-03
 Coeff-Com: -0.175D-02 0.349D-02 0.295D-01 0.901D-02-0.246D+00 0.153D+00
 Coeff-Com:  0.105D+01
 Coeff:      0.102D-04-0.138D-04-0.176D-04-0.101D-03-0.413D-03-0.876D-03
 Coeff:     -0.175D-02 0.349D-02 0.295D-01 0.901D-02-0.246D+00 0.153D+00
 Coeff:      0.105D+01
 Gap=     0.246 Goal=   None    Shift=    0.000
 RMSDP=9.14D-07 MaxDP=5.40D-05 DE=-6.84D-09 OVMax= 3.59D-05

 Cycle  14  Pass 1  IDiag  1:
 RMSU=  3.12D-07    CP:  6.30D-01  1.97D+00  2.04D+00  7.09D-01  8.06D-01
                    CP:  6.77D-01  1.06D+00  1.65D+00  1.13D+00  1.65D+00
                    CP:  1.99D+00  1.53D+00  1.56D+00
 E= -3010.53002719705     Delta-E=       -0.000000001484 Rises=F Damp=F
 DIIS: error= 4.08D-07 at cycle  14 NSaved=  14.
 NSaved=14 IEnMin=14 EnMin= -3010.53002719705     IErMin=14 ErrMin= 4.08D-07
 ErrMax= 4.08D-07  0.00D+00 EMaxC= 1.00D-01 BMatC= 4.98D-11 BMatP= 2.78D-10
 IDIUse=1 WtCom= 1.00D+00 WtEn= 0.00D+00
 Coeff-Com:  0.120D-04-0.156D-04-0.784D-05-0.734D-04-0.173D-03-0.404D-03
 Coeff-Com: -0.216D-02 0.391D-03 0.260D-01 0.363D-01-0.183D+00-0.505D-01
 Coeff-Com:  0.389D+00 0.785D+00
 Coeff:      0.120D-04-0.156D-04-0.784D-05-0.734D-04-0.173D-03-0.404D-03
 Coeff:     -0.216D-02 0.391D-03 0.260D-01 0.363D-01-0.183D+00-0.505D-01
 Coeff:      0.389D+00 0.785D+00
 Gap=     0.246 Goal=   None    Shift=    0.000
 RMSDP=4.40D-07 MaxDP=4.61D-05 DE=-1.48D-09 OVMax= 1.29D-05

 Cycle  15  Pass 1  IDiag  1:
 RMSU=  1.17D-07    CP:  6.30D-01  1.97D+00  2.04D+00  7.09D-01  8.06D-01
                    CP:  6.77D-01  1.06D+00  1.65D+00  1.13D+00  1.65D+00
                    CP:  2.01D+00  1.61D+00  1.81D+00  1.33D+00
 E= -3010.53002719723     Delta-E=       -0.000000000177 Rises=F Damp=F
 DIIS: error= 1.70D-07 at cycle  15 NSaved=  15.
 NSaved=15 IEnMin=15 EnMin= -3010.53002719723     IErMin=15 ErrMin= 1.70D-07
 ErrMax= 1.70D-07  0.00D+00 EMaxC= 1.00D-01 BMatC= 9.00D-12 BMatP= 4.98D-11
 IDIUse=1 WtCom= 1.00D+00 WtEn= 0.00D+00
 Coeff-Com:  0.660D-05-0.876D-05 0.261D-05-0.190D-05 0.450D-04 0.935D-04
 Coeff-Com: -0.125D-03-0.545D-03 0.654D-03 0.691D-02 0.498D-02-0.444D-01
 Coeff-Com: -0.138D+00 0.239D+00 0.931D+00
 Coeff:      0.660D-05-0.876D-05 0.261D-05-0.190D-05 0.450D-04 0.935D-04
 Coeff:     -0.125D-03-0.545D-03 0.654D-03 0.691D-02 0.498D-02-0.444D-01
 Coeff:     -0.138D+00 0.239D+00 0.931D+00
 Gap=     0.246 Goal=   None    Shift=    0.000
 RMSDP=1.58D-07 MaxDP=8.93D-06 DE=-1.77D-10 OVMax= 6.17D-06

 Cycle  16  Pass 1  IDiag  1:
 RMSU=  5.67D-08    CP:  6.30D-01  1.97D+00  2.04D+00  7.09D-01  8.06D-01
                    CP:  6.77D-01  1.06D+00  1.65D+00  1.13D+00  1.65D+00
                    CP:  2.01D+00  1.64D+00  1.90D+00  1.56D+00  1.41D+00
 E= -3010.53002719730     Delta-E=       -0.000000000067 Rises=F Damp=F
 DIIS: error= 4.39D-08 at cycle  16 NSaved=  16.
 NSaved=16 IEnMin=16 EnMin= -3010.53002719730     IErMin=16 ErrMin= 4.39D-08
 ErrMax= 4.39D-08  0.00D+00 EMaxC= 1.00D-01 BMatC= 7.14D-13 BMatP= 9.00D-12
 IDIUse=1 WtCom= 1.00D+00 WtEn= 0.00D+00
 Coeff-Com:  0.448D-06-0.615D-06 0.149D-05 0.707D-05 0.259D-04 0.566D-04
 Coeff-Com:  0.174D-03-0.217D-03-0.257D-02-0.197D-02 0.187D-01-0.435D-02
 Coeff-Com: -0.624D-01-0.470D-01 0.142D+00 0.958D+00
 Coeff:      0.448D-06-0.615D-06 0.149D-05 0.707D-05 0.259D-04 0.566D-04
 Coeff:      0.174D-03-0.217D-03-0.257D-02-0.197D-02 0.187D-01-0.435D-02
 Coeff:     -0.624D-01-0.470D-01 0.142D+00 0.958D+00
 Gap=     0.246 Goal=   None    Shift=    0.000
 RMSDP=7.66D-08 MaxDP=7.26D-06 DE=-6.73D-11 OVMax= 1.94D-06

 Cycle  17  Pass 1  IDiag  1:
 RMSU=  1.93D-08    CP:  6.30D-01  1.97D+00  2.04D+00  7.09D-01  8.06D-01
                    CP:  6.77D-01  1.06D+00  1.65D+00  1.13D+00  1.66D+00
                    CP:  2.01D+00  1.64D+00  1.94D+00  1.63D+00  1.67D+00
                    CP:  1.16D+00
 E= -3010.53002719731     Delta-E=       -0.000000000012 Rises=F Damp=F
 DIIS: error= 2.35D-08 at cycle  17 NSaved=  17.
 NSaved=17 IEnMin=17 EnMin= -3010.53002719731     IErMin=17 ErrMin= 2.35D-08
 ErrMax= 2.35D-08  0.00D+00 EMaxC= 1.00D-01 BMatC= 1.78D-13 BMatP= 7.14D-13
 IDIUse=1 WtCom= 1.00D+00 WtEn= 0.00D+00
 Coeff-Com: -0.137D-05 0.183D-05-0.359D-07 0.288D-05 0.315D-05 0.577D-05
 Coeff-Com:  0.594D-04 0.452D-04-0.766D-03-0.125D-02 0.506D-02 0.473D-02
 Coeff-Com:  0.405D-02-0.490D-01-0.932D-01 0.262D+00 0.869D+00
 Coeff:     -0.137D-05 0.183D-05-0.359D-07 0.288D-05 0.315D-05 0.577D-05
 Coeff:      0.594D-04 0.452D-04-0.766D-03-0.125D-02 0.506D-02 0.473D-02
 Coeff:      0.405D-02-0.490D-01-0.932D-01 0.262D+00 0.869D+00
 Gap=     0.246 Goal=   None    Shift=    0.000
 RMSDP=3.02D-08 MaxDP=2.41D-06 DE=-1.23D-11 OVMax= 5.25D-07

 Cycle  18  Pass 1  IDiag  1:
 RMSU=  6.34D-09    CP:  6.30D-01  1.97D+00  2.04D+00  7.09D-01  8.06D-01
                    CP:  6.77D-01  1.06D+00  1.65D+00  1.13D+00  1.66D+00
                    CP:  2.01D+00  1.64D+00  1.94D+00  1.63D+00  1.76D+00
                    CP:  1.40D+00  1.17D+00
 E= -3010.53002719732     Delta-E=       -0.000000000010 Rises=F Damp=F
 DIIS: error= 1.28D-08 at cycle  18 NSaved=  18.
 NSaved=18 IEnMin=18 EnMin= -3010.53002719732     IErMin=18 ErrMin= 1.28D-08
 ErrMax= 1.28D-08  0.00D+00 EMaxC= 1.00D-01 BMatC= 4.27D-14 BMatP= 1.78D-13
 IDIUse=1 WtCom= 1.00D+00 WtEn= 0.00D+00
 Coeff-Com: -0.220D-06 0.295D-06-0.284D-06-0.113D-05-0.649D-05-0.146D-04
 Coeff-Com: -0.281D-04 0.884D-04 0.311D-03-0.117D-03-0.309D-02 0.225D-02
 Coeff-Com:  0.176D-01-0.805D-02-0.660D-01-0.122D+00 0.325D+00 0.854D+00
 Coeff:     -0.220D-06 0.295D-06-0.284D-06-0.113D-05-0.649D-05-0.146D-04
 Coeff:     -0.281D-04 0.884D-04 0.311D-03-0.117D-03-0.309D-02 0.225D-02
 Coeff:      0.176D-01-0.805D-02-0.660D-01-0.122D+00 0.325D+00 0.854D+00
 Gap=     0.246 Goal=   None    Shift=    0.000
 RMSDP=3.13D-08 MaxDP=3.24D-06 DE=-1.00D-11 OVMax= 4.03D-07

 Cycle  19  Pass 1  IDiag  1:
 RMSU=  2.57D-09    CP:  6.30D-01  1.97D+00  2.04D+00  7.09D-01  8.06D-01
                    CP:  6.77D-01  1.06D+00  1.65D+00  1.13D+00  1.66D+00
                    CP:  2.01D+00  1.65D+00  1.94D+00  1.63D+00  1.80D+00
                    CP:  1.48D+00  1.41D+00  1.36D+00
 E= -3010.53002719734     Delta-E=       -0.000000000017 Rises=F Damp=F
 DIIS: error= 7.14D-09 at cycle  19 NSaved=  19.
 NSaved=19 IEnMin=19 EnMin= -3010.53002719734     IErMin=19 ErrMin= 7.14D-09
 ErrMax= 7.14D-09  0.00D+00 EMaxC= 1.00D-01 BMatC= 4.05D-15 BMatP= 4.27D-14
 IDIUse=1 WtCom= 1.00D+00 WtEn= 0.00D+00
 Large coefficients: NSaved= 19 BigCof=    0.00 CofMax=   10.00 Det=-7.66D-15
 Inversion failed.  Reducing to 18 matrices.
 Large coefficients: NSaved= 18 BigCof=    0.00 CofMax=   10.00 Det=-7.86D-15
 Inversion failed.  Reducing to 17 matrices.
 Coeff-Com: -0.386D-07-0.159D-06-0.200D-06-0.783D-06-0.772D-05-0.380D-07
 Coeff-Com:  0.937D-04 0.142D-03-0.592D-03-0.350D-03 0.963D-03 0.435D-02
 Coeff-Com:  0.711D-02-0.399D-01-0.876D-01 0.253D-01 0.109D+01
 Coeff:     -0.386D-07-0.159D-06-0.200D-06-0.783D-06-0.772D-05-0.380D-07
 Coeff:      0.937D-04 0.142D-03-0.592D-03-0.350D-03 0.963D-03 0.435D-02
 Coeff:      0.711D-02-0.399D-01-0.876D-01 0.253D-01 0.109D+01
 Gap=     0.246 Goal=   None    Shift=    0.000
 RMSDP=6.81D-09 MaxDP=6.60D-07 DE=-1.73D-11 OVMax= 1.48D-07

 SCF Done:  E(RwB97XD) =  -3010.53002720     A.U. after   19 cycles
            NFock= 19  Conv=0.68D-08     -V/T= 2.0016
 KE= 3.005854073597D+03 PE=-8.700405468206D+03 EE= 1.910320480005D+03
 Leave Link  502 at Thu May  2 14:18:24 2024, MaxMem=   134217728 cpu:            1183.1 elap:            1187.5
 (Enter /software/gaussian/g16-c01/sse4/g16/l601.exe)
 Copying SCF densities to generalized density rwf, IOpCl= 0 IROHF=0.

 **********************************************************************

            Population analysis using the SCF Density.

 **********************************************************************

 Alpha  occ. eigenvalues -- -483.31680 -62.86703 -56.66397 -56.65827 -56.65816
 Alpha  occ. eigenvalues --  -19.47365 -19.47340 -14.86754 -10.59799 -10.58588
 Alpha  occ. eigenvalues --  -10.57719 -10.57358 -10.54014 -10.53063  -9.02509
 Alpha  occ. eigenvalues --   -6.85190  -6.83319  -6.83288  -2.95094  -2.94601
 Alpha  occ. eigenvalues --   -2.94576  -2.93079  -2.93078  -1.51036  -1.34009
 Alpha  occ. eigenvalues --   -1.22965  -1.13371  -1.13016  -1.05323  -1.00951
 Alpha  occ. eigenvalues --   -0.95836  -0.91134  -0.85748  -0.81761  -0.80910
 Alpha  occ. eigenvalues --   -0.80803  -0.78420  -0.77174  -0.76139  -0.72481
 Alpha  occ. eigenvalues --   -0.68916  -0.68054  -0.63805  -0.60373  -0.58516
 Alpha  occ. eigenvalues --   -0.57832  -0.57092  -0.56752  -0.55202
 Alpha virt. eigenvalues --   -0.30606  -0.21193  -0.16201  -0.13691  -0.08821
 Alpha virt. eigenvalues --   -0.06363  -0.05689  -0.05067  -0.04725  -0.03520
 Alpha virt. eigenvalues --   -0.02792  -0.02089  -0.01792  -0.01120  -0.00053
 Alpha virt. eigenvalues --    0.00385   0.01150   0.01260   0.02152   0.02954
 Alpha virt. eigenvalues --    0.03824   0.04898   0.05256   0.05734   0.06497
 Alpha virt. eigenvalues --    0.06837   0.07105   0.07673   0.08668   0.09112
 Alpha virt. eigenvalues --    0.09639   0.10265   0.11007   0.11154   0.12112
 Alpha virt. eigenvalues --    0.12231   0.12701   0.12806   0.14167   0.15266
 Alpha virt. eigenvalues --    0.16223   0.16546   0.16895   0.18187   0.18592
 Alpha virt. eigenvalues --    0.19511   0.20068   0.20966   0.21225   0.23126
 Alpha virt. eigenvalues --    0.23649   0.25336   0.27134   0.28680   0.31394
 Alpha virt. eigenvalues --    0.31929   0.32301   0.32980   0.33340   0.35554
 Alpha virt. eigenvalues --    0.36758   0.37210   0.39121   0.40244   0.41473
 Alpha virt. eigenvalues --    0.42991   0.43542   0.44916   0.46528   0.46828
 Alpha virt. eigenvalues --    0.47982   0.49658   0.50275   0.51760   0.52925
 Alpha virt. eigenvalues --    0.54654   0.55479   0.57555   0.57758   0.59858
 Alpha virt. eigenvalues --    0.60822   0.61823   0.63963   0.67084   0.67932
 Alpha virt. eigenvalues --    0.71073   0.71201   0.72751   0.73617   0.74228
 Alpha virt. eigenvalues --    0.74418   0.76808   0.78886   0.82735   0.85077
 Alpha virt. eigenvalues --    0.86287   0.86959   0.90791   0.93730   0.97864
 Alpha virt. eigenvalues --    0.99412   1.01807   1.03338   1.05156   1.06334
 Alpha virt. eigenvalues --    1.07904   1.11591   1.12428   1.13084   1.17013
 Alpha virt. eigenvalues --    1.20067   1.21816   1.27590   1.32994   1.35869
 Alpha virt. eigenvalues --    1.36509   1.38500   1.42747   1.54380   1.56169
 Alpha virt. eigenvalues --    1.56593   1.59078   1.60694   1.63422   1.65376
 Alpha virt. eigenvalues --    1.67461   1.71015   1.73093   1.74877   1.79022
 Alpha virt. eigenvalues --    1.83748   1.84870   1.86715   1.94434   1.95724
 Alpha virt. eigenvalues --    1.97193   2.01895   2.02461   2.06723   2.08518
 Alpha virt. eigenvalues --    2.12432   2.14246   2.21904   2.23000   2.27155
 Alpha virt. eigenvalues --    2.33133   2.39278   2.40814   2.43819   2.52909
 Alpha virt. eigenvalues --    2.57683   2.62681   2.65586   2.68331   2.70590
 Alpha virt. eigenvalues --    2.72865   2.75355   2.76821   2.79619   2.81565
 Alpha virt. eigenvalues --    2.92789   2.97461   3.00588   3.05311   3.08543
 Alpha virt. eigenvalues --    3.14476   3.15962   3.17229   3.21523   3.25507
 Alpha virt. eigenvalues --    3.27264   3.37171   3.46354   3.49575   3.53698
 Alpha virt. eigenvalues --    3.56963   3.67804   3.73135   3.83266   3.86951
 Alpha virt. eigenvalues --    4.09552   4.10410   4.18959   4.23098   4.42675
 Alpha virt. eigenvalues --    4.44219   4.54188   4.58969   4.92388   4.95205
 Alpha virt. eigenvalues --    5.04076   5.08547   5.60890   6.13994   6.67574
 Alpha virt. eigenvalues --    7.48431   7.50752   7.60859  23.21809  23.60911
 Alpha virt. eigenvalues --   23.71449  23.77710  23.95410  24.01668  35.30412
 Alpha virt. eigenvalues --   47.93651  49.84102  49.92765 289.81291 289.83631
 Alpha virt. eigenvalues --  289.962511020.94832
          Condensed to atoms (all electrons):
               1          2          3          4          5          6
     1  C    7.668790  -2.414018   0.761115  -0.031434   0.297235   0.057024
     2  C   -2.414018  16.979090  -3.910014   0.444476  -0.017065   0.196194
     3  C    0.761115  -3.910014  18.572911  -1.279476   0.023613   0.116766
     4  C   -0.031434   0.444476  -1.279476   6.359628   0.024079  -0.015991
     5  H    0.297235  -0.017065   0.023613   0.024079   0.326840  -0.001658
     6  H    0.057024   0.196194   0.116766  -0.015991  -0.001658   0.314433
     7  H    0.025921  -0.025239   0.020224   0.305867  -0.002655  -0.000002
     8  N   -0.086289  -0.029921  -1.720001   0.016475  -0.000441  -0.030005
     9  O   -0.016000   0.268413  -0.076918  -0.014935  -0.000031  -0.002431
    10  O    0.260192  -0.193969  -0.245113  -0.022154  -0.000002   0.020541
    11  C    0.703929  -0.642373   2.241138  -0.248286  -0.024426   0.009047
    12  H   -0.011206   0.018468   0.006396   0.019738   0.000021  -0.000017
    13  C   -1.108647  -4.669947  -8.231989   0.770599   0.024302  -0.011250
    14  H   -0.003279   0.015752   0.040411   0.003110  -0.000031   0.000049
    15  Br   0.008279  -0.204257  -0.233901   0.001284  -0.000024  -0.000585
               7          8          9         10         11         12
     1  C    0.025921  -0.086289  -0.016000   0.260192   0.703929  -0.011206
     2  C   -0.025239  -0.029921   0.268413  -0.193969  -0.642373   0.018468
     3  C    0.020224  -1.720001  -0.076918  -0.245113   2.241138   0.006396
     4  C    0.305867   0.016475  -0.014935  -0.022154  -0.248286   0.019738
     5  H   -0.002655  -0.000441  -0.000031  -0.000002  -0.024426   0.000021
     6  H   -0.000002  -0.030005  -0.002431   0.020541   0.009047  -0.000017
     7  H    0.329861   0.000022   0.000002   0.000001   0.029495  -0.002241
     8  N    0.000022   7.596382   0.072837   0.209997  -0.283073   0.000403
     9  O    0.000002   0.072837   7.891110   0.000978   0.250089   0.000111
    10  O    0.000001   0.209997   0.000978   7.819300   0.005835  -0.000022
    11  C    0.029495  -0.283073   0.250089   0.005835   7.760488   0.315022
    12  H   -0.002241   0.000403   0.000111  -0.000022   0.315022   0.316896
    13  C   -0.020452   1.359543  -0.409240   0.081066  -3.984192  -0.020157
    14  H   -0.000029  -0.031678   0.012268  -0.001731   0.007607  -0.004563
    15  Br  -0.000429   0.165219  -0.057239   0.004401   0.054751  -0.000219
              13         14         15
     1  C   -1.108647  -0.003279   0.008279
     2  C   -4.669947   0.015752  -0.204257
     3  C   -8.231989   0.040411  -0.233901
     4  C    0.770599   0.003110   0.001284
     5  H    0.024302  -0.000031  -0.000024
     6  H   -0.011250   0.000049  -0.000585
     7  H   -0.020452  -0.000029  -0.000429
     8  N    1.359543  -0.031678   0.165219
     9  O   -0.409240   0.012268  -0.057239
    10  O    0.081066  -0.001731   0.004401
    11  C   -3.984192   0.007607   0.054751
    12  H   -0.020157  -0.004563  -0.000219
    13  C   21.882035   0.267820   0.419534
    14  H    0.267820   0.327100  -0.041674
    15  Br   0.419534  -0.041674  34.705662
 Mulliken charges:
               1
     1  C   -0.111611
     2  C    0.184412
     3  C   -0.085162
     4  C   -0.332979
     5  H    0.350244
     6  H    0.347884
     7  H    0.339654
     8  N   -0.239469
     9  O    0.080986
    10  O    0.060681
    11  C   -0.195051
    12  H    0.361370
    13  C   -0.349025
    14  H    0.408868
    15  Br   0.179197
 Sum of Mulliken charges =   1.00000
 Mulliken charges with hydrogens summed into heavy atoms:
               1
     1  C    0.238633
     2  C    0.532296
     3  C   -0.085162
     4  C    0.006675
     8  N   -0.239469
     9  O    0.080986
    10  O    0.060681
    11  C    0.166319
    13  C    0.059843
    15  Br   0.179197
 Electronic spatial extent (au):  <R**2>=           3947.7660
 Charge=              1.0000 electrons
 Dipole moment (field-independent basis, Debye):
    X=              2.2422    Y=             -0.8774    Z=             -0.7237  Tot=              2.5142
 Quadrupole moment (field-independent basis, Debye-Ang):
   XX=            -69.9653   YY=            -51.1763   ZZ=            -62.2225
   XY=             -2.8361   XZ=             -2.4106   YZ=              2.3937
 Traceless Quadrupole moment (field-independent basis, Debye-Ang):
   XX=             -8.8440   YY=              9.9451   ZZ=             -1.1011
   XY=             -2.8361   XZ=             -2.4106   YZ=              2.3937
 Octapole moment (field-independent basis, Debye-Ang**2):
  XXX=           -523.9859  YYY=             92.2682  ZZZ=             83.0644  XYY=           -137.7747
  XXY=             24.7411  XXZ=             25.9471  XZZ=           -133.1779  YZZ=             17.2729
  YYZ=             25.7954  XYZ=              7.6702
 Hexadecapole moment (field-independent basis, Debye-Ang**3):
 XXXX=          -3503.3039 YYYY=           -702.1085 ZZZZ=           -395.6192 XXXY=            179.8605
 XXXZ=            185.0017 YYYX=            186.0423 YYYZ=           -172.3273 ZZZX=            168.3724
 ZZZY=           -144.6870 XXYY=           -628.9379 XXZZ=           -528.6092 YYZZ=           -171.6976
 XXYZ=            -42.2036 YYXZ=             50.1250 ZZXY=             29.6367
 N-N= 7.737008874075D+02 E-N=-8.700405467796D+03  KE= 3.005854073597D+03
 No NMR shielding tensors so no spin-rotation constants.
 Leave Link  601 at Thu May  2 14:18:32 2024, MaxMem=   134217728 cpu:               7.6 elap:               7.6
 (Enter /software/gaussian/g16-c01/sse4/g16/l9999.exe)
 Unable to Open any file for archive entry.
 1\1\GINC-BHX0006\SP\RwB97XD\6-311+G(d)\C6H5Br1N1O2(1+)\BWEIGHT\02-May-
 2024\0\\#P wB97XD/6-311+G* NoSymm #P Field=X+19\\TitleMe\\1,1\C,0,0.51
 93,1.233,-0.0319\C,0,1.9445,1.2692,-0.0367\C,0,2.6204,0.0928,-0.025\C,
 0,-0.196,0.0301,0.001\H,0,-0.0207,2.1742,-0.0434\H,0,2.4828,2.2089,-0.
 0361\H,0,-1.2777,0.0399,0.0117\N,0,4.0921,0.0959,0.0366\O,0,4.6393,-1.
 0217,0.1446\O,0,4.6649,1.1984,-0.0233\C,0,0.4943,-1.1671,0.021\H,0,-0.
 0325,-2.1149,0.0545\C,0,1.9629,-1.2165,-0.0211\H,0,2.4436,-1.9631,0.61
 51\Br,0,2.173,-1.9491,-1.9062\\Version=ES64L-G16RevC.01\HF=-3010.53002
 72\RMSD=6.809e-09\Dipole=-3.4470619,0.8829343,0.9644792\Quadrupole=-6.
 575263,7.3939013,-0.8186383,-2.1085943,-1.7922498,1.779627\PG=C01 [X(C
 6H5Br1N1O2)]\\@
 The archive entry for this job was punched.


 SCIENCE AT ITS BEST PROVIDES US WITH BETTER QUESTIONS, 
 NOT ABSOLUTE ANSWERS

                                    -- NORMAN COUSINS, 1976
 Job cpu time:       0 days  0 hours 20 minutes 55.8 seconds.
 Elapsed time:       0 days  0 hours 21 minutes  0.3 seconds.
 File lengths (MBytes):  RWF=     40 Int=      0 D2E=      0 Chk=     32 Scr=      1
 Normal termination of Gaussian 16 at Thu May  2 14:18:33 2024.
