 Entering Gaussian System, Link 0=g16
 Initial command:
 /software/gaussian/g16-c01/sse4/g16/l1.exe "/local_scratch/24665384/Gau-11226.inp" -scrdir="/local_scratch/24665384/"
 Entering Link 1 = /software/gaussian/g16-c01/sse4/g16/l1.exe PID=     11230.
  
 Copyright (c) 1988-2019, Gaussian, Inc.  All Rights Reserved.
  
 This is part of the Gaussian(R) 16 program.  It is based on
 the Gaussian(R) 09 system (copyright 2009, Gaussian, Inc.),
 the Gaussian(R) 03 system (copyright 2003, Gaussian, Inc.),
 the Gaussian(R) 98 system (copyright 1998, Gaussian, Inc.),
 the Gaussian(R) 94 system (copyright 1995, Gaussian, Inc.),
 the Gaussian 92(TM) system (copyright 1992, Gaussian, Inc.),
 the Gaussian 90(TM) system (copyright 1990, Gaussian, Inc.),
 the Gaussian 88(TM) system (copyright 1988, Gaussian, Inc.),
 the Gaussian 86(TM) system (copyright 1986, Carnegie Mellon
 University), and the Gaussian 82(TM) system (copyright 1983,
 Carnegie Mellon University). Gaussian is a federally registered
 trademark of Gaussian, Inc.
  
 This software contains proprietary and confidential information,
 including trade secrets, belonging to Gaussian, Inc.
  
 This software is provided under written license and may be
 used, copied, transmitted, or stored only in accord with that
 written license.
  
 The following legend is applicable only to US Government
 contracts under FAR:
  
                    RESTRICTED RIGHTS LEGEND
  
 Use, reproduction and disclosure by the US Government is
 subject to restrictions as set forth in subparagraphs (a)
 and (c) of the Commercial Computer Software - Restricted
 Rights clause in FAR 52.227-19.
  
 Gaussian, Inc.
 340 Quinnipiac St., Bldg. 40, Wallingford CT 06492
  
  
 ---------------------------------------------------------------
 Warning -- This program may not be used in any manner that
 competes with the business of Gaussian, Inc. or will provide
 assistance to any competitor of Gaussian, Inc.  The licensee
 of this program is prohibited from giving any competitor of
 Gaussian, Inc. access to this program.  By using this program,
 the user acknowledges that Gaussian, Inc. is engaged in the
 business of creating and licensing software in the field of
 computational chemistry and represents and warrants to the
 licensee that it is not a competitor of Gaussian, Inc. and that
 it will not use this program in any manner prohibited above.
 ---------------------------------------------------------------
  

 Cite this work as:
 Gaussian 16, Revision C.01,
 M. J. Frisch, G. W. Trucks, H. B. Schlegel, G. E. Scuseria, 
 M. A. Robb, J. R. Cheeseman, G. Scalmani, V. Barone, 
 G. A. Petersson, H. Nakatsuji, X. Li, M. Caricato, A. V. Marenich, 
 J. Bloino, B. G. Janesko, R. Gomperts, B. Mennucci, H. P. Hratchian, 
 J. V. Ortiz, A. F. Izmaylov, J. L. Sonnenberg, D. Williams-Young, 
 F. Ding, F. Lipparini, F. Egidi, J. Goings, B. Peng, A. Petrone, 
 T. Henderson, D. Ranasinghe, V. G. Zakrzewski, J. Gao, N. Rega, 
 G. Zheng, W. Liang, M. Hada, M. Ehara, K. Toyota, R. Fukuda, 
 J. Hasegawa, M. Ishida, T. Nakajima, Y. Honda, O. Kitao, H. Nakai, 
 T. Vreven, K. Throssell, J. A. Montgomery, Jr., J. E. Peralta, 
 F. Ogliaro, M. J. Bearpark, J. J. Heyd, E. N. Brothers, K. N. Kudin, 
 V. N. Staroverov, T. A. Keith, R. Kobayashi, J. Normand, 
 K. Raghavachari, A. P. Rendell, J. C. Burant, S. S. Iyengar, 
 J. Tomasi, M. Cossi, J. M. Millam, M. Klene, C. Adamo, R. Cammi, 
 J. W. Ochterski, R. L. Martin, K. Morokuma, O. Farkas, 
 J. B. Foresman, and D. J. Fox, Gaussian, Inc., Wallingford CT, 2019.
 
 ******************************************
 Gaussian 16:  ES64L-G16RevC.01  3-Jul-2019
                 2-May-2024 
 ******************************************
 %chk=geometry.chk
 %mem=1GB
 %nprocshared=12
 Will use up to   12 processors via shared memory.
 --------------------------------------
 #P wB97XD/6-311+G* NoSymm #P Field=Z+9
 --------------------------------------
 1/38=1,172=1/1;
 2/12=2,15=1,17=6,18=5,40=1/2;
 3/5=4,6=6,7=11,11=2,14=3,15=9,25=1,30=1,74=-58/1,2,3;
 4//1;
 5/5=2,38=5/2;
 6/7=2,8=2,9=2,10=2,28=1/1;
 99/5=1,9=1/99;
 Leave Link    1 at Thu May  2 13:58:21 2024, MaxMem=   134217728 cpu:               1.9 elap:               2.0
 (Enter /software/gaussian/g16-c01/sse4/g16/l101.exe)
 -------
 TitleMe
 -------
 Symbolic Z-matrix:
 Charge =  1 Multiplicity = 1
 C                     0.5193    1.233    -0.0319 
 C                     1.9445    1.2692   -0.0367 
 C                     2.6204    0.0928   -0.025 
 C                    -0.196     0.0301    0.001 
 H                    -0.0207    2.1742   -0.0434 
 H                     2.4828    2.2089   -0.0361 
 H                    -1.2777    0.0399    0.0117 
 N                     4.0921    0.0959    0.0366 
 O                     4.6393   -1.0217    0.1446 
 O                     4.6649    1.1984   -0.0233 
 C                     0.4943   -1.1671    0.021 
 H                    -0.0325   -2.1149    0.0545 
 C                     1.9629   -1.2165   -0.0211 
 H                     2.4436   -1.9631    0.6151 
 Br                    2.173    -1.9491   -1.9062 
 
 ITRead=  0  0  0  0  0  0  0  0  0  0  0  0  0  0  0
 MicOpt= -1 -1 -1 -1 -1 -1 -1 -1 -1 -1 -1 -1 -1 -1 -1
 NAtoms=     15 NQM=       15 NQMF=       0 NMMI=      0 NMMIF=      0
                NMic=       0 NMicF=      0.
                    Isotopes and Nuclear Properties:
 (Nuclear quadrupole moments (NQMom) in fm**2, nuclear magnetic moments (NMagM)
  in nuclear magnetons)

  Atom         1           2           3           4           5           6           7           8           9          10
 IAtWgt=          12          12          12          12           1           1           1          14          16          16
 AtmWgt=  12.0000000  12.0000000  12.0000000  12.0000000   1.0078250   1.0078250   1.0078250  14.0030740  15.9949146  15.9949146
 NucSpn=           0           0           0           0           1           1           1           2           0           0
 AtZEff=  -0.0000000  -0.0000000  -0.0000000  -0.0000000  -0.0000000  -0.0000000  -0.0000000  -0.0000000  -0.0000000  -0.0000000
 NQMom=    0.0000000   0.0000000   0.0000000   0.0000000   0.0000000   0.0000000   0.0000000   2.0440000   0.0000000   0.0000000
 NMagM=    0.0000000   0.0000000   0.0000000   0.0000000   2.7928460   2.7928460   2.7928460   0.4037610   0.0000000   0.0000000
 AtZNuc=   6.0000000   6.0000000   6.0000000   6.0000000   1.0000000   1.0000000   1.0000000   7.0000000   8.0000000   8.0000000

  Atom        11          12          13          14          15
 IAtWgt=          12           1          12           1          79
 AtmWgt=  12.0000000   1.0078250  12.0000000   1.0078250  78.9183361
 NucSpn=           0           1           0           1           3
 AtZEff=  -0.0000000  -0.0000000  -0.0000000  -0.0000000  -0.0000000
 NQMom=    0.0000000   0.0000000   0.0000000   0.0000000  31.3000000
 NMagM=    0.0000000   2.7928460   0.0000000   2.7928460   2.1063990
 AtZNuc=   6.0000000   1.0000000   6.0000000   1.0000000  35.0000000
 Leave Link  101 at Thu May  2 13:58:23 2024, MaxMem=   134217728 cpu:               1.6 elap:               1.6
 (Enter /software/gaussian/g16-c01/sse4/g16/l202.exe)
                          Input orientation:                          
 ---------------------------------------------------------------------
 Center     Atomic      Atomic             Coordinates (Angstroms)
 Number     Number       Type             X           Y           Z
 ---------------------------------------------------------------------
      1          6           0        0.519300    1.233000   -0.031900
      2          6           0        1.944500    1.269200   -0.036700
      3          6           0        2.620400    0.092800   -0.025000
      4          6           0       -0.196000    0.030100    0.001000
      5          1           0       -0.020700    2.174200   -0.043400
      6          1           0        2.482800    2.208900   -0.036100
      7          1           0       -1.277700    0.039900    0.011700
      8          7           0        4.092100    0.095900    0.036600
      9          8           0        4.639300   -1.021700    0.144600
     10          8           0        4.664900    1.198400   -0.023300
     11          6           0        0.494300   -1.167100    0.021000
     12          1           0       -0.032500   -2.114900    0.054500
     13          6           0        1.962900   -1.216500   -0.021100
     14          1           0        2.443600   -1.963100    0.615100
     15         35           0        2.173000   -1.949100   -1.906200
 ---------------------------------------------------------------------
                    Distance matrix (angstroms):
                    1          2          3          4          5
     1  C    0.000000
     2  C    1.425668   0.000000
     3  C    2.390549   1.356796   0.000000
     4  C    1.399895   2.473566   2.817218   0.000000
     5  H    1.085168   2.163581   3.362733   2.151712   0.000000
     6  H    2.192654   1.082960   2.120598   3.453189   2.503751
     7  H    2.157452   3.449071   3.898632   1.081797   2.477564
     8  N    3.750012   2.448304   1.472992   4.288753   4.608780
     9  O    4.699917   3.541615   2.312322   4.950458   5.653735
    10  O    4.145753   2.721354   2.324292   4.999386   4.786171
    11  C    2.400813   2.835836   2.471794   1.382101   3.381369
    12  H    3.394169   3.920329   3.452266   2.151887   4.290233
    13  C    2.843264   2.485817   1.465124   2.493060   3.928360
    14  H    3.786370   3.334922   2.160489   3.364142   4.860416
    15  Br   4.046416   3.728900   2.812194   3.628609   5.028314
                    6          7          8          9         10
     6  H    0.000000
     7  H    4.341452   0.000000
     8  N    2.657047   5.370150   0.000000
     9  O    3.888434   6.012948   1.249048   0.000000
    10  O    2.404752   6.054572   1.243863   2.226587   0.000000
    11  C    3.918516   2.144043   3.813080   4.149391   4.794941
    12  H    5.003018   2.489080   4.679774   4.798846   5.748876
    13  C    3.464662   3.475788   2.501842   2.688591   3.623886
    14  H    4.222698   4.268978   2.700314   2.434893   3.916224
    15  Br   4.569706   4.420610   3.411663   3.338935   4.434144
                   11         12         13         14         15
    11  C    0.000000
    12  H    1.084880   0.000000
    13  C    1.470034   2.189625   0.000000
    14  H    2.187771   2.543302   1.092353   0.000000
    15  Br   2.672762   2.955683   2.033334   2.535818   0.000000
 Symmetry turned off by external request.
 Stoichiometry    C6H5BrNO2(1+)
 Framework group  C1[X(C6H5BrNO2)]
 Deg. of freedom    39
 Full point group                 C1      NOp   1
 Rotational constants (GHZ):           1.1632986           0.9594224           0.5957624
 Leave Link  202 at Thu May  2 13:58:24 2024, MaxMem=   134217728 cpu:               1.2 elap:               1.1
 (Enter /software/gaussian/g16-c01/sse4/g16/l301.exe)
 Standard basis: 6-311+G(d) (5D, 7F)
 Ernie: Thresh=  0.10000D-02 Tol=  0.10000D-05 Strict=F.
 The following finite field(s) will be applied:
 An electric field of              0.0000  0.0000  0.0009
   261 basis functions,   443 primitive gaussians,   273 cartesian basis functions
    49 alpha electrons       49 beta electrons
       nuclear repulsion energy       772.8945969580 Hartrees.
 IExCor= 4639 DFT=T Ex+Corr=wB97XD ExCW=0 ScaHFX=  1.000000
 ScaDFX=  1.000000  1.000000  1.000000  1.000000 ScalE2=  1.000000  1.000000
 IRadAn=      5 IRanWt=     -1 IRanGd=            0 ICorTp=0 IEmpDi=121
 HFx  wShort=  0.000000 wLong=  0.200000 cFull=  0.222036 cShort=  0.000000 cLong=  0.777964
 DFx  wShort=  0.000000 wLong=  0.200000 cFull=  0.000000 cShort=  0.000000 cLong=  1.000000
 NAtoms=   15 NActive=   15 NUniq=   15 SFac= 1.00D+00 NAtFMM=   60 NAOKFM=F Big=F
 Integral buffers will be    131072 words long.
 Raffenetti 2 integral format.
 Two-electron integral symmetry is turned off.
 R6Disp:  Grimme-D2 Dispersion energy=       -0.0080346408 Hartrees.
 Nuclear repulsion after empirical dispersion term =      772.8865623173 Hartrees.
 Leave Link  301 at Thu May  2 13:58:25 2024, MaxMem=   134217728 cpu:               1.0 elap:               1.0
 (Enter /software/gaussian/g16-c01/sse4/g16/l302.exe)
 NPDir=0 NMtPBC=     1 NCelOv=     1 NCel=       1 NClECP=     1 NCelD=      1
         NCelK=      1 NCelE2=     1 NClLst=     1 CellRange=     0.0.
 One-electron integrals computed using PRISM.
 NBasis=   261 RedAO= T EigKep=  2.52D-06  NBF=   261
 NBsUse=   261 1.00D-06 EigRej= -1.00D+00 NBFU=   261
 Precomputing XC quadrature grid using
 IXCGrd= 4 IRadAn=           5 IRanWt=          -1 IRanGd=           0 AccXCQ= 0.00D+00.
 Generated NRdTot=       0 NPtTot=           0 NUsed=           0 NTot=          32
 NSgBfM=   273   273   273   273   273 MxSgAt=    15 MxSgA2=    15.
 Leave Link  302 at Thu May  2 13:58:47 2024, MaxMem=   134217728 cpu:              21.6 elap:              21.6
 (Enter /software/gaussian/g16-c01/sse4/g16/l303.exe)
 DipDrv:  MaxL=1.
 The nuclear repulsion energy is now       772.7752568438 hartrees.
 Leave Link  303 at Thu May  2 13:58:50 2024, MaxMem=   134217728 cpu:               3.4 elap:               3.4
 (Enter /software/gaussian/g16-c01/sse4/g16/l401.exe)
 ExpMin= 3.50D-02 ExpMax= 4.40D+05 ExpMxC= 1.51D+04 IAcc=3 IRadAn=         5 AccDes= 0.00D+00
 Harris functional with IExCor= 4639 and IRadAn=       5 diagonalized for initial guess.
 HarFok:  IExCor= 4639 AccDes= 0.00D+00 IRadAn=         5 IDoV= 1 UseB2=F ITyADJ=14
 ICtDFT=  3500011 ScaDFX=  1.000000  1.000000  1.000000  1.000000
 FoFCou: FMM=F IPFlag=           0 FMFlag=      100000 FMFlg1=           0
         NFxFlg=           0 DoJE=T BraDBF=F KetDBF=T FulRan=T
         wScrn=  0.000000 ICntrl=       500 IOpCl=  0 I1Cent=   200000004 NGrid=           0
         NMat0=    1 NMatS0=      1 NMatT0=    0 NMatD0=    1 NMtDS0=    0 NMtDT0=    0
 Symmetry not used in FoFCou.
 Harris En= -2970.59979707640    
 JPrj=0 DoOrth=F DoCkMO=F.
 Leave Link  401 at Thu May  2 13:59:22 2024, MaxMem=   134217728 cpu:              31.4 elap:              31.4
 (Enter /software/gaussian/g16-c01/sse4/g16/l502.exe)
 Two-electron integral symmetry not used.
 Closed shell SCF:
 Using DIIS extrapolation, IDIIS=  1040.
 NGot=   134217728 LenX=   134063053 LenY=   133988083
 Requested convergence on RMS density matrix=1.00D-08 within 128 cycles.
 Requested convergence on MAX density matrix=1.00D-06.
 Requested convergence on             energy=1.00D-06.
 No special actions if energy rises.
 Fock matrices will be formed incrementally for  20 cycles.

 Cycle   1  Pass 1  IDiag  1:
 FoFJK:  IHMeth= 1 ICntrl=       0 DoSepK=T KAlg= 0 I1Cent=           0 FoldK=F
 IRaf=         1 NMat=       1 IRICut=       1 DoRegI=T DoRafI=F ISym2E= 0 IDoP0=0 IntGTp=1.
 FoFCou: FMM=F IPFlag=           0 FMFlag=      100000 FMFlg1=           0
         NFxFlg=           0 DoJE=T BraDBF=F KetDBF=F FulRan=T
         wScrn=  0.000000 ICntrl=       500 IOpCl=  0 I1Cent=           0 NGrid=           0
         NMat0=    1 NMatS0=      1 NMatT0=    0 NMatD0=    1 NMtDS0=    0 NMtDT0=    0
 Symmetry not used in FoFCou.
 E= -3009.70007110968    
 DIIS: error= 2.90D-01 at cycle   1 NSaved=   1.
 NSaved= 1 IEnMin= 1 EnMin= -3009.70007110968     IErMin= 1 ErrMin= 2.90D-01
 ErrMax= 2.90D-01  0.00D+00 EMaxC= 1.00D-01 BMatC= 1.19D+01 BMatP= 1.19D+01
 IDIUse=3 WtCom= 0.00D+00 WtEn= 1.00D+00
 Coeff-Com:  0.100D+01
 Coeff-En:   0.100D+01
 Coeff:      0.100D+01
 Gap=     0.315 Goal=   None    Shift=    0.000
 GapD=    0.315 DampG=1.000 DampE=0.250 DampFc=0.2500 IDamp=-1.
 Damping current iteration by 2.50D-01
 RMSDP=4.33D-02 MaxDP=3.91D+00              OVMax= 2.61D-01

 Cycle   2  Pass 1  IDiag  1:
 RMSU=  5.40D-03    CP:  9.15D-01
 E= -3009.99133172660     Delta-E=       -0.291260616927 Rises=F Damp=T
 DIIS: error= 2.19D-01 at cycle   2 NSaved=   2.
 NSaved= 2 IEnMin= 2 EnMin= -3009.99133172660     IErMin= 2 ErrMin= 2.19D-01
 ErrMax= 2.19D-01  0.00D+00 EMaxC= 1.00D-01 BMatC= 5.46D+00 BMatP= 1.19D+01
 IDIUse=3 WtCom= 0.00D+00 WtEn= 1.00D+00
 Coeff-Com: -0.183D+01 0.283D+01
 Coeff-En:   0.000D+00 0.100D+01
 Coeff:      0.000D+00 0.100D+01
 Gap=     0.269 Goal=   None    Shift=    0.000
 RMSDP=3.43D-02 MaxDP=3.32D+00 DE=-2.91D-01 OVMax= 7.18D-02

 Cycle   3  Pass 1  IDiag  1:
 RMSU=  4.98D-03    CP:  6.25D-01  3.00D+00
 E= -3010.37611793484     Delta-E=       -0.384786208239 Rises=F Damp=F
 DIIS: error= 6.60D-02 at cycle   3 NSaved=   3.
 NSaved= 3 IEnMin= 3 EnMin= -3010.37611793484     IErMin= 3 ErrMin= 6.60D-02
 ErrMax= 6.60D-02  0.00D+00 EMaxC= 1.00D-01 BMatC= 7.37D-01 BMatP= 5.46D+00
 IDIUse=3 WtCom= 3.40D-01 WtEn= 6.60D-01
 Coeff-Com:  0.261D+01-0.342D+01 0.181D+01
 Coeff-En:   0.382D-01 0.000D+00 0.962D+00
 Coeff:      0.913D+00-0.116D+01 0.125D+01
 Gap=     0.263 Goal=   None    Shift=    0.000
 RMSDP=1.15D-02 MaxDP=7.93D-01 DE=-3.85D-01 OVMax= 7.56D-02

 Cycle   4  Pass 1  IDiag  1:
 RMSU=  5.17D-03    CP:  6.69D-01  1.63D+00  2.06D+00
 E= -3010.48605495676     Delta-E=       -0.109937021920 Rises=F Damp=F
 DIIS: error= 3.75D-02 at cycle   4 NSaved=   4.
 NSaved= 4 IEnMin= 4 EnMin= -3010.48605495676     IErMin= 4 ErrMin= 3.75D-02
 ErrMax= 3.75D-02  0.00D+00 EMaxC= 1.00D-01 BMatC= 2.21D-01 BMatP= 7.37D-01
 IDIUse=3 WtCom= 6.25D-01 WtEn= 3.75D-01
 Coeff-Com: -0.341D-01 0.591D-01 0.344D+00 0.631D+00
 Coeff-En:   0.000D+00 0.000D+00 0.189D+00 0.811D+00
 Coeff:     -0.213D-01 0.369D-01 0.286D+00 0.699D+00
 Gap=     0.253 Goal=   None    Shift=    0.000
 RMSDP=6.03D-03 MaxDP=7.72D-01 DE=-1.10D-01 OVMax= 3.26D-02

 Cycle   5  Pass 1  IDiag  1:
 RMSU=  1.54D-03    CP:  6.24D-01  1.95D+00  1.92D+00  5.36D-01
 E= -3010.52913772367     Delta-E=       -0.043082766904 Rises=F Damp=F
 DIIS: error= 6.61D-03 at cycle   5 NSaved=   5.
 NSaved= 5 IEnMin= 5 EnMin= -3010.52913772367     IErMin= 5 ErrMin= 6.61D-03
 ErrMax= 6.61D-03  0.00D+00 EMaxC= 1.00D-01 BMatC= 9.02D-03 BMatP= 2.21D-01
 IDIUse=3 WtCom= 9.34D-01 WtEn= 6.61D-02
 Coeff-Com: -0.110D+00 0.152D+00 0.107D+00 0.388D+00 0.463D+00
 Coeff-En:   0.000D+00 0.000D+00 0.000D+00 0.000D+00 0.100D+01
 Coeff:     -0.103D+00 0.142D+00 0.995D-01 0.363D+00 0.499D+00
 Gap=     0.245 Goal=   None    Shift=    0.000
 RMSDP=1.60D-03 MaxDP=2.03D-01 DE=-4.31D-02 OVMax= 2.32D-02

 Cycle   6  Pass 1  IDiag  1:
 RMSU=  5.60D-04    CP:  6.32D-01  1.92D+00  1.99D+00  7.22D-01  6.15D-01
 E= -3010.53171218769     Delta-E=       -0.002574464024 Rises=F Damp=F
 DIIS: error= 2.85D-03 at cycle   6 NSaved=   6.
 NSaved= 6 IEnMin= 6 EnMin= -3010.53171218769     IErMin= 6 ErrMin= 2.85D-03
 ErrMax= 2.85D-03  0.00D+00 EMaxC= 1.00D-01 BMatC= 6.59D-04 BMatP= 9.02D-03
 IDIUse=3 WtCom= 9.72D-01 WtEn= 2.85D-02
 Coeff-Com: -0.963D-01 0.130D+00 0.178D-02 0.167D+00 0.342D+00 0.456D+00
 Coeff-En:   0.000D+00 0.000D+00 0.000D+00 0.000D+00 0.997D-01 0.900D+00
 Coeff:     -0.936D-01 0.126D+00 0.173D-02 0.162D+00 0.335D+00 0.468D+00
 Gap=     0.243 Goal=   None    Shift=    0.000
 RMSDP=4.72D-04 MaxDP=4.85D-02 DE=-2.57D-03 OVMax= 8.31D-03

 Cycle   7  Pass 1  IDiag  1:
 RMSU=  2.17D-04    CP:  6.30D-01  1.92D+00  1.99D+00  6.82D-01  7.44D-01
                    CP:  6.44D-01
 E= -3010.53217660648     Delta-E=       -0.000464418789 Rises=F Damp=F
 DIIS: error= 3.45D-04 at cycle   7 NSaved=   7.
 NSaved= 7 IEnMin= 7 EnMin= -3010.53217660648     IErMin= 7 ErrMin= 3.45D-04
 ErrMax= 3.45D-04  0.00D+00 EMaxC= 1.00D-01 BMatC= 1.62D-05 BMatP= 6.59D-04
 IDIUse=3 WtCom= 9.97D-01 WtEn= 3.45D-03
 Coeff-Com: -0.355D-01 0.474D-01-0.119D-01 0.349D-01 0.857D-01 0.184D+00
 Coeff-Com:  0.695D+00
 Coeff-En:   0.000D+00 0.000D+00 0.000D+00 0.000D+00 0.000D+00 0.000D+00
 Coeff-En:   0.100D+01
 Coeff:     -0.354D-01 0.472D-01-0.118D-01 0.348D-01 0.854D-01 0.184D+00
 Coeff:      0.696D+00
 Gap=     0.244 Goal=   None    Shift=    0.000
 RMSDP=1.34D-04 MaxDP=1.07D-02 DE=-4.64D-04 OVMax= 1.52D-03

 Cycle   8  Pass 1  IDiag  1:
 RMSU=  5.97D-05    CP:  6.30D-01  1.91D+00  1.99D+00  6.91D-01  7.86D-01
                    CP:  6.88D-01  8.98D-01
 E= -3010.53219426241     Delta-E=       -0.000017655931 Rises=F Damp=F
 DIIS: error= 1.04D-04 at cycle   8 NSaved=   8.
 NSaved= 8 IEnMin= 8 EnMin= -3010.53219426241     IErMin= 8 ErrMin= 1.04D-04
 ErrMax= 1.04D-04  0.00D+00 EMaxC= 1.00D-01 BMatC= 2.20D-06 BMatP= 1.62D-05
 IDIUse=3 WtCom= 9.99D-01 WtEn= 1.04D-03
 Coeff-Com:  0.416D-02-0.578D-02-0.347D-02-0.128D-01-0.276D-01-0.292D-01
 Coeff-Com:  0.172D+00 0.903D+00
 Coeff-En:   0.000D+00 0.000D+00 0.000D+00 0.000D+00 0.000D+00 0.000D+00
 Coeff-En:   0.000D+00 0.100D+01
 Coeff:      0.416D-02-0.577D-02-0.346D-02-0.128D-01-0.276D-01-0.292D-01
 Coeff:      0.172D+00 0.903D+00
 Gap=     0.244 Goal=   None    Shift=    0.000
 RMSDP=6.29D-05 MaxDP=4.14D-03 DE=-1.77D-05 OVMax= 1.11D-03

 Cycle   9  Pass 1  IDiag  1:
 RMSU=  2.41D-05    CP:  6.30D-01  1.91D+00  2.00D+00  6.95D-01  7.98D-01
                    CP:  6.88D-01  1.04D+00  1.21D+00
 E= -3010.53219838323     Delta-E=       -0.000004120816 Rises=F Damp=F
 DIIS: error= 2.11D-05 at cycle   9 NSaved=   9.
 NSaved= 9 IEnMin= 9 EnMin= -3010.53219838323     IErMin= 9 ErrMin= 2.11D-05
 ErrMax= 2.11D-05  0.00D+00 EMaxC= 1.00D-01 BMatC= 2.29D-07 BMatP= 2.20D-06
 IDIUse=1 WtCom= 1.00D+00 WtEn= 0.00D+00
 Coeff-Com:  0.645D-02-0.866D-02 0.670D-03-0.886D-02-0.182D-01-0.307D-01
 Coeff-Com: -0.565D-01 0.250D+00 0.865D+00
 Coeff:      0.645D-02-0.866D-02 0.670D-03-0.886D-02-0.182D-01-0.307D-01
 Coeff:     -0.565D-01 0.250D+00 0.865D+00
 Gap=     0.244 Goal=   None    Shift=    0.000
 RMSDP=4.14D-05 MaxDP=4.94D-03 DE=-4.12D-06 OVMax= 7.03D-04

 Cycle  10  Pass 1  IDiag  1:
 RMSU=  8.04D-06    CP:  6.30D-01  1.91D+00  2.00D+00  6.93D-01  8.05D-01
                    CP:  6.77D-01  1.08D+00  1.50D+00  1.06D+00
 E= -3010.53219919946     Delta-E=       -0.000000816234 Rises=F Damp=F
 DIIS: error= 1.34D-05 at cycle  10 NSaved=  10.
 NSaved=10 IEnMin=10 EnMin= -3010.53219919946     IErMin=10 ErrMin= 1.34D-05
 ErrMax= 1.34D-05  0.00D+00 EMaxC= 1.00D-01 BMatC= 6.34D-08 BMatP= 2.29D-07
 IDIUse=1 WtCom= 1.00D+00 WtEn= 0.00D+00
 Coeff-Com:  0.638D-03-0.832D-03 0.438D-03-0.309D-03 0.170D-02 0.270D-02
 Coeff-Com: -0.392D-01-0.839D-01 0.210D+00 0.909D+00
 Coeff:      0.638D-03-0.832D-03 0.438D-03-0.309D-03 0.170D-02 0.270D-02
 Coeff:     -0.392D-01-0.839D-01 0.210D+00 0.909D+00
 Gap=     0.244 Goal=   None    Shift=    0.000
 RMSDP=1.36D-05 MaxDP=1.34D-03 DE=-8.16D-07 OVMax= 3.92D-04

 Cycle  11  Pass 1  IDiag  1:
 RMSU=  7.41D-06    CP:  6.30D-01  1.91D+00  2.00D+00  6.93D-01  8.06D-01
                    CP:  6.74D-01  1.07D+00  1.62D+00  1.17D+00  1.32D+00
 E= -3010.53219940163     Delta-E=       -0.000000202171 Rises=F Damp=F
 DIIS: error= 6.24D-06 at cycle  11 NSaved=  11.
 NSaved=11 IEnMin=11 EnMin= -3010.53219940163     IErMin=11 ErrMin= 6.24D-06
 ErrMax= 6.24D-06  0.00D+00 EMaxC= 1.00D-01 BMatC= 7.42D-09 BMatP= 6.34D-08
 IDIUse=1 WtCom= 1.00D+00 WtEn= 0.00D+00
 Coeff-Com: -0.331D-03 0.444D-03 0.461D-04 0.839D-03 0.197D-02 0.424D-02
 Coeff-Com:  0.132D-01-0.214D-01-0.168D+00-0.155D+00 0.132D+01
 Coeff:     -0.331D-03 0.444D-03 0.461D-04 0.839D-03 0.197D-02 0.424D-02
 Coeff:      0.132D-01-0.214D-01-0.168D+00-0.155D+00 0.132D+01
 Gap=     0.244 Goal=   None    Shift=    0.000
 RMSDP=1.41D-05 MaxDP=1.37D-03 DE=-2.02D-07 OVMax= 2.95D-04

 Cycle  12  Pass 1  IDiag  1:
 RMSU=  1.63D-06    CP:  6.30D-01  1.91D+00  1.99D+00  6.92D-01  8.07D-01
                    CP:  6.68D-01  1.06D+00  1.71D+00  1.19D+00  1.72D+00
                    CP:  1.67D+00
 E= -3010.53219946581     Delta-E=       -0.000000064178 Rises=F Damp=F
 DIIS: error= 3.50D-06 at cycle  12 NSaved=  12.
 NSaved=12 IEnMin=12 EnMin= -3010.53219946581     IErMin=12 ErrMin= 3.50D-06
 ErrMax= 3.50D-06  0.00D+00 EMaxC= 1.00D-01 BMatC= 2.31D-09 BMatP= 7.42D-09
 IDIUse=1 WtCom= 1.00D+00 WtEn= 0.00D+00
 Coeff-Com: -0.208D-03 0.275D-03-0.365D-04 0.394D-03 0.376D-03 0.107D-02
 Coeff-Com:  0.129D-01 0.563D-02-0.111D+00-0.245D+00 0.598D+00 0.738D+00
 Coeff:     -0.208D-03 0.275D-03-0.365D-04 0.394D-03 0.376D-03 0.107D-02
 Coeff:      0.129D-01 0.563D-02-0.111D+00-0.245D+00 0.598D+00 0.738D+00
 Gap=     0.244 Goal=   None    Shift=    0.000
 RMSDP=2.55D-06 MaxDP=2.31D-04 DE=-6.42D-08 OVMax= 1.04D-04

 Cycle  13  Pass 1  IDiag  1:
 RMSU=  8.76D-07    CP:  6.30D-01  1.91D+00  1.99D+00  6.92D-01  8.07D-01
                    CP:  6.67D-01  1.06D+00  1.72D+00  1.20D+00  1.80D+00
                    CP:  1.88D+00  1.20D+00
 E= -3010.53219947538     Delta-E=       -0.000000009572 Rises=F Damp=F
 DIIS: error= 1.58D-06 at cycle  13 NSaved=  13.
 NSaved=13 IEnMin=13 EnMin= -3010.53219947538     IErMin=13 ErrMin= 1.58D-06
 ErrMax= 1.58D-06  0.00D+00 EMaxC= 1.00D-01 BMatC= 3.73D-10 BMatP= 2.31D-09
 IDIUse=1 WtCom= 1.00D+00 WtEn= 0.00D+00
 Coeff-Com:  0.966D-05-0.131D-04-0.215D-04-0.119D-03-0.473D-03-0.102D-02
 Coeff-Com: -0.208D-02 0.400D-02 0.326D-01 0.985D-02-0.242D+00 0.135D+00
 Coeff-Com:  0.106D+01
 Coeff:      0.966D-05-0.131D-04-0.215D-04-0.119D-03-0.473D-03-0.102D-02
 Coeff:     -0.208D-02 0.400D-02 0.326D-01 0.985D-02-0.242D+00 0.135D+00
 Coeff:      0.106D+01
 Gap=     0.244 Goal=   None    Shift=    0.000
 RMSDP=8.97D-07 MaxDP=4.50D-05 DE=-9.57D-09 OVMax= 4.43D-05

 Cycle  14  Pass 1  IDiag  1:
 RMSU=  3.31D-07    CP:  6.30D-01  1.91D+00  1.99D+00  6.92D-01  8.07D-01
                    CP:  6.67D-01  1.06D+00  1.72D+00  1.20D+00  1.82D+00
                    CP:  1.92D+00  1.46D+00  1.55D+00
 E= -3010.53219947728     Delta-E=       -0.000000001901 Rises=F Damp=F
 DIIS: error= 5.42D-07 at cycle  14 NSaved=  14.
 NSaved=14 IEnMin=14 EnMin= -3010.53219947728     IErMin=14 ErrMin= 5.42D-07
 ErrMax= 5.42D-07  0.00D+00 EMaxC= 1.00D-01 BMatC= 6.69D-11 BMatP= 3.73D-10
 IDIUse=1 WtCom= 1.00D+00 WtEn= 0.00D+00
 Coeff-Com:  0.146D-04-0.190D-04-0.828D-05-0.840D-04-0.185D-03-0.454D-03
 Coeff-Com: -0.249D-02 0.262D-03 0.283D-01 0.381D-01-0.184D+00-0.549D-01
 Coeff-Com:  0.395D+00 0.780D+00
 Coeff:      0.146D-04-0.190D-04-0.828D-05-0.840D-04-0.185D-03-0.454D-03
 Coeff:     -0.249D-02 0.262D-03 0.283D-01 0.381D-01-0.184D+00-0.549D-01
 Coeff:      0.395D+00 0.780D+00
 Gap=     0.244 Goal=   None    Shift=    0.000
 RMSDP=4.35D-07 MaxDP=4.59D-05 DE=-1.90D-09 OVMax= 1.43D-05

 Cycle  15  Pass 1  IDiag  1:
 RMSU=  1.40D-07    CP:  6.30D-01  1.91D+00  1.99D+00  6.93D-01  8.07D-01
                    CP:  6.67D-01  1.06D+00  1.72D+00  1.20D+00  1.82D+00
                    CP:  1.93D+00  1.53D+00  1.76D+00  1.28D+00
 E= -3010.53219947751     Delta-E=       -0.000000000227 Rises=F Damp=F
 DIIS: error= 2.75D-07 at cycle  15 NSaved=  15.
 NSaved=15 IEnMin=15 EnMin= -3010.53219947751     IErMin=15 ErrMin= 2.75D-07
 ErrMax= 2.75D-07  0.00D+00 EMaxC= 1.00D-01 BMatC= 1.11D-11 BMatP= 6.69D-11
 IDIUse=1 WtCom= 1.00D+00 WtEn= 0.00D+00
 Coeff-Com:  0.648D-05-0.860D-05 0.318D-05 0.216D-05 0.649D-04 0.119D-03
 Coeff-Com: -0.603D-04-0.667D-03-0.312D-03 0.647D-02 0.747D-02-0.417D-01
 Coeff-Com: -0.140D+00 0.211D+00 0.957D+00
 Coeff:      0.648D-05-0.860D-05 0.318D-05 0.216D-05 0.649D-04 0.119D-03
 Coeff:     -0.603D-04-0.667D-03-0.312D-03 0.647D-02 0.747D-02-0.417D-01
 Coeff:     -0.140D+00 0.211D+00 0.957D+00
 Gap=     0.244 Goal=   None    Shift=    0.000
 RMSDP=1.69D-07 MaxDP=7.17D-06 DE=-2.27D-10 OVMax= 5.69D-06

 Cycle  16  Pass 1  IDiag  1:
 RMSU=  6.35D-08    CP:  6.30D-01  1.91D+00  1.99D+00  6.93D-01  8.07D-01
                    CP:  6.67D-01  1.06D+00  1.72D+00  1.20D+00  1.83D+00
                    CP:  1.93D+00  1.56D+00  1.83D+00  1.48D+00  1.47D+00
 E= -3010.53219947755     Delta-E=       -0.000000000042 Rises=F Damp=F
 DIIS: error= 6.79D-08 at cycle  16 NSaved=  16.
 NSaved=16 IEnMin=16 EnMin= -3010.53219947755     IErMin=16 ErrMin= 6.79D-08
 ErrMax= 6.79D-08  0.00D+00 EMaxC= 1.00D-01 BMatC= 9.09D-13 BMatP= 1.11D-11
 IDIUse=1 WtCom= 1.00D+00 WtEn= 0.00D+00
 Coeff-Com: -0.122D-06 0.141D-06 0.148D-05 0.882D-05 0.290D-04 0.578D-04
 Coeff-Com:  0.207D-03-0.193D-03-0.288D-02-0.209D-02 0.185D-01-0.173D-02
 Coeff-Com: -0.545D-01-0.610D-01 0.108D+00 0.996D+00
 Coeff:     -0.122D-06 0.141D-06 0.148D-05 0.882D-05 0.290D-04 0.578D-04
 Coeff:      0.207D-03-0.193D-03-0.288D-02-0.209D-02 0.185D-01-0.173D-02
 Coeff:     -0.545D-01-0.610D-01 0.108D+00 0.996D+00
 Gap=     0.244 Goal=   None    Shift=    0.000
 RMSDP=7.16D-08 MaxDP=5.74D-06 DE=-4.23D-11 OVMax= 1.44D-06

 Cycle  17  Pass 1  IDiag  1:
 RMSU=  2.12D-08    CP:  6.30D-01  1.91D+00  1.99D+00  6.93D-01  8.07D-01
                    CP:  6.67D-01  1.06D+00  1.72D+00  1.20D+00  1.83D+00
                    CP:  1.93D+00  1.56D+00  1.86D+00  1.53D+00  1.75D+00
                    CP:  1.24D+00
 E= -3010.53219947759     Delta-E=       -0.000000000041 Rises=F Damp=F
 DIIS: error= 2.62D-08 at cycle  17 NSaved=  17.
 NSaved=17 IEnMin=17 EnMin= -3010.53219947759     IErMin=17 ErrMin= 2.62D-08
 ErrMax= 2.62D-08  0.00D+00 EMaxC= 1.00D-01 BMatC= 1.95D-13 BMatP= 9.09D-13
 IDIUse=1 WtCom= 1.00D+00 WtEn= 0.00D+00
 Coeff-Com: -0.169D-05 0.225D-05-0.238D-06 0.255D-05 0.642D-06-0.712D-06
 Coeff-Com:  0.458D-04 0.792D-04-0.567D-03-0.108D-02 0.325D-02 0.464D-02
 Coeff-Com:  0.851D-02-0.455D-01-0.106D+00 0.219D+00 0.917D+00
 Coeff:     -0.169D-05 0.225D-05-0.238D-06 0.255D-05 0.642D-06-0.712D-06
 Coeff:      0.458D-04 0.792D-04-0.567D-03-0.108D-02 0.325D-02 0.464D-02
 Coeff:      0.851D-02-0.455D-01-0.106D+00 0.219D+00 0.917D+00
 Gap=     0.244 Goal=   None    Shift=    0.000
 RMSDP=4.96D-08 MaxDP=4.55D-06 DE=-4.14D-11 OVMax= 6.30D-07

 Cycle  18  Pass 1  IDiag  1:
 RMSU=  7.81D-09    CP:  6.30D-01  1.91D+00  1.99D+00  6.93D-01  8.07D-01
                    CP:  6.67D-01  1.06D+00  1.72D+00  1.20D+00  1.83D+00
                    CP:  1.93D+00  1.56D+00  1.85D+00  1.52D+00  1.83D+00
                    CP:  1.49D+00  1.16D+00
 E= -3010.53219947759     Delta-E=        0.000000000005 Rises=F Damp=F
 DIIS: error= 1.64D-08 at cycle  18 NSaved=  18.
 NSaved=18 IEnMin=17 EnMin= -3010.53219947759     IErMin=18 ErrMin= 1.64D-08
 ErrMax= 1.64D-08  0.00D+00 EMaxC= 1.00D-01 BMatC= 4.85D-14 BMatP= 1.95D-13
 IDIUse=1 WtCom= 1.00D+00 WtEn= 0.00D+00
 Coeff-Com: -0.102D-06 0.137D-06-0.282D-06-0.142D-05-0.726D-05-0.158D-04
 Coeff-Com: -0.321D-04 0.907D-04 0.342D-03-0.116D-03-0.276D-02 0.192D-02
 Coeff-Com:  0.157D-01-0.625D-02-0.610D-01-0.107D+00 0.357D+00 0.802D+00
 Coeff:     -0.102D-06 0.137D-06-0.282D-06-0.142D-05-0.726D-05-0.158D-04
 Coeff:     -0.321D-04 0.907D-04 0.342D-03-0.116D-03-0.276D-02 0.192D-02
 Coeff:      0.157D-01-0.625D-02-0.610D-01-0.107D+00 0.357D+00 0.802D+00
 Gap=     0.244 Goal=   None    Shift=    0.000
 RMSDP=3.27D-08 MaxDP=3.43D-06 DE= 5.46D-12 OVMax= 2.69D-07

 Cycle  19  Pass 1  IDiag  1:
 RMSU=  2.72D-09    CP:  6.30D-01  1.91D+00  1.99D+00  6.93D-01  8.07D-01
                    CP:  6.67D-01  1.06D+00  1.72D+00  1.20D+00  1.83D+00
                    CP:  1.93D+00  1.57D+00  1.85D+00  1.51D+00  1.87D+00
                    CP:  1.56D+00  1.36D+00  1.25D+00
 E= -3010.53219947760     Delta-E=       -0.000000000011 Rises=F Damp=F
 DIIS: error= 9.42D-09 at cycle  19 NSaved=  19.
 NSaved=19 IEnMin=19 EnMin= -3010.53219947760     IErMin=19 ErrMin= 9.42D-09
 ErrMax= 9.42D-09  0.00D+00 EMaxC= 1.00D-01 BMatC= 4.80D-15 BMatP= 4.85D-14
 IDIUse=1 WtCom= 1.00D+00 WtEn= 0.00D+00
 Large coefficients: NSaved= 19 BigCof=    0.00 CofMax=   10.00 Det=-9.08D-15
 Inversion failed.  Reducing to 18 matrices.
 Large coefficients: NSaved= 18 BigCof=    0.00 CofMax=   10.00 Det=-1.60D-14
 Inversion failed.  Reducing to 17 matrices.
 Coeff-Com: -0.191D-07-0.410D-07 0.481D-06 0.714D-06-0.561D-05-0.929D-05
 Coeff-Com:  0.715D-04 0.145D-03-0.335D-03-0.538D-03-0.425D-03 0.486D-02
 Coeff-Com:  0.118D-01-0.344D-01-0.116D+00 0.294D-02 0.113D+01
 Coeff:     -0.191D-07-0.410D-07 0.481D-06 0.714D-06-0.561D-05-0.929D-05
 Coeff:      0.715D-04 0.145D-03-0.335D-03-0.538D-03-0.425D-03 0.486D-02
 Coeff:      0.118D-01-0.344D-01-0.116D+00 0.294D-02 0.113D+01
 Gap=     0.244 Goal=   None    Shift=    0.000
 RMSDP=7.64D-09 MaxDP=7.41D-07 DE=-1.14D-11 OVMax= 1.92D-07

 SCF Done:  E(RwB97XD) =  -3010.53219948     A.U. after   19 cycles
            NFock= 19  Conv=0.76D-08     -V/T= 2.0016
 KE= 3.005850448417D+03 PE=-8.699376313756D+03 EE= 1.910218409017D+03
 Leave Link  502 at Thu May  2 14:19:10 2024, MaxMem=   134217728 cpu:            1187.6 elap:            1187.9
 (Enter /software/gaussian/g16-c01/sse4/g16/l601.exe)
 Copying SCF densities to generalized density rwf, IOpCl= 0 IROHF=0.

 **********************************************************************

            Population analysis using the SCF Density.

 **********************************************************************

 Alpha  occ. eigenvalues -- -483.30879 -62.85897 -56.65595 -56.65020 -56.65009
 Alpha  occ. eigenvalues --  -19.46150 -19.46137 -14.85571 -10.59068 -10.57828
 Alpha  occ. eigenvalues --  -10.57138 -10.56791 -10.53230 -10.52595  -9.01700
 Alpha  occ. eigenvalues --   -6.84392  -6.82505  -6.82471  -2.94293  -2.93798
 Alpha  occ. eigenvalues --   -2.93770  -2.92260  -2.92259  -1.49834  -1.32795
 Alpha  occ. eigenvalues --   -1.22262  -1.12691  -1.12266  -1.04551  -1.00140
 Alpha  occ. eigenvalues --   -0.95183  -0.90425  -0.84834  -0.80784  -0.80015
 Alpha  occ. eigenvalues --   -0.79949  -0.77769  -0.76097  -0.75434  -0.71788
 Alpha  occ. eigenvalues --   -0.68374  -0.67416  -0.63145  -0.59619  -0.57319
 Alpha  occ. eigenvalues --   -0.56629  -0.55915  -0.55816  -0.54333
 Alpha virt. eigenvalues --   -0.29900  -0.20265  -0.15407  -0.12922  -0.08471
 Alpha virt. eigenvalues --   -0.06031  -0.05453  -0.04425  -0.04167  -0.03107
 Alpha virt. eigenvalues --   -0.02291  -0.01331  -0.01004  -0.00330   0.00724
 Alpha virt. eigenvalues --    0.01158   0.01806   0.02147   0.02896   0.03611
 Alpha virt. eigenvalues --    0.04455   0.05576   0.05818   0.06138   0.06984
 Alpha virt. eigenvalues --    0.07649   0.07721   0.08309   0.09368   0.09736
 Alpha virt. eigenvalues --    0.10124   0.10823   0.11747   0.12072   0.12731
 Alpha virt. eigenvalues --    0.13090   0.13398   0.13775   0.14866   0.15728
 Alpha virt. eigenvalues --    0.16758   0.17283   0.17549   0.18838   0.19037
 Alpha virt. eigenvalues --    0.20203   0.20919   0.21665   0.22493   0.24287
 Alpha virt. eigenvalues --    0.24768   0.26568   0.28160   0.29684   0.32382
 Alpha virt. eigenvalues --    0.32835   0.33617   0.33693   0.34525   0.36699
 Alpha virt. eigenvalues --    0.37487   0.37934   0.39723   0.40866   0.42109
 Alpha virt. eigenvalues --    0.43506   0.44265   0.45601   0.47113   0.47526
 Alpha virt. eigenvalues --    0.48766   0.50635   0.51111   0.52524   0.53764
 Alpha virt. eigenvalues --    0.55319   0.56155   0.58262   0.58373   0.60397
 Alpha virt. eigenvalues --    0.61358   0.62502   0.64769   0.67862   0.68402
 Alpha virt. eigenvalues --    0.71532   0.71808   0.73021   0.74552   0.74868
 Alpha virt. eigenvalues --    0.75057   0.77492   0.79800   0.83571   0.85810
 Alpha virt. eigenvalues --    0.87285   0.87829   0.91668   0.94416   0.98904
 Alpha virt. eigenvalues --    1.00519   1.02761   1.04083   1.05863   1.07127
 Alpha virt. eigenvalues --    1.08978   1.12719   1.13488   1.14205   1.18069
 Alpha virt. eigenvalues --    1.21149   1.22995   1.28319   1.33686   1.36522
 Alpha virt. eigenvalues --    1.37152   1.39225   1.43446   1.55168   1.56914
 Alpha virt. eigenvalues --    1.57503   1.60051   1.61455   1.64173   1.66048
 Alpha virt. eigenvalues --    1.68315   1.71709   1.74136   1.75510   1.79717
 Alpha virt. eigenvalues --    1.84189   1.85599   1.87519   1.95315   1.96553
 Alpha virt. eigenvalues --    1.98103   2.02774   2.03225   2.07505   2.09244
 Alpha virt. eigenvalues --    2.13152   2.14918   2.22564   2.23877   2.27626
 Alpha virt. eigenvalues --    2.33766   2.40092   2.41722   2.44577   2.53525
 Alpha virt. eigenvalues --    2.58317   2.63406   2.66217   2.68994   2.71807
 Alpha virt. eigenvalues --    2.73851   2.76503   2.77645   2.80765   2.82310
 Alpha virt. eigenvalues --    2.93496   2.98354   3.01593   3.06081   3.09246
 Alpha virt. eigenvalues --    3.15106   3.16604   3.17801   3.22633   3.26683
 Alpha virt. eigenvalues --    3.28025   3.38113   3.46870   3.50372   3.54837
 Alpha virt. eigenvalues --    3.57806   3.68992   3.74319   3.83922   3.87632
 Alpha virt. eigenvalues --    4.10385   4.11245   4.19779   4.23919   4.43580
 Alpha virt. eigenvalues --    4.45361   4.54917   4.59993   4.93642   4.96464
 Alpha virt. eigenvalues --    5.05337   5.09804   5.62096   6.15237   6.68400
 Alpha virt. eigenvalues --    7.49269   7.51586   7.61680  23.22442  23.61567
 Alpha virt. eigenvalues --   23.72189  23.78300  23.95954  24.02390  35.31593
 Alpha virt. eigenvalues --   47.94460  49.85316  49.93978 289.82096 289.84435
 Alpha virt. eigenvalues --  289.970521020.95634
          Condensed to atoms (all electrons):
               1          2          3          4          5          6
     1  C    7.796931  -2.472490   0.784736  -0.046491   0.297281   0.057938
     2  C   -2.472490  17.248631  -3.957740   0.424187  -0.013943   0.191350
     3  C    0.784736  -3.957740  18.924959  -1.329780   0.022768   0.117687
     4  C   -0.046491   0.424187  -1.329780   6.402449   0.022541  -0.015355
     5  H    0.297281  -0.013943   0.022768   0.022541   0.331611  -0.001671
     6  H    0.057938   0.191350   0.117687  -0.015355  -0.001671   0.312275
     7  H    0.027183  -0.027008   0.021346   0.305558  -0.002777  -0.000004
     8  N   -0.097055  -0.041159  -1.753300   0.020122  -0.000418  -0.029941
     9  O   -0.015250   0.278366  -0.057730  -0.016838  -0.000033  -0.002479
    10  O    0.270313  -0.190033  -0.251914  -0.021747   0.000004   0.021299
    11  C    0.748365  -0.592156   2.392718  -0.290365  -0.025160   0.008823
    12  H   -0.011444   0.018121   0.007806   0.018317   0.000020  -0.000017
    13  C   -1.232468  -4.855665  -8.653451   0.857575   0.024608  -0.009464
    14  H   -0.003211   0.012331   0.028015   0.003106  -0.000033   0.000047
    15  Br   0.007536  -0.209345  -0.222925  -0.000437  -0.000005  -0.000555
               7          8          9         10         11         12
     1  C    0.027183  -0.097055  -0.015250   0.270313   0.748365  -0.011444
     2  C   -0.027008  -0.041159   0.278366  -0.190033  -0.592156   0.018121
     3  C    0.021346  -1.753300  -0.057730  -0.251914   2.392718   0.007806
     4  C    0.305558   0.020122  -0.016838  -0.021747  -0.290365   0.018317
     5  H   -0.002777  -0.000418  -0.000033   0.000004  -0.025160   0.000020
     6  H   -0.000004  -0.029941  -0.002479   0.021299   0.008823  -0.000017
     7  H    0.338579   0.000010   0.000003   0.000001   0.030433  -0.002336
     8  N    0.000010   7.645660   0.048349   0.200983  -0.318963   0.000513
     9  O    0.000003   0.048349   7.896572   0.003372   0.267300   0.000107
    10  O    0.000001   0.200983   0.003372   7.815017   0.003287  -0.000024
    11  C    0.030433  -0.318963   0.267300   0.003287   7.938701   0.312174
    12  H   -0.002336   0.000513   0.000107  -0.000024   0.312174   0.322682
    13  C   -0.020895   1.431244  -0.445070   0.076999  -4.344682  -0.016885
    14  H   -0.000032  -0.031198   0.012956  -0.001732   0.018669  -0.004806
    15  Br  -0.000406   0.167053  -0.057922   0.004469   0.056021  -0.000577
              13         14         15
     1  C   -1.232468  -0.003211   0.007536
     2  C   -4.855665   0.012331  -0.209345
     3  C   -8.653451   0.028015  -0.222925
     4  C    0.857575   0.003106  -0.000437
     5  H    0.024608  -0.000033  -0.000005
     6  H   -0.009464   0.000047  -0.000555
     7  H   -0.020895  -0.000032  -0.000406
     8  N    1.431244  -0.031198   0.167053
     9  O   -0.445070   0.012956  -0.057922
    10  O    0.076999  -0.001732   0.004469
    11  C   -4.344682   0.018669   0.056021
    12  H   -0.016885  -0.004806  -0.000577
    13  C   22.862936   0.271144   0.416049
    14  H    0.271144   0.327810  -0.041391
    15  Br   0.416049  -0.041391  34.690335
 Mulliken charges:
               1
     1  C   -0.111874
     2  C    0.186553
     3  C   -0.073194
     4  C   -0.332840
     5  H    0.345207
     6  H    0.350068
     7  H    0.330345
     8  N   -0.241900
     9  O    0.088294
    10  O    0.069706
    11  C   -0.205165
    12  H    0.356350
    13  C   -0.361975
    14  H    0.408325
    15  Br   0.192100
 Sum of Mulliken charges =   1.00000
 Mulliken charges with hydrogens summed into heavy atoms:
               1
     1  C    0.233333
     2  C    0.536621
     3  C   -0.073194
     4  C   -0.002495
     8  N   -0.241900
     9  O    0.088294
    10  O    0.069706
    11  C    0.151184
    13  C    0.046350
    15  Br   0.192100
 Electronic spatial extent (au):  <R**2>=           3945.9305
 Charge=              1.0000 electrons
 Dipole moment (field-independent basis, Debye):
    X=              2.7950    Y=             -0.9416    Z=             -0.9124  Tot=              3.0872
 Quadrupole moment (field-independent basis, Debye-Ang):
   XX=            -67.8545   YY=            -51.0833   ZZ=            -61.9574
   XY=             -3.0429   XZ=             -2.8945   YZ=              2.6161
 Traceless Quadrupole moment (field-independent basis, Debye-Ang):
   XX=             -7.5561   YY=              9.2151   ZZ=             -1.6590
   XY=             -3.0429   XZ=             -2.8945   YZ=              2.6161
 Octapole moment (field-independent basis, Debye-Ang**2):
  XXX=           -513.3091  YYY=             91.7814  ZZZ=             82.0292  XYY=           -136.3460
  XXY=             24.2186  XXZ=             24.3935  XZZ=           -132.0130  YZZ=             16.6565
  YYZ=             25.1110  XYZ=              8.3458
 Hexadecapole moment (field-independent basis, Debye-Ang**3):
 XXXX=          -3450.8983 YYYY=           -701.2687 ZZZZ=           -393.0681 XXXY=            178.8128
 XXXZ=            179.7842 YYYX=            184.4860 YYYZ=           -170.8797 ZZZX=            165.5737
 ZZZY=           -142.9125 XXYY=           -623.5221 XXZZ=           -524.8555 YYZZ=           -170.2939
 XXYZ=            -40.1904 YYXZ=             48.1865 ZZXY=             27.8231
 N-N= 7.727752568438D+02 E-N=-8.699376313290D+03  KE= 3.005850448417D+03
 No NMR shielding tensors so no spin-rotation constants.
 Leave Link  601 at Thu May  2 14:19:17 2024, MaxMem=   134217728 cpu:               7.4 elap:               7.4
 (Enter /software/gaussian/g16-c01/sse4/g16/l9999.exe)
 Unable to Open any file for archive entry.
 1\1\GINC-BHX0017\SP\RwB97XD\6-311+G(d)\C6H5Br1N1O2(1+)\BWEIGHT\02-May-
 2024\0\\#P wB97XD/6-311+G* NoSymm #P Field=Z+9\\TitleMe\\1,1\C,0,0.519
 3,1.233,-0.0319\C,0,1.9445,1.2692,-0.0367\C,0,2.6204,0.0928,-0.025\C,0
 ,-0.196,0.0301,0.001\H,0,-0.0207,2.1742,-0.0434\H,0,2.4828,2.2089,-0.0
 361\H,0,-1.2777,0.0399,0.0117\N,0,4.0921,0.0959,0.0366\O,0,4.6393,-1.0
 217,0.1446\O,0,4.6649,1.1984,-0.0233\C,0,0.4943,-1.1671,0.021\H,0,-0.0
 325,-2.1149,0.0545\C,0,1.9629,-1.2165,-0.0211\H,0,2.4436,-1.9631,0.615
 1\Br,0,2.173,-1.9491,-1.9062\\Version=ES64L-G16RevC.01\HF=-3010.532199
 5\RMSD=7.643e-09\Dipole=-3.2295902,0.8576737,0.8902452\Quadrupole=-5.6
 177744,6.8511877,-1.2334133,-2.2622936,-2.1519667,1.9449794\PG=C01 [X(
 C6H5Br1N1O2)]\\@
 The archive entry for this job was punched.


 HOW IS IT THAT THE SKY FEEDS THE STARS?

                           -- LUCRETIUS
 Job cpu time:       0 days  0 hours 20 minutes 58.1 seconds.
 Elapsed time:       0 days  0 hours 20 minutes 58.3 seconds.
 File lengths (MBytes):  RWF=     40 Int=      0 D2E=      0 Chk=     32 Scr=      1
 Normal termination of Gaussian 16 at Thu May  2 14:19:18 2024.
