 Entering Gaussian System, Link 0=g16
 Initial command:
 /software/gaussian/g16-c01/sse4/g16/l1.exe "/local_scratch/24665248/Gau-13074.inp" -scrdir="/local_scratch/24665248/"
 Entering Link 1 = /software/gaussian/g16-c01/sse4/g16/l1.exe PID=     13084.
  
 Copyright (c) 1988-2019, Gaussian, Inc.  All Rights Reserved.
  
 This is part of the Gaussian(R) 16 program.  It is based on
 the Gaussian(R) 09 system (copyright 2009, Gaussian, Inc.),
 the Gaussian(R) 03 system (copyright 2003, Gaussian, Inc.),
 the Gaussian(R) 98 system (copyright 1998, Gaussian, Inc.),
 the Gaussian(R) 94 system (copyright 1995, Gaussian, Inc.),
 the Gaussian 92(TM) system (copyright 1992, Gaussian, Inc.),
 the Gaussian 90(TM) system (copyright 1990, Gaussian, Inc.),
 the Gaussian 88(TM) system (copyright 1988, Gaussian, Inc.),
 the Gaussian 86(TM) system (copyright 1986, Carnegie Mellon
 University), and the Gaussian 82(TM) system (copyright 1983,
 Carnegie Mellon University). Gaussian is a federally registered
 trademark of Gaussian, Inc.
  
 This software contains proprietary and confidential information,
 including trade secrets, belonging to Gaussian, Inc.
  
 This software is provided under written license and may be
 used, copied, transmitted, or stored only in accord with that
 written license.
  
 The following legend is applicable only to US Government
 contracts under FAR:
  
                    RESTRICTED RIGHTS LEGEND
  
 Use, reproduction and disclosure by the US Government is
 subject to restrictions as set forth in subparagraphs (a)
 and (c) of the Commercial Computer Software - Restricted
 Rights clause in FAR 52.227-19.
  
 Gaussian, Inc.
 340 Quinnipiac St., Bldg. 40, Wallingford CT 06492
  
  
 ---------------------------------------------------------------
 Warning -- This program may not be used in any manner that
 competes with the business of Gaussian, Inc. or will provide
 assistance to any competitor of Gaussian, Inc.  The licensee
 of this program is prohibited from giving any competitor of
 Gaussian, Inc. access to this program.  By using this program,
 the user acknowledges that Gaussian, Inc. is engaged in the
 business of creating and licensing software in the field of
 computational chemistry and represents and warrants to the
 licensee that it is not a competitor of Gaussian, Inc. and that
 it will not use this program in any manner prohibited above.
 ---------------------------------------------------------------
  

 Cite this work as:
 Gaussian 16, Revision C.01,
 M. J. Frisch, G. W. Trucks, H. B. Schlegel, G. E. Scuseria, 
 M. A. Robb, J. R. Cheeseman, G. Scalmani, V. Barone, 
 G. A. Petersson, H. Nakatsuji, X. Li, M. Caricato, A. V. Marenich, 
 J. Bloino, B. G. Janesko, R. Gomperts, B. Mennucci, H. P. Hratchian, 
 J. V. Ortiz, A. F. Izmaylov, J. L. Sonnenberg, D. Williams-Young, 
 F. Ding, F. Lipparini, F. Egidi, J. Goings, B. Peng, A. Petrone, 
 T. Henderson, D. Ranasinghe, V. G. Zakrzewski, J. Gao, N. Rega, 
 G. Zheng, W. Liang, M. Hada, M. Ehara, K. Toyota, R. Fukuda, 
 J. Hasegawa, M. Ishida, T. Nakajima, Y. Honda, O. Kitao, H. Nakai, 
 T. Vreven, K. Throssell, J. A. Montgomery, Jr., J. E. Peralta, 
 F. Ogliaro, M. J. Bearpark, J. J. Heyd, E. N. Brothers, K. N. Kudin, 
 V. N. Staroverov, T. A. Keith, R. Kobayashi, J. Normand, 
 K. Raghavachari, A. P. Rendell, J. C. Burant, S. S. Iyengar, 
 J. Tomasi, M. Cossi, J. M. Millam, M. Klene, C. Adamo, R. Cammi, 
 J. W. Ochterski, R. L. Martin, K. Morokuma, O. Farkas, 
 J. B. Foresman, and D. J. Fox, Gaussian, Inc., Wallingford CT, 2019.
 
 ******************************************
 Gaussian 16:  ES64L-G16RevC.01  3-Jul-2019
                 2-May-2024 
 ******************************************
 %chk=geometry.chk
 %mem=1GB
 %nprocshared=12
 Will use up to   12 processors via shared memory.
 ----------------------------------------
 #P wB97XD/6-311+G* NoSymm #P Field=X-145
 ----------------------------------------
 1/38=1,172=1/1;
 2/12=2,15=1,17=6,18=5,40=1/2;
 3/5=4,6=6,7=11,11=2,14=1,15=-145,25=1,30=1,74=-58/1,2,3;
 4//1;
 5/5=2,38=5/2;
 6/7=2,8=2,9=2,10=2,28=1/1;
 99/5=1,9=1/99;
 Leave Link    1 at Thu May  2 13:57:32 2024, MaxMem=   134217728 cpu:               3.3 elap:               3.3
 (Enter /software/gaussian/g16-c01/sse4/g16/l101.exe)
 -------
 TitleMe
 -------
 Symbolic Z-matrix:
 Charge =  1 Multiplicity = 1
 C                     0.5193    1.233    -0.0319 
 C                     1.9445    1.2692   -0.0367 
 C                     2.6204    0.0928   -0.025 
 C                    -0.196     0.0301    0.001 
 H                    -0.0207    2.1742   -0.0434 
 H                     2.4828    2.2089   -0.0361 
 H                    -1.2777    0.0399    0.0117 
 N                     4.0921    0.0959    0.0366 
 O                     4.6393   -1.0217    0.1446 
 O                     4.6649    1.1984   -0.0233 
 C                     0.4943   -1.1671    0.021 
 H                    -0.0325   -2.1149    0.0545 
 C                     1.9629   -1.2165   -0.0211 
 H                     2.4436   -1.9631    0.6151 
 Br                    2.173    -1.9491   -1.9062 
 
 ITRead=  0  0  0  0  0  0  0  0  0  0  0  0  0  0  0
 MicOpt= -1 -1 -1 -1 -1 -1 -1 -1 -1 -1 -1 -1 -1 -1 -1
 NAtoms=     15 NQM=       15 NQMF=       0 NMMI=      0 NMMIF=      0
                NMic=       0 NMicF=      0.
                    Isotopes and Nuclear Properties:
 (Nuclear quadrupole moments (NQMom) in fm**2, nuclear magnetic moments (NMagM)
  in nuclear magnetons)

  Atom         1           2           3           4           5           6           7           8           9          10
 IAtWgt=          12          12          12          12           1           1           1          14          16          16
 AtmWgt=  12.0000000  12.0000000  12.0000000  12.0000000   1.0078250   1.0078250   1.0078250  14.0030740  15.9949146  15.9949146
 NucSpn=           0           0           0           0           1           1           1           2           0           0
 AtZEff=  -0.0000000  -0.0000000  -0.0000000  -0.0000000  -0.0000000  -0.0000000  -0.0000000  -0.0000000  -0.0000000  -0.0000000
 NQMom=    0.0000000   0.0000000   0.0000000   0.0000000   0.0000000   0.0000000   0.0000000   2.0440000   0.0000000   0.0000000
 NMagM=    0.0000000   0.0000000   0.0000000   0.0000000   2.7928460   2.7928460   2.7928460   0.4037610   0.0000000   0.0000000
 AtZNuc=   6.0000000   6.0000000   6.0000000   6.0000000   1.0000000   1.0000000   1.0000000   7.0000000   8.0000000   8.0000000

  Atom        11          12          13          14          15
 IAtWgt=          12           1          12           1          79
 AtmWgt=  12.0000000   1.0078250  12.0000000   1.0078250  78.9183361
 NucSpn=           0           1           0           1           3
 AtZEff=  -0.0000000  -0.0000000  -0.0000000  -0.0000000  -0.0000000
 NQMom=    0.0000000   0.0000000   0.0000000   0.0000000  31.3000000
 NMagM=    0.0000000   2.7928460   0.0000000   2.7928460   2.1063990
 AtZNuc=   6.0000000   1.0000000   6.0000000   1.0000000  35.0000000
 Leave Link  101 at Thu May  2 13:57:35 2024, MaxMem=   134217728 cpu:               1.8 elap:               1.8
 (Enter /software/gaussian/g16-c01/sse4/g16/l202.exe)
                          Input orientation:                          
 ---------------------------------------------------------------------
 Center     Atomic      Atomic             Coordinates (Angstroms)
 Number     Number       Type             X           Y           Z
 ---------------------------------------------------------------------
      1          6           0        0.519300    1.233000   -0.031900
      2          6           0        1.944500    1.269200   -0.036700
      3          6           0        2.620400    0.092800   -0.025000
      4          6           0       -0.196000    0.030100    0.001000
      5          1           0       -0.020700    2.174200   -0.043400
      6          1           0        2.482800    2.208900   -0.036100
      7          1           0       -1.277700    0.039900    0.011700
      8          7           0        4.092100    0.095900    0.036600
      9          8           0        4.639300   -1.021700    0.144600
     10          8           0        4.664900    1.198400   -0.023300
     11          6           0        0.494300   -1.167100    0.021000
     12          1           0       -0.032500   -2.114900    0.054500
     13          6           0        1.962900   -1.216500   -0.021100
     14          1           0        2.443600   -1.963100    0.615100
     15         35           0        2.173000   -1.949100   -1.906200
 ---------------------------------------------------------------------
                    Distance matrix (angstroms):
                    1          2          3          4          5
     1  C    0.000000
     2  C    1.425668   0.000000
     3  C    2.390549   1.356796   0.000000
     4  C    1.399895   2.473566   2.817218   0.000000
     5  H    1.085168   2.163581   3.362733   2.151712   0.000000
     6  H    2.192654   1.082960   2.120598   3.453189   2.503751
     7  H    2.157452   3.449071   3.898632   1.081797   2.477564
     8  N    3.750012   2.448304   1.472992   4.288753   4.608780
     9  O    4.699917   3.541615   2.312322   4.950458   5.653735
    10  O    4.145753   2.721354   2.324292   4.999386   4.786171
    11  C    2.400813   2.835836   2.471794   1.382101   3.381369
    12  H    3.394169   3.920329   3.452266   2.151887   4.290233
    13  C    2.843264   2.485817   1.465124   2.493060   3.928360
    14  H    3.786370   3.334922   2.160489   3.364142   4.860416
    15  Br   4.046416   3.728900   2.812194   3.628609   5.028314
                    6          7          8          9         10
     6  H    0.000000
     7  H    4.341452   0.000000
     8  N    2.657047   5.370150   0.000000
     9  O    3.888434   6.012948   1.249048   0.000000
    10  O    2.404752   6.054572   1.243863   2.226587   0.000000
    11  C    3.918516   2.144043   3.813080   4.149391   4.794941
    12  H    5.003018   2.489080   4.679774   4.798846   5.748876
    13  C    3.464662   3.475788   2.501842   2.688591   3.623886
    14  H    4.222698   4.268978   2.700314   2.434893   3.916224
    15  Br   4.569706   4.420610   3.411663   3.338935   4.434144
                   11         12         13         14         15
    11  C    0.000000
    12  H    1.084880   0.000000
    13  C    1.470034   2.189625   0.000000
    14  H    2.187771   2.543302   1.092353   0.000000
    15  Br   2.672762   2.955683   2.033334   2.535818   0.000000
 Symmetry turned off by external request.
 Stoichiometry    C6H5BrNO2(1+)
 Framework group  C1[X(C6H5BrNO2)]
 Deg. of freedom    39
 Full point group                 C1      NOp   1
 Rotational constants (GHZ):           1.1632986           0.9594224           0.5957624
 Leave Link  202 at Thu May  2 13:57:36 2024, MaxMem=   134217728 cpu:               1.3 elap:               1.3
 (Enter /software/gaussian/g16-c01/sse4/g16/l301.exe)
 Standard basis: 6-311+G(d) (5D, 7F)
 Ernie: Thresh=  0.10000D-02 Tol=  0.10000D-05 Strict=F.
 The following finite field(s) will be applied:
 An electric field of             -0.0145  0.0000  0.0000
   261 basis functions,   443 primitive gaussians,   273 cartesian basis functions
    49 alpha electrons       49 beta electrons
       nuclear repulsion energy       772.8945969580 Hartrees.
 IExCor= 4639 DFT=T Ex+Corr=wB97XD ExCW=0 ScaHFX=  1.000000
 ScaDFX=  1.000000  1.000000  1.000000  1.000000 ScalE2=  1.000000  1.000000
 IRadAn=      5 IRanWt=     -1 IRanGd=            0 ICorTp=0 IEmpDi=121
 HFx  wShort=  0.000000 wLong=  0.200000 cFull=  0.222036 cShort=  0.000000 cLong=  0.777964
 DFx  wShort=  0.000000 wLong=  0.200000 cFull=  0.000000 cShort=  0.000000 cLong=  1.000000
 NAtoms=   15 NActive=   15 NUniq=   15 SFac= 1.00D+00 NAtFMM=   60 NAOKFM=F Big=F
 Integral buffers will be    131072 words long.
 Raffenetti 2 integral format.
 Two-electron integral symmetry is turned off.
 R6Disp:  Grimme-D2 Dispersion energy=       -0.0080346408 Hartrees.
 Nuclear repulsion after empirical dispersion term =      772.8865623173 Hartrees.
 Leave Link  301 at Thu May  2 13:57:38 2024, MaxMem=   134217728 cpu:               1.3 elap:               1.3
 (Enter /software/gaussian/g16-c01/sse4/g16/l302.exe)
 NPDir=0 NMtPBC=     1 NCelOv=     1 NCel=       1 NClECP=     1 NCelD=      1
         NCelK=      1 NCelE2=     1 NClLst=     1 CellRange=     0.0.
 One-electron integrals computed using PRISM.
 NBasis=   261 RedAO= T EigKep=  2.52D-06  NBF=   261
 NBsUse=   261 1.00D-06 EigRej= -1.00D+00 NBFU=   261
 Precomputing XC quadrature grid using
 IXCGrd= 4 IRadAn=           5 IRanWt=          -1 IRanGd=           0 AccXCQ= 0.00D+00.
 Generated NRdTot=       0 NPtTot=           0 NUsed=           0 NTot=          32
 NSgBfM=   273   273   273   273   273 MxSgAt=    15 MxSgA2=    15.
 Leave Link  302 at Thu May  2 13:57:59 2024, MaxMem=   134217728 cpu:              21.6 elap:              21.6
 (Enter /software/gaussian/g16-c01/sse4/g16/l303.exe)
 DipDrv:  MaxL=1.
 The nuclear repulsion energy is now       766.6719761028 hartrees.
 Leave Link  303 at Thu May  2 13:58:03 2024, MaxMem=   134217728 cpu:               3.3 elap:               3.3
 (Enter /software/gaussian/g16-c01/sse4/g16/l401.exe)
 ExpMin= 3.50D-02 ExpMax= 4.40D+05 ExpMxC= 1.51D+04 IAcc=3 IRadAn=         5 AccDes= 0.00D+00
 Harris functional with IExCor= 4639 and IRadAn=       5 diagonalized for initial guess.
 HarFok:  IExCor= 4639 AccDes= 0.00D+00 IRadAn=         5 IDoV= 1 UseB2=F ITyADJ=14
 ICtDFT=  3500011 ScaDFX=  1.000000  1.000000  1.000000  1.000000
 FoFCou: FMM=F IPFlag=           0 FMFlag=      100000 FMFlg1=           0
         NFxFlg=           0 DoJE=T BraDBF=F KetDBF=T FulRan=T
         wScrn=  0.000000 ICntrl=       500 IOpCl=  0 I1Cent=   200000004 NGrid=           0
         NMat0=    1 NMatS0=      1 NMatT0=    0 NMatD0=    1 NMtDS0=    0 NMtDT0=    0
 Symmetry not used in FoFCou.
 Harris En= -2970.76681352409    
 JPrj=0 DoOrth=F DoCkMO=F.
 Leave Link  401 at Thu May  2 13:58:34 2024, MaxMem=   134217728 cpu:              31.2 elap:              31.2
 (Enter /software/gaussian/g16-c01/sse4/g16/l502.exe)
 Two-electron integral symmetry not used.
 Closed shell SCF:
 Using DIIS extrapolation, IDIIS=  1040.
 NGot=   134217728 LenX=   134063053 LenY=   133988083
 Requested convergence on RMS density matrix=1.00D-08 within 128 cycles.
 Requested convergence on MAX density matrix=1.00D-06.
 Requested convergence on             energy=1.00D-06.
 No special actions if energy rises.
 Fock matrices will be formed incrementally for  20 cycles.

 Cycle   1  Pass 1  IDiag  1:
 FoFJK:  IHMeth= 1 ICntrl=       0 DoSepK=T KAlg= 0 I1Cent=           0 FoldK=F
 IRaf=         1 NMat=       1 IRICut=       1 DoRegI=T DoRafI=F ISym2E= 0 IDoP0=0 IntGTp=1.
 FoFCou: FMM=F IPFlag=           0 FMFlag=      100000 FMFlg1=           0
         NFxFlg=           0 DoJE=T BraDBF=F KetDBF=F FulRan=T
         wScrn=  0.000000 ICntrl=       500 IOpCl=  0 I1Cent=           0 NGrid=           0
         NMat0=    1 NMatS0=      1 NMatT0=    0 NMatD0=    1 NMtDS0=    0 NMtDT0=    0
 Symmetry not used in FoFCou.
 E= -3005.65373970317    
 DIIS: error= 2.90D-01 at cycle   1 NSaved=   1.
 NSaved= 1 IEnMin= 1 EnMin= -3005.65373970317     IErMin= 1 ErrMin= 2.90D-01
 ErrMax= 2.90D-01  0.00D+00 EMaxC= 1.00D-01 BMatC= 1.35D+01 BMatP= 1.35D+01
 IDIUse=3 WtCom= 0.00D+00 WtEn= 1.00D+00
 Coeff-Com:  0.100D+01
 Coeff-En:   0.100D+01
 Coeff:      0.100D+01
 Gap=    -0.157 Goal=   None    Shift=    0.000
 GapD=   -0.157 DampG=0.250 DampE=0.250 DampFc=0.2500 IDamp=-1.
 Damping current iteration by 2.50D-01
 RMSDP=5.25D+00 MaxDP=3.14D+02              OVMax= 9.91D-01

 Cycle   2  Pass 1  IDiag  1:
 RMSU=  1.63D-01    CP:  7.59D-01
 E= -3006.36315361280     Delta-E=       -0.709413909628 Rises=F Damp=T
 DIIS: error= 2.18D-01 at cycle   2 NSaved=   2.
 NSaved= 2 IEnMin= 2 EnMin= -3006.36315361280     IErMin= 2 ErrMin= 2.18D-01
 ErrMax= 2.18D-01  0.00D+00 EMaxC= 1.00D-01 BMatC= 5.63D+00 BMatP= 1.35D+01
 IDIUse=3 WtCom= 0.00D+00 WtEn= 1.00D+00
 Coeff-Com: -0.593D+00 0.159D+01
 Coeff-En:   0.411D+00 0.589D+00
 Coeff:      0.411D+00 0.589D+00
 Gap=     0.562 Goal=   None    Shift=    0.000
 RMSDP=4.08D+00 MaxDP=2.41D+02 DE=-7.09D-01 OVMax= 9.37D-01

 Cycle   3  Pass 1  IDiag  1:
 RMSU=  6.51D-02    CP:  5.11D-03  5.99D-01
 E= -3007.62571320547     Delta-E=       -1.262559592675 Rises=F Damp=F
 DIIS: error= 8.87D-02 at cycle   3 NSaved=   3.
 NSaved= 3 IEnMin= 3 EnMin= -3007.62571320547     IErMin= 3 ErrMin= 8.87D-02
 ErrMax= 8.87D-02  0.00D+00 EMaxC= 1.00D-01 BMatC= 3.52D+00 BMatP= 5.63D+00
 IDIUse=3 WtCom= 1.13D-01 WtEn= 8.87D-01
 EnCoef did   100 forward-backward iterations
 Coeff-Com:  0.303D+00-0.854D-02 0.706D+00
 Coeff-En:   0.401D+00 0.434D-02 0.594D+00
 Coeff:      0.390D+00 0.288D-02 0.607D+00
 Gap=     0.150 Goal=   None    Shift=    0.000
 RMSDP=5.31D-02 MaxDP=4.99D+00 DE=-1.26D+00 OVMax= 9.34D-01

 Cycle   4  Pass 1  IDiag  1:
 RMSU=  3.50D-02    CP:  8.88D-03  5.10D-01  5.25D-01
 E= -3009.44275508374     Delta-E=       -1.817041878272 Rises=F Damp=F
 DIIS: error= 7.25D-02 at cycle   4 NSaved=   4.
 NSaved= 4 IEnMin= 4 EnMin= -3009.44275508374     IErMin= 4 ErrMin= 7.25D-02
 ErrMax= 7.25D-02  0.00D+00 EMaxC= 1.00D-01 BMatC= 8.29D-01 BMatP= 3.52D+00
 IDIUse=3 WtCom= 2.75D-01 WtEn= 7.25D-01
 Coeff-Com:  0.273D-01 0.954D-01 0.279D+00 0.598D+00
 Coeff-En:   0.000D+00 0.000D+00 0.308D+00 0.692D+00
 Coeff:      0.752D-02 0.263D-01 0.300D+00 0.666D+00
 Gap=     0.142 Goal=   None    Shift=    0.000
 RMSDP=4.62D-02 MaxDP=4.03D+00 DE=-1.82D+00 OVMax= 8.80D-01

 Cycle   5  Pass 1  IDiag  1:
 RMSU=  2.12D-02    CP:  4.73D-03  3.94D-01  7.20D-01  2.66D-01
 E= -3010.16133149691     Delta-E=       -0.718576413163 Rises=F Damp=F
 DIIS: error= 6.63D-02 at cycle   5 NSaved=   5.
 NSaved= 5 IEnMin= 5 EnMin= -3010.16133149691     IErMin= 5 ErrMin= 6.63D-02
 ErrMax= 6.63D-02  0.00D+00 EMaxC= 1.00D-01 BMatC= 5.65D-01 BMatP= 8.29D-01
 IDIUse=3 WtCom= 3.37D-01 WtEn= 6.63D-01
 Coeff-Com: -0.660D-01 0.937D-01 0.434D-01 0.454D+00 0.474D+00
 Coeff-En:   0.000D+00 0.000D+00 0.000D+00 0.288D+00 0.712D+00
 Coeff:     -0.222D-01 0.316D-01 0.146D-01 0.344D+00 0.632D+00
 Gap=     0.181 Goal=   None    Shift=    0.000
 RMSDP=2.01D-02 MaxDP=1.92D+00 DE=-7.19D-01 OVMax= 1.91D-01

 Cycle   6  Pass 1  IDiag  1:
 RMSU=  1.33D-02    CP:  6.17D-03  4.51D-01  6.59D-01  4.92D-01  9.63D-01
 E= -3010.50242296152     Delta-E=       -0.341091464607 Rises=F Damp=F
 DIIS: error= 2.28D-02 at cycle   6 NSaved=   6.
 NSaved= 6 IEnMin= 6 EnMin= -3010.50242296152     IErMin= 6 ErrMin= 2.28D-02
 ErrMax= 2.28D-02  0.00D+00 EMaxC= 1.00D-01 BMatC= 7.17D-02 BMatP= 5.65D-01
 IDIUse=3 WtCom= 7.72D-01 WtEn= 2.28D-01
 Coeff-Com:  0.550D-02-0.109D-01-0.672D-02 0.177D+00 0.295D+00 0.540D+00
 Coeff-En:   0.000D+00 0.000D+00 0.000D+00 0.000D+00 0.000D+00 0.100D+01
 Coeff:      0.425D-02-0.838D-02-0.519D-02 0.136D+00 0.228D+00 0.645D+00
 Gap=     0.199 Goal=   None    Shift=    0.000
 RMSDP=1.64D-02 MaxDP=1.88D+00 DE=-3.41D-01 OVMax= 1.19D-01

 Cycle   7  Pass 1  IDiag  1:
 RMSU=  6.13D-03    CP:  6.11D-03  3.80D-01  5.40D-01  5.89D-01  8.72D-01
                    CP:  6.77D-01
 E= -3010.52541468873     Delta-E=       -0.022991727219 Rises=F Damp=F
 DIIS: error= 2.28D-02 at cycle   7 NSaved=   7.
 NSaved= 7 IEnMin= 7 EnMin= -3010.52541468873     IErMin= 6 ErrMin= 2.28D-02
 ErrMax= 2.28D-02  0.00D+00 EMaxC= 1.00D-01 BMatC= 4.18D-02 BMatP= 7.17D-02
 IDIUse=3 WtCom= 7.72D-01 WtEn= 2.28D-01
 Coeff-Com:  0.197D-01-0.255D-01-0.199D-01 0.396D-01 0.631D-01 0.462D+00
 Coeff-Com:  0.461D+00
 Coeff-En:   0.000D+00 0.000D+00 0.000D+00 0.000D+00 0.000D+00 0.357D+00
 Coeff-En:   0.643D+00
 Coeff:      0.152D-01-0.197D-01-0.154D-01 0.306D-01 0.487D-01 0.438D+00
 Coeff:      0.502D+00
 Gap=     0.213 Goal=   None    Shift=    0.000
 RMSDP=7.32D-03 MaxDP=8.89D-01 DE=-2.30D-02 OVMax= 9.41D-02

 Cycle   8  Pass 1  IDiag  1:
 RMSU=  2.27D-03    CP:  6.63D-03  4.09D-01  5.11D-01  6.51D-01  8.56D-01
                    CP:  8.93D-01  8.69D-01
 E= -3010.55491984641     Delta-E=       -0.029505157678 Rises=F Damp=F
 DIIS: error= 7.18D-03 at cycle   8 NSaved=   8.
 NSaved= 8 IEnMin= 8 EnMin= -3010.55491984641     IErMin= 8 ErrMin= 7.18D-03
 ErrMax= 7.18D-03  0.00D+00 EMaxC= 1.00D-01 BMatC= 3.66D-03 BMatP= 4.18D-02
 IDIUse=3 WtCom= 9.28D-01 WtEn= 7.18D-02
 Coeff-Com:  0.505D-02-0.590D-02-0.504D-02 0.186D-02-0.424D-01 0.155D-01
 Coeff-Com:  0.273D+00 0.758D+00
 Coeff-En:   0.000D+00 0.000D+00 0.000D+00 0.000D+00 0.000D+00 0.000D+00
 Coeff-En:   0.000D+00 0.100D+01
 Coeff:      0.469D-02-0.548D-02-0.468D-02 0.172D-02-0.394D-01 0.143D-01
 Coeff:      0.253D+00 0.775D+00
 Gap=     0.211 Goal=   None    Shift=    0.000
 RMSDP=2.16D-03 MaxDP=1.90D-01 DE=-2.95D-02 OVMax= 2.92D-02

 Cycle   9  Pass 1  IDiag  1:
 RMSU=  1.09D-03    CP:  6.79D-03  4.08D-01  5.02D-01  6.85D-01  8.54D-01
                    CP:  8.84D-01  1.02D+00  9.06D-01
 E= -3010.55862314461     Delta-E=       -0.003703298198 Rises=F Damp=F
 DIIS: error= 1.33D-03 at cycle   9 NSaved=   9.
 NSaved= 9 IEnMin= 9 EnMin= -3010.55862314461     IErMin= 9 ErrMin= 1.33D-03
 ErrMax= 1.33D-03  0.00D+00 EMaxC= 1.00D-01 BMatC= 4.27D-04 BMatP= 3.66D-03
 IDIUse=3 WtCom= 9.87D-01 WtEn= 1.33D-02
 Coeff-Com:  0.103D-02-0.136D-02 0.342D-02-0.687D-03-0.272D-01-0.657D-01
 Coeff-Com:  0.388D-01 0.385D+00 0.666D+00
 Coeff-En:   0.000D+00 0.000D+00 0.000D+00 0.000D+00 0.000D+00 0.000D+00
 Coeff-En:   0.000D+00 0.000D+00 0.100D+01
 Coeff:      0.102D-02-0.134D-02 0.337D-02-0.677D-03-0.268D-01-0.648D-01
 Coeff:      0.382D-01 0.380D+00 0.671D+00
 Gap=     0.209 Goal=   None    Shift=    0.000
 RMSDP=7.17D-04 MaxDP=5.61D-02 DE=-3.70D-03 OVMax= 1.47D-02

 Cycle  10  Pass 1  IDiag  1:
 RMSU=  3.33D-04    CP:  6.84D-03  4.07D-01  4.98D-01  6.93D-01  8.44D-01
                    CP:  8.87D-01  1.07D+00  9.20D-01  1.16D+00
 E= -3010.55926743163     Delta-E=       -0.000644287022 Rises=F Damp=F
 DIIS: error= 3.34D-04 at cycle  10 NSaved=  10.
 NSaved=10 IEnMin=10 EnMin= -3010.55926743163     IErMin=10 ErrMin= 3.34D-04
 ErrMax= 3.34D-04  0.00D+00 EMaxC= 1.00D-01 BMatC= 2.76D-05 BMatP= 4.27D-04
 IDIUse=3 WtCom= 9.97D-01 WtEn= 3.34D-03
 Coeff-Com: -0.131D-02 0.197D-02 0.830D-03 0.404D-03-0.698D-03-0.863D-02
 Coeff-Com: -0.121D-01-0.100D-01 0.973D-01 0.932D+00
 Coeff-En:   0.000D+00 0.000D+00 0.000D+00 0.000D+00 0.000D+00 0.000D+00
 Coeff-En:   0.000D+00 0.000D+00 0.000D+00 0.100D+01
 Coeff:     -0.130D-02 0.197D-02 0.827D-03 0.403D-03-0.696D-03-0.861D-02
 Coeff:     -0.120D-01-0.100D-01 0.970D-01 0.932D+00
 Gap=     0.210 Goal=   None    Shift=    0.000
 RMSDP=4.41D-04 MaxDP=4.09D-02 DE=-6.44D-04 OVMax= 1.24D-02

 Cycle  11  Pass 1  IDiag  1:
 RMSU=  1.57D-04    CP:  6.83D-03  4.06D-01  5.00D-01  6.91D-01  8.41D-01
                    CP:  8.80D-01  1.08D+00  8.59D-01  1.30D+00  1.63D+00
 E= -3010.55945626654     Delta-E=       -0.000188834907 Rises=F Damp=F
 DIIS: error= 1.82D-04 at cycle  11 NSaved=  11.
 NSaved=11 IEnMin=11 EnMin= -3010.55945626654     IErMin=11 ErrMin= 1.82D-04
 ErrMax= 1.82D-04  0.00D+00 EMaxC= 1.00D-01 BMatC= 1.26D-05 BMatP= 2.76D-05
 IDIUse=3 WtCom= 9.98D-01 WtEn= 1.82D-03
 Coeff-Com: -0.135D-02 0.192D-02-0.111D-02 0.469D-03 0.451D-02 0.146D-01
 Coeff-Com:  0.117D-02-0.457D-01-0.121D+00-0.149D+00 0.129D+01
 Coeff-En:   0.000D+00 0.000D+00 0.000D+00 0.000D+00 0.000D+00 0.000D+00
 Coeff-En:   0.000D+00 0.000D+00 0.000D+00 0.000D+00 0.100D+01
 Coeff:     -0.135D-02 0.191D-02-0.111D-02 0.468D-03 0.450D-02 0.146D-01
 Coeff:      0.117D-02-0.456D-01-0.120D+00-0.149D+00 0.129D+01
 Gap=     0.211 Goal=   None    Shift=    0.000
 RMSDP=4.91D-04 MaxDP=4.36D-02 DE=-1.89D-04 OVMax= 1.22D-02

 Cycle  12  Pass 1  IDiag  1:
 RMSU=  6.38D-05    CP:  6.81D-03  4.05D-01  5.04D-01  6.87D-01  8.41D-01
                    CP:  8.73D-01  1.08D+00  7.95D-01  1.44D+00  2.32D+00
                    CP:  1.91D+00
 E= -3010.55956621798     Delta-E=       -0.000109951440 Rises=F Damp=F
 DIIS: error= 9.64D-05 at cycle  12 NSaved=  12.
 NSaved=12 IEnMin=12 EnMin= -3010.55956621798     IErMin=12 ErrMin= 9.64D-05
 ErrMax= 9.64D-05  0.00D+00 EMaxC= 1.00D-01 BMatC= 3.00D-06 BMatP= 1.26D-05
 IDIUse=1 WtCom= 1.00D+00 WtEn= 0.00D+00
 Coeff-Com:  0.578D-04-0.109D-03-0.172D-03-0.297D-03-0.549D-04 0.490D-02
 Coeff-Com:  0.415D-02 0.143D-02-0.406D-01-0.337D+00 0.175D+00 0.119D+01
 Coeff:      0.578D-04-0.109D-03-0.172D-03-0.297D-03-0.549D-04 0.490D-02
 Coeff:      0.415D-02 0.143D-02-0.406D-01-0.337D+00 0.175D+00 0.119D+01
 Gap=     0.212 Goal=   None    Shift=    0.000
 RMSDP=3.25D-04 MaxDP=3.36D-02 DE=-1.10D-04 OVMax= 9.32D-03

 Cycle  13  Pass 1  IDiag  1:
 RMSU=  4.04D-05    CP:  6.80D-03  4.04D-01  5.05D-01  6.85D-01  8.39D-01
                    CP:  8.66D-01  1.09D+00  7.65D-01  1.52D+00  2.78D+00
                    CP:  2.59D+00  1.68D+00
 E= -3010.55960523546     Delta-E=       -0.000039017478 Rises=F Damp=F
 DIIS: error= 7.21D-05 at cycle  13 NSaved=  13.
 NSaved=13 IEnMin=13 EnMin= -3010.55960523546     IErMin=13 ErrMin= 7.21D-05
 ErrMax= 7.21D-05  0.00D+00 EMaxC= 1.00D-01 BMatC= 5.24D-07 BMatP= 3.00D-06
 IDIUse=1 WtCom= 1.00D+00 WtEn= 0.00D+00
 Coeff-Com:  0.197D-03-0.286D-03 0.268D-04-0.224D-03-0.302D-03 0.347D-05
 Coeff-Com:  0.109D-02 0.159D-02 0.106D-03-0.590D-01-0.100D+00 0.233D+00
 Coeff-Com:  0.924D+00
 Coeff:      0.197D-03-0.286D-03 0.268D-04-0.224D-03-0.302D-03 0.347D-05
 Coeff:      0.109D-02 0.159D-02 0.106D-03-0.590D-01-0.100D+00 0.233D+00
 Coeff:      0.924D+00
 Gap=     0.212 Goal=   None    Shift=    0.000
 RMSDP=9.51D-05 MaxDP=8.12D-03 DE=-3.90D-05 OVMax= 3.06D-03

 Cycle  14  Pass 1  IDiag  1:
 RMSU=  1.48D-05    CP:  6.80D-03  4.04D-01  5.06D-01  6.84D-01  8.38D-01
                    CP:  8.66D-01  1.09D+00  7.54D-01  1.56D+00  2.92D+00
                    CP:  2.76D+00  2.09D+00  1.27D+00
 E= -3010.55961063494     Delta-E=       -0.000005399483 Rises=F Damp=F
 DIIS: error= 4.14D-05 at cycle  14 NSaved=  14.
 NSaved=14 IEnMin=14 EnMin= -3010.55961063494     IErMin=14 ErrMin= 4.14D-05
 ErrMax= 4.14D-05  0.00D+00 EMaxC= 1.00D-01 BMatC= 1.89D-07 BMatP= 5.24D-07
 IDIUse=1 WtCom= 1.00D+00 WtEn= 0.00D+00
 Coeff-Com:  0.560D-04-0.864D-04-0.339D-04-0.811D-04 0.277D-03-0.421D-03
 Coeff-Com: -0.767D-03-0.490D-02 0.202D-02 0.735D-01-0.208D-01-0.304D+00
 Coeff-Com:  0.187D+00 0.107D+01
 Coeff:      0.560D-04-0.864D-04-0.339D-04-0.811D-04 0.277D-03-0.421D-03
 Coeff:     -0.767D-03-0.490D-02 0.202D-02 0.735D-01-0.208D-01-0.304D+00
 Coeff:      0.187D+00 0.107D+01
 Gap=     0.212 Goal=   None    Shift=    0.000
 RMSDP=5.52D-05 MaxDP=3.82D-03 DE=-5.40D-06 OVMax= 1.89D-03

 Cycle  15  Pass 1  IDiag  1:
 RMSU=  1.00D-05    CP:  6.80D-03  4.04D-01  5.06D-01  6.85D-01  8.38D-01
                    CP:  8.65D-01  1.10D+00  7.52D-01  1.58D+00  3.00D+00
                    CP:  2.82D+00  2.30D+00  1.62D+00  1.48D+00
 E= -3010.55961233695     Delta-E=       -0.000001702009 Rises=F Damp=F
 DIIS: error= 1.51D-05 at cycle  15 NSaved=  15.
 NSaved=15 IEnMin=15 EnMin= -3010.55961233695     IErMin=15 ErrMin= 1.51D-05
 ErrMax= 1.51D-05  0.00D+00 EMaxC= 1.00D-01 BMatC= 3.99D-08 BMatP= 1.89D-07
 IDIUse=1 WtCom= 1.00D+00 WtEn= 0.00D+00
 Coeff-Com:  0.256D-05-0.249D-05-0.453D-04 0.100D-04 0.225D-03 0.751D-04
 Coeff-Com: -0.412D-03-0.215D-02-0.236D-02 0.195D-01 0.359D-01-0.126D+00
 Coeff-Com: -0.193D+00 0.231D+00 0.104D+01
 Coeff:      0.256D-05-0.249D-05-0.453D-04 0.100D-04 0.225D-03 0.751D-04
 Coeff:     -0.412D-03-0.215D-02-0.236D-02 0.195D-01 0.359D-01-0.126D+00
 Coeff:     -0.193D+00 0.231D+00 0.104D+01
 Gap=     0.212 Goal=   None    Shift=    0.000
 RMSDP=2.82D-05 MaxDP=2.03D-03 DE=-1.70D-06 OVMax= 1.03D-03

 Cycle  16  Pass 1  IDiag  1:
 RMSU=  1.42D-05    CP:  6.80D-03  4.04D-01  5.06D-01  6.85D-01  8.37D-01
                    CP:  8.64D-01  1.10D+00  7.49D-01  1.60D+00  3.00D+00
                    CP:  2.85D+00  2.38D+00  1.79D+00  1.76D+00  1.31D+00
 E= -3010.55961268387     Delta-E=       -0.000000346918 Rises=F Damp=F
 DIIS: error= 6.31D-06 at cycle  16 NSaved=  16.
 NSaved=16 IEnMin=16 EnMin= -3010.55961268387     IErMin=16 ErrMin= 6.31D-06
 ErrMax= 6.31D-06  0.00D+00 EMaxC= 1.00D-01 BMatC= 9.48D-09 BMatP= 3.99D-08
 IDIUse=1 WtCom= 1.00D+00 WtEn= 0.00D+00
 Coeff-Com:  0.173D-05-0.257D-05-0.399D-05 0.833D-05 0.104D-04 0.830D-04
 Coeff-Com: -0.658D-04-0.827D-04-0.911D-03-0.144D-02 0.202D-01 0.154D-02
 Coeff-Com: -0.956D-01-0.119D+00 0.337D+00 0.858D+00
 Coeff:      0.173D-05-0.257D-05-0.399D-05 0.833D-05 0.104D-04 0.830D-04
 Coeff:     -0.658D-04-0.827D-04-0.911D-03-0.144D-02 0.202D-01 0.154D-02
 Coeff:     -0.956D-01-0.119D+00 0.337D+00 0.858D+00
 Gap=     0.212 Goal=   None    Shift=    0.000
 RMSDP=7.98D-06 MaxDP=7.30D-04 DE=-3.47D-07 OVMax= 1.81D-04

 Cycle  17  Pass 1  IDiag  1:
 RMSU=  2.00D-06    CP:  6.80D-03  4.04D-01  5.06D-01  6.85D-01  8.37D-01
                    CP:  8.64D-01  1.10D+00  7.50D-01  1.60D+00  3.00D+00
                    CP:  2.85D+00  2.37D+00  1.84D+00  1.80D+00  1.53D+00
                    CP:  1.10D+00
 E= -3010.55961272258     Delta-E=       -0.000000038714 Rises=F Damp=F
 DIIS: error= 2.65D-06 at cycle  17 NSaved=  17.
 NSaved=17 IEnMin=17 EnMin= -3010.55961272258     IErMin=17 ErrMin= 2.65D-06
 ErrMax= 2.65D-06  0.00D+00 EMaxC= 1.00D-01 BMatC= 1.42D-09 BMatP= 9.48D-09
 IDIUse=1 WtCom= 1.00D+00 WtEn= 0.00D+00
 Coeff-Com: -0.279D-06 0.455D-06 0.745D-05 0.201D-05-0.355D-04 0.206D-04
 Coeff-Com:  0.519D-04 0.188D-03-0.205D-03-0.590D-02 0.874D-04 0.266D-01
 Coeff-Com:  0.206D-01-0.841D-01-0.133D+00 0.222D+00 0.953D+00
 Coeff:     -0.279D-06 0.455D-06 0.745D-05 0.201D-05-0.355D-04 0.206D-04
 Coeff:      0.519D-04 0.188D-03-0.205D-03-0.590D-02 0.874D-04 0.266D-01
 Coeff:      0.206D-01-0.841D-01-0.133D+00 0.222D+00 0.953D+00
 Gap=     0.212 Goal=   None    Shift=    0.000
 RMSDP=2.62D-06 MaxDP=1.86D-04 DE=-3.87D-08 OVMax= 9.16D-05

 Cycle  18  Pass 1  IDiag  1:
 RMSU=  1.06D-06    CP:  6.80D-03  4.04D-01  5.06D-01  6.85D-01  8.37D-01
                    CP:  8.64D-01  1.10D+00  7.50D-01  1.60D+00  3.00D+00
                    CP:  2.86D+00  2.37D+00  1.84D+00  1.82D+00  1.60D+00
                    CP:  1.12D+00  1.65D+00
 E= -3010.55961273152     Delta-E=       -0.000000008938 Rises=F Damp=F
 DIIS: error= 1.15D-06 at cycle  18 NSaved=  18.
 NSaved=18 IEnMin=18 EnMin= -3010.55961273152     IErMin=18 ErrMin= 1.15D-06
 ErrMax= 1.15D-06  0.00D+00 EMaxC= 1.00D-01 BMatC= 2.86D-10 BMatP= 1.42D-09
 IDIUse=1 WtCom= 1.00D+00 WtEn= 0.00D+00
 Coeff-Com: -0.132D-06 0.386D-06 0.162D-05-0.188D-05-0.136D-04-0.169D-05
 Coeff-Com:  0.585D-04 0.116D-03 0.187D-03-0.152D-02-0.386D-02 0.633D-02
 Coeff-Com:  0.235D-01-0.584D-03-0.945D-01-0.949D-01 0.233D+00 0.933D+00
 Coeff:     -0.132D-06 0.386D-06 0.162D-05-0.188D-05-0.136D-04-0.169D-05
 Coeff:      0.585D-04 0.116D-03 0.187D-03-0.152D-02-0.386D-02 0.633D-02
 Coeff:      0.235D-01-0.584D-03-0.945D-01-0.949D-01 0.233D+00 0.933D+00
 Gap=     0.212 Goal=   None    Shift=    0.000
 RMSDP=2.40D-06 MaxDP=2.82D-04 DE=-8.94D-09 OVMax= 3.72D-05

 Cycle  19  Pass 1  IDiag  1:
 RMSU=  4.58D-07    CP:  6.80D-03  4.04D-01  5.06D-01  6.85D-01  8.37D-01
                    CP:  8.64D-01  1.10D+00  7.50D-01  1.60D+00  3.00D+00
                    CP:  2.86D+00  2.36D+00  1.85D+00  1.81D+00  1.62D+00
                    CP:  1.13D+00  2.00D+00  1.21D+00
 E= -3010.55961273352     Delta-E=       -0.000000001999 Rises=F Damp=F
 DIIS: error= 4.88D-07 at cycle  19 NSaved=  19.
 NSaved=19 IEnMin=19 EnMin= -3010.55961273352     IErMin=19 ErrMin= 4.88D-07
 ErrMax= 4.88D-07  0.00D+00 EMaxC= 1.00D-01 BMatC= 9.19D-11 BMatP= 2.86D-10
 IDIUse=1 WtCom= 1.00D+00 WtEn= 0.00D+00
 Coeff-Com:  0.446D-07-0.653D-07-0.129D-06-0.103D-05 0.173D-05-0.472D-05
 Coeff-Com:  0.152D-04 0.484D-04 0.181D-03 0.712D-03-0.165D-02-0.248D-02
 Coeff-Com:  0.545D-02 0.157D-01-0.124D-01-0.827D-01-0.151D+00 0.331D+00
 Coeff-Com:  0.897D+00
 Coeff:      0.446D-07-0.653D-07-0.129D-06-0.103D-05 0.173D-05-0.472D-05
 Coeff:      0.152D-04 0.484D-04 0.181D-03 0.712D-03-0.165D-02-0.248D-02
 Coeff:      0.545D-02 0.157D-01-0.124D-01-0.827D-01-0.151D+00 0.331D+00
 Coeff:      0.897D+00
 Gap=     0.212 Goal=   None    Shift=    0.000
 RMSDP=1.14D-06 MaxDP=1.24D-04 DE=-2.00D-09 OVMax= 2.69D-05

 Cycle  20  Pass 1  IDiag  1:
 RMSU=  1.54D-07    CP:  6.80D-03  4.04D-01  5.06D-01  6.85D-01  8.37D-01
                    CP:  8.64D-01  1.10D+00  7.50D-01  1.60D+00  3.00D+00
                    CP:  2.86D+00  2.36D+00  1.85D+00  1.82D+00  1.62D+00
                    CP:  1.12D+00  2.21D+00  1.45D+00  1.42D+00
 E= -3010.55961273406     Delta-E=       -0.000000000544 Rises=F Damp=F
 DIIS: error= 1.79D-07 at cycle  20 NSaved=  20.
 NSaved=20 IEnMin=20 EnMin= -3010.55961273406     IErMin=20 ErrMin= 1.79D-07
 ErrMax= 1.79D-07  0.00D+00 EMaxC= 1.00D-01 BMatC= 1.60D-11 BMatP= 9.19D-11
 IDIUse=1 WtCom= 1.00D+00 WtEn= 0.00D+00
 Coeff-Com:  0.247D-06-0.461D-06-0.504D-06-0.654D-06 0.301D-05-0.245D-05
 Coeff-Com: -0.121D-04-0.134D-04-0.751D-06 0.489D-03 0.431D-03-0.221D-02
 Coeff-Com: -0.312D-02 0.410D-02 0.148D-01 0.155D-02-0.829D-01-0.107D+00
 Coeff-Com:  0.273D+00 0.901D+00
 Coeff:      0.247D-06-0.461D-06-0.504D-06-0.654D-06 0.301D-05-0.245D-05
 Coeff:     -0.121D-04-0.134D-04-0.751D-06 0.489D-03 0.431D-03-0.221D-02
 Coeff:     -0.312D-02 0.410D-02 0.148D-01 0.155D-02-0.829D-01-0.107D+00
 Coeff:      0.273D+00 0.901D+00
 Gap=     0.212 Goal=   None    Shift=    0.000
 RMSDP=3.93D-07 MaxDP=3.65D-05 DE=-5.44D-10 OVMax= 8.95D-06

 Cycle  21  Pass 1  IDiag  1:
 Restarting incremental Fock formation.
 E= -3010.55961273410     Delta-E=       -0.000000000042 Rises=F Damp=F
 DIIS: error= 8.72D-08 at cycle  21 NSaved=  20.
 NSaved=20 IEnMin=20 EnMin= -3010.55961273410     IErMin=20 ErrMin= 8.72D-08
 ErrMax= 8.72D-08  0.00D+00 EMaxC= 1.00D-01 BMatC= 2.48D-12 BMatP= 1.60D-11
 IDIUse=1 WtCom= 1.00D+00 WtEn= 0.00D+00
 Coeff-Com: -0.250D-07-0.248D-06-0.163D-06 0.441D-06 0.571D-06-0.562D-05
 Coeff-Com: -0.180D-04-0.551D-04-0.314D-04 0.531D-03-0.975D-04-0.131D-02
 Coeff-Com: -0.205D-02 0.411D-02 0.126D-01 0.109D-01-0.854D-01-0.933D-01
 Coeff-Com:  0.110D+00 0.104D+01
 Coeff:     -0.250D-07-0.248D-06-0.163D-06 0.441D-06 0.571D-06-0.562D-05
 Coeff:     -0.180D-04-0.551D-04-0.314D-04 0.531D-03-0.975D-04-0.131D-02
 Coeff:     -0.205D-02 0.411D-02 0.126D-01 0.109D-01-0.854D-01-0.933D-01
 Coeff:      0.110D+00 0.104D+01
 Gap=     0.212 Goal=   None    Shift=    0.000
 RMSDP=2.22D-07 MaxDP=1.82D-05 DE=-4.18D-11 OVMax= 4.61D-06

 Cycle  22  Pass 1  IDiag  1:
 RMSU=  1.88D-07    CP:  1.00D+00
 E= -3010.55961273419     Delta-E=       -0.000000000083 Rises=F Damp=F
 DIIS: error= 4.01D-08 at cycle  22 NSaved=  20.
 NSaved=20 IEnMin=20 EnMin= -3010.55961273419     IErMin=20 ErrMin= 4.01D-08
 ErrMax= 4.01D-08  0.00D+00 EMaxC= 1.00D-01 BMatC= 4.21D-13 BMatP= 2.48D-12
 IDIUse=1 WtCom= 1.00D+00 WtEn= 0.00D+00
 Coeff-Com: -0.921D-08 0.287D-07-0.420D-07 0.110D-05 0.413D-06-0.422D-05
 Coeff-Com: -0.184D-04-0.529D-04 0.620D-04 0.167D-03 0.138D-03-0.784D-03
 Coeff-Com: -0.708D-03 0.165D-02 0.132D-01-0.104D-02-0.455D-01-0.126D+00
 Coeff-Com:  0.212D+00 0.947D+00
 Coeff:     -0.921D-08 0.287D-07-0.420D-07 0.110D-05 0.413D-06-0.422D-05
 Coeff:     -0.184D-04-0.529D-04 0.620D-04 0.167D-03 0.138D-03-0.784D-03
 Coeff:     -0.708D-03 0.165D-02 0.132D-01-0.104D-02-0.455D-01-0.126D+00
 Coeff:      0.212D+00 0.947D+00
 Gap=     0.212 Goal=   None    Shift=    0.000
 RMSDP=6.20D-08 MaxDP=5.97D-06 DE=-8.28D-11 OVMax= 1.62D-06

 Cycle  23  Pass 1  IDiag  1:
 RMSU=  2.72D-08    CP:  1.00D+00  1.18D+00
 E= -3010.55961273416     Delta-E=        0.000000000026 Rises=F Damp=F
 DIIS: error= 2.71D-08 at cycle  23 NSaved=  20.
 NSaved=20 IEnMin=19 EnMin= -3010.55961273419     IErMin=20 ErrMin= 2.71D-08
 ErrMax= 2.71D-08  0.00D+00 EMaxC= 1.00D-01 BMatC= 1.02D-13 BMatP= 4.21D-13
 IDIUse=1 WtCom= 1.00D+00 WtEn= 0.00D+00
 Coeff-Com: -0.445D-07 0.576D-07 0.708D-06 0.777D-06 0.134D-05 0.509D-06
 Coeff-Com: -0.129D-04-0.512D-04 0.544D-04 0.224D-03 0.220D-03-0.843D-03
 Coeff-Com: -0.206D-02 0.183D-02 0.141D-01 0.368D-02-0.609D-01-0.118D+00
 Coeff-Com:  0.304D+00 0.857D+00
 Coeff:     -0.445D-07 0.576D-07 0.708D-06 0.777D-06 0.134D-05 0.509D-06
 Coeff:     -0.129D-04-0.512D-04 0.544D-04 0.224D-03 0.220D-03-0.843D-03
 Coeff:     -0.206D-02 0.183D-02 0.141D-01 0.368D-02-0.609D-01-0.118D+00
 Coeff:      0.304D+00 0.857D+00
 Gap=     0.212 Goal=   None    Shift=    0.000
 RMSDP=2.42D-08 MaxDP=2.13D-06 DE= 2.64D-11 OVMax= 7.56D-07

 Cycle  24  Pass 1  IDiag  1:
 RMSU=  1.10D-08    CP:  1.00D+00  1.22D+00  1.59D+00
 E= -3010.55961273416     Delta-E=        0.000000000005 Rises=F Damp=F
 DIIS: error= 1.20D-08 at cycle  24 NSaved=  20.
 NSaved=20 IEnMin=18 EnMin= -3010.55961273419     IErMin=20 ErrMin= 1.20D-08
 ErrMax= 1.20D-08  0.00D+00 EMaxC= 1.00D-01 BMatC= 1.74D-14 BMatP= 1.02D-13
 IDIUse=1 WtCom= 1.00D+00 WtEn= 0.00D+00
 Coeff-Com:  0.134D-06 0.718D-07-0.240D-06 0.933D-06 0.199D-05 0.370D-05
 Coeff-Com: -0.992D-05-0.232D-04-0.262D-04 0.154D-03 0.529D-04-0.494D-03
 Coeff-Com: -0.131D-02 0.172D-02 0.542D-02 0.139D-01-0.453D-01-0.117D+00
 Coeff-Com:  0.770D-01 0.107D+01
 Coeff:      0.134D-06 0.718D-07-0.240D-06 0.933D-06 0.199D-05 0.370D-05
 Coeff:     -0.992D-05-0.232D-04-0.262D-04 0.154D-03 0.529D-04-0.494D-03
 Coeff:     -0.131D-02 0.172D-02 0.542D-02 0.139D-01-0.453D-01-0.117D+00
 Coeff:      0.770D-01 0.107D+01
 Gap=     0.212 Goal=   None    Shift=    0.000
 RMSDP=1.32D-08 MaxDP=1.22D-06 DE= 5.46D-12 OVMax= 4.67D-07

 Cycle  25  Pass 1  IDiag  1:
 RMSU=  8.35D-09    CP:  1.00D+00  1.21D+00  1.90D+00  1.19D+00
 E= -3010.55961273421     Delta-E=       -0.000000000055 Rises=F Damp=F
 DIIS: error= 5.28D-09 at cycle  25 NSaved=  20.
 NSaved=20 IEnMin=20 EnMin= -3010.55961273421     IErMin=20 ErrMin= 5.28D-09
 ErrMax= 5.28D-09  0.00D+00 EMaxC= 1.00D-01 BMatC= 3.35D-15 BMatP= 1.74D-14
 IDIUse=1 WtCom= 1.00D+00 WtEn= 0.00D+00
 Large coefficients: NSaved= 20 BigCof=    0.00 CofMax=   10.00 Det=-5.20D-15
 Inversion failed.  Reducing to 19 matrices.
 Large coefficients: NSaved= 19 BigCof=    0.00 CofMax=   10.00 Det=-5.28D-15
 Inversion failed.  Reducing to 18 matrices.
 Large coefficients: NSaved= 18 BigCof=    0.00 CofMax=   10.00 Det=-5.46D-15
 Inversion failed.  Reducing to 17 matrices.
 Large coefficients: NSaved= 17 BigCof=    0.00 CofMax=   10.00 Det=-7.94D-15
 Inversion failed.  Reducing to 16 matrices.
 Large coefficients: NSaved= 16 BigCof=    0.00 CofMax=   10.00 Det=-7.95D-15
 Inversion failed.  Reducing to 15 matrices.
 Coeff-Com: -0.288D-05-0.323D-05 0.278D-04 0.269D-04-0.627D-04-0.284D-03
 Coeff-Com: -0.819D-04 0.480D-03-0.531D-03 0.516D-02 0.525D-02-0.353D-01
 Coeff-Com: -0.127D+00 0.605D-01 0.109D+01
 Coeff:     -0.288D-05-0.323D-05 0.278D-04 0.269D-04-0.627D-04-0.284D-03
 Coeff:     -0.819D-04 0.480D-03-0.531D-03 0.516D-02 0.525D-02-0.353D-01
 Coeff:     -0.127D+00 0.605D-01 0.109D+01
 Gap=     0.212 Goal=   None    Shift=    0.000
 RMSDP=5.26D-09 MaxDP=4.21D-07 DE=-5.50D-11 OVMax= 2.10D-07

 SCF Done:  E(RwB97XD) =  -3010.55961273     A.U. after   25 cycles
            NFock= 25  Conv=0.53D-08     -V/T= 2.0016
 KE= 3.005828625920D+03 PE=-8.692666159270D+03 EE= 1.909605944512D+03
 Leave Link  502 at Thu May  2 14:23:58 2024, MaxMem=   134217728 cpu:            1522.6 elap:            1523.9
 (Enter /software/gaussian/g16-c01/sse4/g16/l601.exe)
 Copying SCF densities to generalized density rwf, IOpCl= 0 IROHF=0.

 **********************************************************************

            Population analysis using the SCF Density.

 **********************************************************************

 Alpha  occ. eigenvalues -- -483.26161 -62.81165 -56.60871 -56.60289 -56.60271
 Alpha  occ. eigenvalues --  -19.37283 -19.37191 -14.76859 -10.54056 -10.53255
 Alpha  occ. eigenvalues --  -10.52968 -10.52850 -10.49553 -10.47917  -8.96956
 Alpha  occ. eigenvalues --   -6.79666  -6.77760  -6.77705  -2.89562  -2.89067
 Alpha  occ. eigenvalues --   -2.89023  -2.87498  -2.87497  -1.40985  -1.23837
 Alpha  occ. eigenvalues --   -1.17653  -1.08253  -1.07278  -0.99707  -0.94580
 Alpha  occ. eigenvalues --   -0.90798  -0.85646  -0.79559  -0.75406  -0.73998
 Alpha  occ. eigenvalues --   -0.73146  -0.72030  -0.70598  -0.67647  -0.66820
 Alpha  occ. eigenvalues --   -0.64461  -0.62835  -0.59028  -0.54739  -0.51002
 Alpha  occ. eigenvalues --   -0.50178  -0.48125  -0.46686  -0.46499
 Alpha virt. eigenvalues --   -0.25307  -0.14365  -0.10881  -0.10124  -0.06975
 Alpha virt. eigenvalues --   -0.06733  -0.04605  -0.03035  -0.01629  -0.00389
 Alpha virt. eigenvalues --    0.00618   0.01226   0.02440   0.03385   0.04717
 Alpha virt. eigenvalues --    0.05195   0.05954   0.06451   0.06590   0.07178
 Alpha virt. eigenvalues --    0.08270   0.09299   0.09491   0.10224   0.10662
 Alpha virt. eigenvalues --    0.11403   0.12044   0.12561   0.13575   0.14312
 Alpha virt. eigenvalues --    0.14906   0.15272   0.16119   0.16810   0.17378
 Alpha virt. eigenvalues --    0.18560   0.19709   0.20248   0.21234   0.21954
 Alpha virt. eigenvalues --    0.22745   0.23560   0.24717   0.25023   0.25334
 Alpha virt. eigenvalues --    0.25999   0.29210   0.29659   0.31033   0.32237
 Alpha virt. eigenvalues --    0.33555   0.35600   0.36090   0.36625   0.37522
 Alpha virt. eigenvalues --    0.38445   0.39459   0.41392   0.41861   0.42756
 Alpha virt. eigenvalues --    0.43687   0.44147   0.45135   0.46611   0.46948
 Alpha virt. eigenvalues --    0.47491   0.50045   0.50670   0.51077   0.53105
 Alpha virt. eigenvalues --    0.54569   0.55594   0.57140   0.58073   0.59014
 Alpha virt. eigenvalues --    0.60529   0.61446   0.63066   0.63499   0.64233
 Alpha virt. eigenvalues --    0.66134   0.67818   0.70166   0.71100   0.72794
 Alpha virt. eigenvalues --    0.74063   0.75174   0.76427   0.78560   0.79527
 Alpha virt. eigenvalues --    0.81909   0.83141   0.86408   0.88868   0.90405
 Alpha virt. eigenvalues --    0.92410   0.95021   0.98384   0.99809   1.05689
 Alpha virt. eigenvalues --    1.07482   1.09331   1.09472   1.11383   1.13141
 Alpha virt. eigenvalues --    1.16825   1.20856   1.21486   1.22648   1.26462
 Alpha virt. eigenvalues --    1.29146   1.31648   1.33874   1.38516   1.41175
 Alpha virt. eigenvalues --    1.41609   1.44323   1.48122   1.60324   1.61562
 Alpha virt. eigenvalues --    1.64012   1.65265   1.68094   1.69668   1.70612
 Alpha virt. eigenvalues --    1.75289   1.76525   1.79251   1.82128   1.84593
 Alpha virt. eigenvalues --    1.86967   1.91199   1.93296   2.00423   2.01713
 Alpha virt. eigenvalues --    2.04407   2.08317   2.08552   2.13200   2.13934
 Alpha virt. eigenvalues --    2.17915   2.19483   2.26831   2.29556   2.31724
 Alpha virt. eigenvalues --    2.38039   2.45897   2.48481   2.50318   2.57606
 Alpha virt. eigenvalues --    2.62775   2.68278   2.70545   2.73469   2.79605
 Alpha virt. eigenvalues --    2.81099   2.84714   2.84908   2.86669   2.90082
 Alpha virt. eigenvalues --    2.98207   3.04336   3.09200   3.11616   3.13988
 Alpha virt. eigenvalues --    3.18928   3.20258   3.22917   3.30491   3.33072
 Alpha virt. eigenvalues --    3.36075   3.44685   3.50468   3.55939   3.62689
 Alpha virt. eigenvalues --    3.64557   3.77789   3.83029   3.88465   3.92345
 Alpha virt. eigenvalues --    4.15218   4.16074   4.24643   4.28745   4.48613
 Alpha virt. eigenvalues --    4.54274   4.59648   4.67741   5.02932   5.05827
 Alpha virt. eigenvalues --    5.14668   5.19140   5.71011   6.24442   6.73217
 Alpha virt. eigenvalues --    7.54099   7.56414   7.66475  23.26673  23.66004
 Alpha virt. eigenvalues --   23.77046  23.82295  23.99514  24.07356  35.40291
 Alpha virt. eigenvalues --   47.99205  49.94263  50.02925 289.86824 289.89159
 Alpha virt. eigenvalues --  290.017731021.00356
          Condensed to atoms (all electrons):
               1          2          3          4          5          6
     1  C    9.270585  -3.379500   1.269028  -0.392469   0.293544   0.069834
     2  C   -3.379500  19.637525  -5.470850   0.286895   0.012847   0.149277
     3  C    1.269028  -5.470850  22.795943  -1.753866   0.029786   0.124650
     4  C   -0.392469   0.286895  -1.753866   7.019559  -0.002435  -0.010900
     5  H    0.293544   0.012847   0.029786  -0.002435   0.369826  -0.001684
     6  H    0.069834   0.149277   0.124650  -0.010900  -0.001684   0.295248
     7  H    0.045499  -0.045409   0.034366   0.290745  -0.003968  -0.000010
     8  N   -0.207090   0.108367  -1.913999   0.050797  -0.000430  -0.030681
     9  O   -0.024445   0.243018  -0.053347  -0.033012  -0.000044  -0.002785
    10  O    0.363339  -0.218647  -0.231898  -0.026065   0.000083   0.027811
    11  C    1.271332  -0.419985   3.206591  -0.826917  -0.030554   0.007682
    12  H   -0.013313   0.006446   0.033898  -0.001018  -0.000001  -0.000017
    13  C   -2.454556  -4.867461 -11.873254   1.706280   0.026126   0.003229
    14  H   -0.005369  -0.008375  -0.046910   0.004851  -0.000031   0.000012
    15  Br  -0.008182  -0.194275  -0.161195   0.002401  -0.000068  -0.000346
               7          8          9         10         11         12
     1  C    0.045499  -0.207090  -0.024445   0.363339   1.271332  -0.013313
     2  C   -0.045409   0.108367   0.243018  -0.218647  -0.419985   0.006446
     3  C    0.034366  -1.913999  -0.053347  -0.231898   3.206591   0.033898
     4  C    0.290745   0.050797  -0.033012  -0.026065  -0.826917  -0.001018
     5  H   -0.003968  -0.000430  -0.000044   0.000083  -0.030554  -0.000001
     6  H   -0.000010  -0.030681  -0.002785   0.027811   0.007682  -0.000017
     7  H    0.414087  -0.000121   0.000016  -0.000002   0.049661  -0.003225
     8  N   -0.000121   8.032095  -0.102916   0.077605  -0.594617   0.001194
     9  O    0.000016  -0.102916   7.911644   0.024581   0.398398   0.000070
    10  O   -0.000002   0.077605   0.024581   7.817394  -0.002968  -0.000024
    11  C    0.049661  -0.594617   0.398398  -0.002968   9.977527   0.279067
    12  H   -0.003225   0.001194   0.000070  -0.000024   0.279067   0.367189
    13  C   -0.038285   1.683858  -0.464820   0.028745  -7.203551   0.020503
    14  H   -0.000043  -0.024607   0.015651  -0.001942   0.080350  -0.005501
    15  Br  -0.000249   0.163540  -0.056604   0.002316   0.088387  -0.005403
              13         14         15
     1  C   -2.454556  -0.005369  -0.008182
     2  C   -4.867461  -0.008375  -0.194275
     3  C  -11.873254  -0.046910  -0.161195
     4  C    1.706280   0.004851   0.002401
     5  H    0.026126  -0.000031  -0.000068
     6  H    0.003229   0.000012  -0.000346
     7  H   -0.038285  -0.000043  -0.000249
     8  N    1.683858  -0.024607   0.163540
     9  O   -0.464820   0.015651  -0.056604
    10  O    0.028745  -0.001942   0.002316
    11  C   -7.203551   0.080350   0.088387
    12  H    0.020503  -0.005501  -0.005403
    13  C   29.235867   0.295305   0.321366
    14  H    0.295305   0.300494  -0.033299
    15  Br   0.321366  -0.033299  34.663392
 Mulliken charges:
               1
     1  C   -0.098236
     2  C    0.160128
     3  C    0.011056
     4  C   -0.314846
     5  H    0.307003
     6  H    0.368679
     7  H    0.256937
     8  N   -0.242995
     9  O    0.144594
    10  O    0.139670
    11  C   -0.280403
    12  H    0.320133
    13  C   -0.419352
    14  H    0.429414
    15  Br   0.218219
 Sum of Mulliken charges =   1.00000
 Mulliken charges with hydrogens summed into heavy atoms:
               1
     1  C    0.208768
     2  C    0.528806
     3  C    0.011056
     4  C   -0.057909
     8  N   -0.242995
     9  O    0.144594
    10  O    0.139670
    11  C    0.039729
    13  C    0.010062
    15  Br   0.218219
 Electronic spatial extent (au):  <R**2>=           3933.8033
 Charge=              1.0000 electrons
 Dipole moment (field-independent basis, Debye):
    X=              6.9532    Y=             -1.1197    Z=             -0.9636  Tot=              7.1084
 Quadrupole moment (field-independent basis, Debye-Ang):
   XX=            -51.8956   YY=            -50.9235   ZZ=            -61.7646
   XY=             -3.9386   XZ=             -3.7182   YZ=              2.9645
 Traceless Quadrupole moment (field-independent basis, Debye-Ang):
   XX=              2.9657   YY=              3.9377   ZZ=             -6.9034
   XY=             -3.9386   XZ=             -3.7182   YZ=              2.9645
 Octapole moment (field-independent basis, Debye-Ang**2):
  XXX=           -431.8488  YYY=             90.4759  ZZZ=             81.4091  XYY=           -126.8102
  XXY=             21.8435  XXZ=             21.5559  XZZ=           -127.1507  YZZ=             15.7316
  YYZ=             24.4404  XYZ=             10.4683
 Hexadecapole moment (field-independent basis, Debye-Ang**3):
 XXXX=          -3050.9788 YYYY=           -701.1229 ZZZZ=           -391.8190 XXXY=            174.4947
 XXXZ=            171.5493 YYYX=            178.1120 YYYZ=           -168.5780 ZZZX=            159.6772
 ZZZY=           -140.9688 XXYY=           -586.1281 XXZZ=           -506.8054 YYZZ=           -168.5627
 XXYZ=            -32.7513 YYXZ=             43.2119 ZZXY=             22.3214
 N-N= 7.666719761028D+02 E-N=-8.692666159759D+03  KE= 3.005828625920D+03
 No NMR shielding tensors so no spin-rotation constants.
 Leave Link  601 at Thu May  2 14:24:05 2024, MaxMem=   134217728 cpu:               7.5 elap:               7.5
 (Enter /software/gaussian/g16-c01/sse4/g16/l9999.exe)
 Unable to Open any file for archive entry.
 1\1\GINC-BHX0004\SP\RwB97XD\6-311+G(d)\C6H5Br1N1O2(1+)\BWEIGHT\02-May-
 2024\0\\#P wB97XD/6-311+G* NoSymm #P Field=X-145\\TitleMe\\1,1\C,0,0.5
 193,1.233,-0.0319\C,0,1.9445,1.2692,-0.0367\C,0,2.6204,0.0928,-0.025\C
 ,0,-0.196,0.0301,0.001\H,0,-0.0207,2.1742,-0.0434\H,0,2.4828,2.2089,-0
 .0361\H,0,-1.2777,0.0399,0.0117\N,0,4.0921,0.0959,0.0366\O,0,4.6393,-1
 .0217,0.1446\O,0,4.6649,1.1984,-0.0233\C,0,0.4943,-1.1671,0.021\H,0,-0
 .0325,-2.1149,0.0545\C,0,1.9629,-1.2165,-0.0211\H,0,2.4436,-1.9631,0.6
 151\Br,0,2.173,-1.9491,-1.9062\\Version=ES64L-G16RevC.01\HF=-3010.5596
 127\RMSD=5.260e-09\Dipole=-1.5936089,0.7875944,0.8700984\Quadrupole=2.
 2048977,2.9275969,-5.1324946,-2.9282825,-2.764356,2.2040072\PG=C01 [X(
 C6H5Br1N1O2)]\\@
 The archive entry for this job was punched.


 IT IS IMPOSSIBLE TO MEDITATE ON TIME AND THE MYSTERY 
 OF NATURE WITHOUT AN OVERWHELMING EMOTION AT THE
 LIMITATIONS OF HUMAN INTELLIGENCE.

                                         -- ALFRED NORTH WHITEHEAD
 Job cpu time:       0 days  0 hours 26 minutes 34.9 seconds.
 Elapsed time:       0 days  0 hours 26 minutes 36.1 seconds.
 File lengths (MBytes):  RWF=     40 Int=      0 D2E=      0 Chk=     32 Scr=      1
 Normal termination of Gaussian 16 at Thu May  2 14:24:06 2024.
