 Entering Gaussian System, Link 0=g16
 Initial command:
 /software/gaussian/g16-c01/sse4/g16/l1.exe "/local_scratch/24657429/Gau-28517.inp" -scrdir="/local_scratch/24657429/"
 Entering Link 1 = /software/gaussian/g16-c01/sse4/g16/l1.exe PID=     28519.
  
 Copyright (c) 1988-2019, Gaussian, Inc.  All Rights Reserved.
  
 This is part of the Gaussian(R) 16 program.  It is based on
 the Gaussian(R) 09 system (copyright 2009, Gaussian, Inc.),
 the Gaussian(R) 03 system (copyright 2003, Gaussian, Inc.),
 the Gaussian(R) 98 system (copyright 1998, Gaussian, Inc.),
 the Gaussian(R) 94 system (copyright 1995, Gaussian, Inc.),
 the Gaussian 92(TM) system (copyright 1992, Gaussian, Inc.),
 the Gaussian 90(TM) system (copyright 1990, Gaussian, Inc.),
 the Gaussian 88(TM) system (copyright 1988, Gaussian, Inc.),
 the Gaussian 86(TM) system (copyright 1986, Carnegie Mellon
 University), and the Gaussian 82(TM) system (copyright 1983,
 Carnegie Mellon University). Gaussian is a federally registered
 trademark of Gaussian, Inc.
  
 This software contains proprietary and confidential information,
 including trade secrets, belonging to Gaussian, Inc.
  
 This software is provided under written license and may be
 used, copied, transmitted, or stored only in accord with that
 written license.
  
 The following legend is applicable only to US Government
 contracts under FAR:
  
                    RESTRICTED RIGHTS LEGEND
  
 Use, reproduction and disclosure by the US Government is
 subject to restrictions as set forth in subparagraphs (a)
 and (c) of the Commercial Computer Software - Restricted
 Rights clause in FAR 52.227-19.
  
 Gaussian, Inc.
 340 Quinnipiac St., Bldg. 40, Wallingford CT 06492
  
  
 ---------------------------------------------------------------
 Warning -- This program may not be used in any manner that
 competes with the business of Gaussian, Inc. or will provide
 assistance to any competitor of Gaussian, Inc.  The licensee
 of this program is prohibited from giving any competitor of
 Gaussian, Inc. access to this program.  By using this program,
 the user acknowledges that Gaussian, Inc. is engaged in the
 business of creating and licensing software in the field of
 computational chemistry and represents and warrants to the
 licensee that it is not a competitor of Gaussian, Inc. and that
 it will not use this program in any manner prohibited above.
 ---------------------------------------------------------------
  

 Cite this work as:
 Gaussian 16, Revision C.01,
 M. J. Frisch, G. W. Trucks, H. B. Schlegel, G. E. Scuseria, 
 M. A. Robb, J. R. Cheeseman, G. Scalmani, V. Barone, 
 G. A. Petersson, H. Nakatsuji, X. Li, M. Caricato, A. V. Marenich, 
 J. Bloino, B. G. Janesko, R. Gomperts, B. Mennucci, H. P. Hratchian, 
 J. V. Ortiz, A. F. Izmaylov, J. L. Sonnenberg, D. Williams-Young, 
 F. Ding, F. Lipparini, F. Egidi, J. Goings, B. Peng, A. Petrone, 
 T. Henderson, D. Ranasinghe, V. G. Zakrzewski, J. Gao, N. Rega, 
 G. Zheng, W. Liang, M. Hada, M. Ehara, K. Toyota, R. Fukuda, 
 J. Hasegawa, M. Ishida, T. Nakajima, Y. Honda, O. Kitao, H. Nakai, 
 T. Vreven, K. Throssell, J. A. Montgomery, Jr., J. E. Peralta, 
 F. Ogliaro, M. J. Bearpark, J. J. Heyd, E. N. Brothers, K. N. Kudin, 
 V. N. Staroverov, T. A. Keith, R. Kobayashi, J. Normand, 
 K. Raghavachari, A. P. Rendell, J. C. Burant, S. S. Iyengar, 
 J. Tomasi, M. Cossi, J. M. Millam, M. Klene, C. Adamo, R. Cammi, 
 J. W. Ochterski, R. L. Martin, K. Morokuma, O. Farkas, 
 J. B. Foresman, and D. J. Fox, Gaussian, Inc., Wallingford CT, 2019.
 
 ******************************************
 Gaussian 16:  ES64L-G16RevC.01  3-Jul-2019
                 1-May-2024 
 ******************************************
 %chk=geometry.chk
 %mem=9GB
 %nprocshared=12
 Will use up to   12 processors via shared memory.
 ----------------------------------------
 #P wB97XD/6-311+G* NoSymm #P Field=X-116
 ----------------------------------------
 1/38=1,172=1/1;
 2/12=2,15=1,17=6,18=5,40=1/2;
 3/5=4,6=6,7=11,11=2,14=1,15=-116,25=1,30=1,74=-58/1,2,3;
 4//1;
 5/5=2,38=5/2;
 6/7=2,8=2,9=2,10=2,28=1/1;
 99/5=1,9=1/99;
 Leave Link    1 at Wed May  1 14:27:44 2024, MaxMem=  1207959552 cpu:               1.5 elap:               1.6
 (Enter /software/gaussian/g16-c01/sse4/g16/l101.exe)
 -------
 TitleMe
 -------
 Symbolic Z-matrix:
 Charge =  1 Multiplicity = 1
 C                     0.0295    1.3397    0.0682 
 C                     1.4348    1.2867    0.0064 
 C                     2.1118    0.0511   -0.0054 
 C                     1.4451   -1.1372    0.0312 
 C                    -0.6879    0.1682    0.11 
 H                    -0.4713    2.2984    0.0781 
 H                     2.0273    2.1965   -0.0322 
 H                     1.9897   -2.0764    0.0232 
 H                    -1.7716    0.1804    0.1582 
 N                     3.5864    0.051    -0.0675 
 O                     4.1471   -1.0597   -0.0881 
 O                     4.145     1.1639   -0.0901 
 C                    -0.0236   -1.1458    0.0835 
 H                    -0.4367   -1.8725    0.7889 
 Br                   -0.5359   -1.8697   -1.7408 
 
 ITRead=  0  0  0  0  0  0  0  0  0  0  0  0  0  0  0
 MicOpt= -1 -1 -1 -1 -1 -1 -1 -1 -1 -1 -1 -1 -1 -1 -1
 NAtoms=     15 NQM=       15 NQMF=       0 NMMI=      0 NMMIF=      0
                NMic=       0 NMicF=      0.
                    Isotopes and Nuclear Properties:
 (Nuclear quadrupole moments (NQMom) in fm**2, nuclear magnetic moments (NMagM)
  in nuclear magnetons)

  Atom         1           2           3           4           5           6           7           8           9          10
 IAtWgt=          12          12          12          12          12           1           1           1           1          14
 AtmWgt=  12.0000000  12.0000000  12.0000000  12.0000000  12.0000000   1.0078250   1.0078250   1.0078250   1.0078250  14.0030740
 NucSpn=           0           0           0           0           0           1           1           1           1           2
 AtZEff=  -0.0000000  -0.0000000  -0.0000000  -0.0000000  -0.0000000  -0.0000000  -0.0000000  -0.0000000  -0.0000000  -0.0000000
 NQMom=    0.0000000   0.0000000   0.0000000   0.0000000   0.0000000   0.0000000   0.0000000   0.0000000   0.0000000   2.0440000
 NMagM=    0.0000000   0.0000000   0.0000000   0.0000000   0.0000000   2.7928460   2.7928460   2.7928460   2.7928460   0.4037610
 AtZNuc=   6.0000000   6.0000000   6.0000000   6.0000000   6.0000000   1.0000000   1.0000000   1.0000000   1.0000000   7.0000000

  Atom        11          12          13          14          15
 IAtWgt=          16          16          12           1          79
 AtmWgt=  15.9949146  15.9949146  12.0000000   1.0078250  78.9183361
 NucSpn=           0           0           0           1           3
 AtZEff=  -0.0000000  -0.0000000  -0.0000000  -0.0000000  -0.0000000
 NQMom=    0.0000000   0.0000000   0.0000000   0.0000000  31.3000000
 NMagM=    0.0000000   0.0000000   0.0000000   2.7928460   2.1063990
 AtZNuc=   8.0000000   8.0000000   6.0000000   1.0000000  35.0000000
 Leave Link  101 at Wed May  1 14:27:45 2024, MaxMem=  1207959552 cpu:               1.3 elap:               1.3
 (Enter /software/gaussian/g16-c01/sse4/g16/l202.exe)
                          Input orientation:                          
 ---------------------------------------------------------------------
 Center     Atomic      Atomic             Coordinates (Angstroms)
 Number     Number       Type             X           Y           Z
 ---------------------------------------------------------------------
      1          6           0        0.029500    1.339700    0.068200
      2          6           0        1.434800    1.286700    0.006400
      3          6           0        2.111800    0.051100   -0.005400
      4          6           0        1.445100   -1.137200    0.031200
      5          6           0       -0.687900    0.168200    0.110000
      6          1           0       -0.471300    2.298400    0.078100
      7          1           0        2.027300    2.196500   -0.032200
      8          1           0        1.989700   -2.076400    0.023200
      9          1           0       -1.771600    0.180400    0.158200
     10          7           0        3.586400    0.051000   -0.067500
     11          8           0        4.147100   -1.059700   -0.088100
     12          8           0        4.145000    1.163900   -0.090100
     13          6           0       -0.023600   -1.145800    0.083500
     14          1           0       -0.436700   -1.872500    0.788900
     15         35           0       -0.535900   -1.869700   -1.740800
 ---------------------------------------------------------------------
                    Distance matrix (angstroms):
                    1          2          3          4          5
     1  C    0.000000
     2  C    1.407656   0.000000
     3  C    2.449874   1.408963   0.000000
     4  C    2.853126   2.424049   1.363043   0.000000
     5  C    1.374344   2.401589   2.804523   2.501993   0.000000
     6  H    1.081667   2.159142   3.424870   3.934226   2.141421
     7  H    2.176095   1.086408   2.147231   3.384750   3.392128
     8  H    3.938800   3.408612   2.131193   1.085702   3.495040
     9  H    2.143837   3.395283   3.888995   3.478413   1.084840
    10  N    3.785591   2.482297   1.475907   2.450862   4.279589
    11  O    4.768247   3.587631   2.320164   2.705743   4.992415
    12  O    4.122294   2.714696   2.319353   3.549540   4.938459
    13  C    2.486114   2.837240   2.449573   1.469656   1.472614
    14  H    3.324903   3.754379   3.290289   2.157764   2.165286
    15  Br   3.727252   4.110867   3.702891   2.756973   2.757100
                    6          7          8          9         10
     6  H    0.000000
     7  H    2.503108   0.000000
     8  H    5.019802   4.273425   0.000000
     9  H    2.486588   4.304945   4.388479   0.000000
    10  N    4.640790   2.652397   2.661486   5.364313   0.000000
    11  O    5.712624   3.885809   2.387560   6.052233   1.244373
    12  O    4.756638   2.356750   3.893289   6.002923   1.245428
    13  C    3.473180   3.923079   2.218790   2.195425   3.806210
    14  H    4.231175   4.827242   2.552506   2.528663   4.540772
    15  Br   4.548146   5.101303   3.087568   3.055498   4.845862
                   11         12         13         14         15
    11  O    0.000000
    12  O    2.223602   0.000000
    13  C    4.175117   4.768865   0.000000
    14  H    4.737193   5.566358   1.093770   0.000000
    15  Br   5.031700   5.817075   2.028436   2.531646   0.000000
 Symmetry turned off by external request.
 Stoichiometry    C6H5BrNO2(1+)
 Framework group  C1[X(C6H5BrNO2)]
 Deg. of freedom    39
 Full point group                 C1      NOp   1
 Rotational constants (GHZ):           1.8252210           0.5518633           0.4576002
 Leave Link  202 at Wed May  1 14:27:47 2024, MaxMem=  1207959552 cpu:               1.4 elap:               1.4
 (Enter /software/gaussian/g16-c01/sse4/g16/l301.exe)
 Standard basis: 6-311+G(d) (5D, 7F)
 Ernie: Thresh=  0.10000D-02 Tol=  0.10000D-05 Strict=F.
 The following finite field(s) will be applied:
 An electric field of             -0.0116  0.0000  0.0000
   261 basis functions,   443 primitive gaussians,   273 cartesian basis functions
    49 alpha electrons       49 beta electrons
       nuclear repulsion energy       739.2122215416 Hartrees.
 IExCor= 4639 DFT=T Ex+Corr=wB97XD ExCW=0 ScaHFX=  1.000000
 ScaDFX=  1.000000  1.000000  1.000000  1.000000 ScalE2=  1.000000  1.000000
 IRadAn=      5 IRanWt=     -1 IRanGd=            0 ICorTp=0 IEmpDi=121
 HFx  wShort=  0.000000 wLong=  0.200000 cFull=  0.222036 cShort=  0.000000 cLong=  0.777964
 DFx  wShort=  0.000000 wLong=  0.200000 cFull=  0.000000 cShort=  0.000000 cLong=  1.000000
 NAtoms=   15 NActive=   15 NUniq=   15 SFac= 1.00D+00 NAtFMM=   60 NAOKFM=F Big=F
 Integral buffers will be    131072 words long.
 Raffenetti 2 integral format.
 Two-electron integral symmetry is turned off.
 R6Disp:  Grimme-D2 Dispersion energy=       -0.0077368520 Hartrees.
 Nuclear repulsion after empirical dispersion term =      739.2044846896 Hartrees.
 Leave Link  301 at Wed May  1 14:27:48 2024, MaxMem=  1207959552 cpu:               0.9 elap:               0.9
 (Enter /software/gaussian/g16-c01/sse4/g16/l302.exe)
 NPDir=0 NMtPBC=     1 NCelOv=     1 NCel=       1 NClECP=     1 NCelD=      1
         NCelK=      1 NCelE2=     1 NClLst=     1 CellRange=     0.0.
 One-electron integrals computed using PRISM.
 NBasis=   261 RedAO= T EigKep=  2.35D-06  NBF=   261
 NBsUse=   261 1.00D-06 EigRej= -1.00D+00 NBFU=   261
 Precomputing XC quadrature grid using
 IXCGrd= 4 IRadAn=           5 IRanWt=          -1 IRanGd=           0 AccXCQ= 0.00D+00.
 Generated NRdTot=       0 NPtTot=           0 NUsed=           0 NTot=          32
 NSgBfM=   273   273   273   273   273 MxSgAt=    15 MxSgA2=    15.
 Leave Link  302 at Wed May  1 14:28:08 2024, MaxMem=  1207959552 cpu:              20.6 elap:              20.6
 (Enter /software/gaussian/g16-c01/sse4/g16/l303.exe)
 DipDrv:  MaxL=1.
 The nuclear repulsion energy is now       737.0150175393 hartrees.
 Leave Link  303 at Wed May  1 14:28:12 2024, MaxMem=  1207959552 cpu:               3.1 elap:               3.1
 (Enter /software/gaussian/g16-c01/sse4/g16/l401.exe)
 ExpMin= 3.50D-02 ExpMax= 4.40D+05 ExpMxC= 1.51D+04 IAcc=3 IRadAn=         5 AccDes= 0.00D+00
 Harris functional with IExCor= 4639 and IRadAn=       5 diagonalized for initial guess.
 HarFok:  IExCor= 4639 AccDes= 0.00D+00 IRadAn=         5 IDoV= 1 UseB2=F ITyADJ=14
 ICtDFT=  3500011 ScaDFX=  1.000000  1.000000  1.000000  1.000000
 FoFCou: FMM=F IPFlag=           0 FMFlag=      100000 FMFlg1=           0
         NFxFlg=           0 DoJE=T BraDBF=F KetDBF=T FulRan=T
         wScrn=  0.000000 ICntrl=       500 IOpCl=  0 I1Cent=   200000004 NGrid=           0
         NMat0=    1 NMatS0=      1 NMatT0=    0 NMatD0=    1 NMtDS0=    0 NMtDT0=    0
 Symmetry not used in FoFCou.
 Harris En= -2970.70996441465    
 JPrj=0 DoOrth=F DoCkMO=F.
 Leave Link  401 at Wed May  1 14:28:42 2024, MaxMem=  1207959552 cpu:              29.7 elap:              29.7
 (Enter /software/gaussian/g16-c01/sse4/g16/l502.exe)
 Two-electron integral symmetry not used.
 Closed shell SCF:
 Using DIIS extrapolation, IDIIS=  1040.
 NGot=  1207959552 LenX=  1207804877 LenY=  1207729907
 Requested convergence on RMS density matrix=1.00D-08 within 128 cycles.
 Requested convergence on MAX density matrix=1.00D-06.
 Requested convergence on             energy=1.00D-06.
 No special actions if energy rises.
 Fock matrices will be formed incrementally for  20 cycles.

 Cycle   1  Pass 1  IDiag  1:
 FoFJK:  IHMeth= 1 ICntrl=       0 DoSepK=T KAlg= 0 I1Cent=           0 FoldK=F
 IRaf=         1 NMat=       1 IRICut=       1 DoRegI=T DoRafI=F ISym2E= 0 IDoP0=0 IntGTp=1.
 FoFCou: FMM=F IPFlag=           0 FMFlag=      100000 FMFlg1=           0
         NFxFlg=           0 DoJE=T BraDBF=F KetDBF=F FulRan=T
         wScrn=  0.000000 ICntrl=       500 IOpCl=  0 I1Cent=           0 NGrid=           0
         NMat0=    1 NMatS0=      1 NMatT0=    0 NMatD0=    1 NMtDS0=    0 NMtDT0=    0
 Symmetry not used in FoFCou.
 E= -3008.62757014670    
 DIIS: error= 3.21D-01 at cycle   1 NSaved=   1.
 NSaved= 1 IEnMin= 1 EnMin= -3008.62757014670     IErMin= 1 ErrMin= 3.21D-01
 ErrMax= 3.21D-01  0.00D+00 EMaxC= 1.00D-01 BMatC= 1.24D+01 BMatP= 1.24D+01
 IDIUse=3 WtCom= 0.00D+00 WtEn= 1.00D+00
 Coeff-Com:  0.100D+01
 Coeff-En:   0.100D+01
 Coeff:      0.100D+01
 Gap=     0.178 Goal=   None    Shift=    0.000
 GapD=    0.178 DampG=1.000 DampE=0.250 DampFc=0.2500 IDamp=-1.
 Damping current iteration by 2.50D-01
 RMSDP=7.47D-02 MaxDP=4.74D+00              OVMax= 9.68D-01

 Cycle   2  Pass 1  IDiag  1:
 RMSU=  1.72D-02    CP:  9.34D-01
 E= -3008.59956386447     Delta-E=        0.028006282230 Rises=F Damp=T
 DIIS: error= 2.26D-01 at cycle   2 NSaved=   2.
 NSaved= 2 IEnMin= 1 EnMin= -3008.62757014670     IErMin= 2 ErrMin= 2.26D-01
 ErrMax= 2.26D-01  0.00D+00 EMaxC= 1.00D-01 BMatC= 5.53D+00 BMatP= 1.24D+01
 IDIUse=3 WtCom= 0.00D+00 WtEn= 1.00D+00
 Coeff-Com: -0.101D+01 0.201D+01
 Coeff-En:   0.509D+00 0.491D+00
 Coeff:      0.509D+00 0.491D+00
 Gap=     0.038 Goal=   None    Shift=    0.000
 RMSDP=5.29D-02 MaxDP=4.01D+00 DE= 2.80D-02 OVMax= 9.60D-01

 Cycle   3  Pass 1  IDiag  1:
 RMSU=  1.82D-02    CP:  4.94D-01  1.55D+00
 E= -3009.14300768136     Delta-E=       -0.543443816896 Rises=F Damp=F
 DIIS: error= 1.37D-01 at cycle   3 NSaved=   3.
 NSaved= 3 IEnMin= 3 EnMin= -3009.14300768136     IErMin= 3 ErrMin= 1.37D-01
 ErrMax= 1.37D-01  0.00D+00 EMaxC= 1.00D-01 BMatC= 2.42D+00 BMatP= 5.53D+00
 IDIUse=3 WtCom= 0.00D+00 WtEn= 1.00D+00
 EnCoef did   100 forward-backward iterations
 Coeff-Com:  0.456D+00-0.269D+00 0.813D+00
 Coeff-En:   0.431D+00 0.336D-02 0.566D+00
 Coeff:      0.431D+00 0.336D-02 0.566D+00
 Gap=     0.138 Goal=   None    Shift=    0.000
 RMSDP=2.18D-02 MaxDP=9.90D-01 DE=-5.43D-01 OVMax= 4.86D-01

 Cycle   4  Pass 1  IDiag  1:
 RMSU=  1.62D-02    CP:  5.16D-01  7.14D-01  1.05D+00
 E= -3010.47916212413     Delta-E=       -1.336154442763 Rises=F Damp=F
 DIIS: error= 1.70D-02 at cycle   4 NSaved=   4.
 NSaved= 4 IEnMin= 4 EnMin= -3010.47916212413     IErMin= 4 ErrMin= 1.70D-02
 ErrMax= 1.70D-02  0.00D+00 EMaxC= 1.00D-01 BMatC= 6.01D-02 BMatP= 2.42D+00
 IDIUse=3 WtCom= 8.30D-01 WtEn= 1.70D-01
 Coeff-Com:  0.773D-01-0.527D-01 0.899D-01 0.886D+00
 Coeff-En:   0.000D+00 0.000D+00 0.000D+00 0.100D+01
 Coeff:      0.641D-01-0.437D-01 0.746D-01 0.905D+00
 Gap=     0.212 Goal=   None    Shift=    0.000
 RMSDP=1.20D-02 MaxDP=7.36D-01 DE=-1.34D+00 OVMax= 8.41D-02

 Cycle   5  Pass 1  IDiag  1:
 RMSU=  6.40D-03    CP:  4.43D-01  7.81D-01  9.98D-01  6.34D-01
 E= -3010.50112713274     Delta-E=       -0.021965008608 Rises=F Damp=F
 DIIS: error= 1.89D-02 at cycle   5 NSaved=   5.
 NSaved= 5 IEnMin= 5 EnMin= -3010.50112713274     IErMin= 4 ErrMin= 1.70D-02
 ErrMax= 1.89D-02  0.00D+00 EMaxC= 1.00D-01 BMatC= 4.57D-02 BMatP= 6.01D-02
 IDIUse=3 WtCom= 8.11D-01 WtEn= 1.89D-01
 Coeff-Com: -0.475D-02 0.129D-01-0.178D-01 0.465D+00 0.544D+00
 Coeff-En:   0.000D+00 0.000D+00 0.000D+00 0.368D+00 0.632D+00
 Coeff:     -0.385D-02 0.104D-01-0.145D-01 0.447D+00 0.561D+00
 Gap=     0.191 Goal=   None    Shift=    0.000
 RMSDP=4.38D-03 MaxDP=2.27D-01 DE=-2.20D-02 OVMax= 4.99D-02

 Cycle   6  Pass 1  IDiag  1:
 RMSU=  1.70D-03    CP:  4.56D-01  6.90D-01  9.82D-01  8.29D-01  8.06D-01
 E= -3010.53734408650     Delta-E=       -0.036216953760 Rises=F Damp=F
 DIIS: error= 3.91D-03 at cycle   6 NSaved=   6.
 NSaved= 6 IEnMin= 6 EnMin= -3010.53734408650     IErMin= 6 ErrMin= 3.91D-03
 ErrMax= 3.91D-03  0.00D+00 EMaxC= 1.00D-01 BMatC= 2.45D-03 BMatP= 4.57D-02
 IDIUse=3 WtCom= 9.61D-01 WtEn= 3.91D-02
 Coeff-Com: -0.761D-02 0.125D-01-0.112D-01 0.164D+00 0.275D+00 0.568D+00
 Coeff-En:   0.000D+00 0.000D+00 0.000D+00 0.000D+00 0.000D+00 0.100D+01
 Coeff:     -0.731D-02 0.120D-01-0.108D-01 0.157D+00 0.264D+00 0.585D+00
 Gap=     0.205 Goal=   None    Shift=    0.000
 RMSDP=9.45D-04 MaxDP=4.44D-02 DE=-3.62D-02 OVMax= 1.18D-02

 Cycle   7  Pass 1  IDiag  1:
 RMSU=  5.91D-04    CP:  4.53D-01  6.89D-01  9.72D-01  7.99D-01  8.56D-01
                    CP:  1.08D+00
 E= -3010.53905426576     Delta-E=       -0.001710179266 Rises=F Damp=F
 DIIS: error= 1.32D-03 at cycle   7 NSaved=   7.
 NSaved= 7 IEnMin= 7 EnMin= -3010.53905426576     IErMin= 7 ErrMin= 1.32D-03
 ErrMax= 1.32D-03  0.00D+00 EMaxC= 1.00D-01 BMatC= 2.88D-04 BMatP= 2.45D-03
 IDIUse=3 WtCom= 9.87D-01 WtEn= 1.32D-02
 Coeff-Com: -0.857D-02 0.115D-01-0.409D-02-0.128D-02 0.289D-01 0.240D+00
 Coeff-Com:  0.733D+00
 Coeff-En:   0.000D+00 0.000D+00 0.000D+00 0.000D+00 0.000D+00 0.000D+00
 Coeff-En:   0.100D+01
 Coeff:     -0.845D-02 0.114D-01-0.403D-02-0.126D-02 0.285D-01 0.237D+00
 Coeff:      0.737D+00
 Gap=     0.210 Goal=   None    Shift=    0.000
 RMSDP=4.70D-04 MaxDP=2.75D-02 DE=-1.71D-03 OVMax= 8.74D-03

 Cycle   8  Pass 1  IDiag  1:
 RMSU=  3.25D-04    CP:  4.53D-01  7.05D-01  9.70D-01  7.90D-01  8.75D-01
                    CP:  1.10D+00  9.85D-01
 E= -3010.53929148495     Delta-E=       -0.000237219188 Rises=F Damp=F
 DIIS: error= 1.41D-03 at cycle   8 NSaved=   8.
 NSaved= 8 IEnMin= 8 EnMin= -3010.53929148495     IErMin= 7 ErrMin= 1.32D-03
 ErrMax= 1.41D-03  0.00D+00 EMaxC= 1.00D-01 BMatC= 1.72D-04 BMatP= 2.88D-04
 IDIUse=3 WtCom= 9.87D-01 WtEn= 1.32D-02
 Coeff-Com: -0.715D-02 0.942D-02-0.194D-02-0.179D-01-0.140D-01 0.721D-01
 Coeff-Com:  0.487D+00 0.473D+00
 Coeff-En:   0.000D+00 0.000D+00 0.000D+00 0.000D+00 0.000D+00 0.000D+00
 Coeff-En:   0.224D-03 0.100D+01
 Coeff:     -0.706D-02 0.929D-02-0.191D-02-0.176D-01-0.138D-01 0.711D-01
 Coeff:      0.480D+00 0.480D+00
 Gap=     0.211 Goal=   None    Shift=    0.000
 RMSDP=1.77D-04 MaxDP=1.46D-02 DE=-2.37D-04 OVMax= 5.44D-03

 Cycle   9  Pass 1  IDiag  1:
 RMSU=  1.21D-04    CP:  4.53D-01  7.10D-01  9.71D-01  7.86D-01  8.76D-01
                    CP:  1.09D+00  1.05D+00  8.95D-01
 E= -3010.53942543567     Delta-E=       -0.000133950724 Rises=F Damp=F
 DIIS: error= 2.90D-04 at cycle   9 NSaved=   9.
 NSaved= 9 IEnMin= 9 EnMin= -3010.53942543567     IErMin= 9 ErrMin= 2.90D-04
 ErrMax= 2.90D-04  0.00D+00 EMaxC= 1.00D-01 BMatC= 2.77D-05 BMatP= 1.72D-04
 IDIUse=3 WtCom= 9.97D-01 WtEn= 2.90D-03
 Coeff-Com: -0.347D-02 0.484D-02-0.297D-03-0.150D-02-0.995D-02-0.474D-01
 Coeff-Com: -0.381D-01 0.201D+00 0.895D+00
 Coeff-En:   0.000D+00 0.000D+00 0.000D+00 0.000D+00 0.000D+00 0.000D+00
 Coeff-En:   0.000D+00 0.000D+00 0.100D+01
 Coeff:     -0.346D-02 0.482D-02-0.296D-03-0.149D-02-0.993D-02-0.472D-01
 Coeff:     -0.380D-01 0.200D+00 0.896D+00
 Gap=     0.212 Goal=   None    Shift=    0.000
 RMSDP=1.62D-04 MaxDP=8.54D-03 DE=-1.34D-04 OVMax= 3.09D-03

 Cycle  10  Pass 1  IDiag  1:
 RMSU=  5.76D-05    CP:  4.54D-01  7.15D-01  9.72D-01  7.81D-01  8.75D-01
                    CP:  1.10D+00  1.09D+00  1.13D+00  1.23D+00
 E= -3010.53946166755     Delta-E=       -0.000036231880 Rises=F Damp=F
 DIIS: error= 1.19D-04 at cycle  10 NSaved=  10.
 NSaved=10 IEnMin=10 EnMin= -3010.53946166755     IErMin=10 ErrMin= 1.19D-04
 ErrMax= 1.19D-04  0.00D+00 EMaxC= 1.00D-01 BMatC= 5.73D-06 BMatP= 2.77D-05
 IDIUse=3 WtCom= 9.99D-01 WtEn= 1.19D-03
 Coeff-Com: -0.124D-02 0.187D-02-0.112D-03 0.693D-02 0.338D-02-0.303D-01
 Coeff-Com: -0.112D+00-0.425D-01 0.266D+00 0.908D+00
 Coeff-En:   0.000D+00 0.000D+00 0.000D+00 0.000D+00 0.000D+00 0.000D+00
 Coeff-En:   0.000D+00 0.000D+00 0.000D+00 0.100D+01
 Coeff:     -0.124D-02 0.187D-02-0.112D-03 0.692D-02 0.337D-02-0.303D-01
 Coeff:     -0.112D+00-0.425D-01 0.266D+00 0.908D+00
 Gap=     0.213 Goal=   None    Shift=    0.000
 RMSDP=8.42D-05 MaxDP=4.58D-03 DE=-3.62D-05 OVMax= 2.03D-03

 Cycle  11  Pass 1  IDiag  1:
 RMSU=  2.55D-05    CP:  4.54D-01  7.18D-01  9.72D-01  7.78D-01  8.75D-01
                    CP:  1.09D+00  1.11D+00  1.21D+00  1.44D+00  1.42D+00
 E= -3010.53947056425     Delta-E=       -0.000008896697 Rises=F Damp=F
 DIIS: error= 5.73D-05 at cycle  11 NSaved=  11.
 NSaved=11 IEnMin=11 EnMin= -3010.53947056425     IErMin=11 ErrMin= 5.73D-05
 ErrMax= 5.73D-05  0.00D+00 EMaxC= 1.00D-01 BMatC= 8.62D-07 BMatP= 5.73D-06
 IDIUse=1 WtCom= 1.00D+00 WtEn= 0.00D+00
 Coeff-Com: -0.221D-03 0.362D-03-0.183D-04 0.266D-02 0.298D-02 0.990D-03
 Coeff-Com: -0.172D-01-0.450D-01-0.112D+00 0.234D+00 0.933D+00
 Coeff:     -0.221D-03 0.362D-03-0.183D-04 0.266D-02 0.298D-02 0.990D-03
 Coeff:     -0.172D-01-0.450D-01-0.112D+00 0.234D+00 0.933D+00
 Gap=     0.213 Goal=   None    Shift=    0.000
 RMSDP=3.24D-05 MaxDP=1.48D-03 DE=-8.90D-06 OVMax= 1.19D-03

 Cycle  12  Pass 1  IDiag  1:
 RMSU=  1.36D-05    CP:  4.54D-01  7.18D-01  9.73D-01  7.77D-01  8.75D-01
                    CP:  1.09D+00  1.11D+00  1.24D+00  1.50D+00  1.71D+00
                    CP:  1.14D+00
 E= -3010.53947261670     Delta-E=       -0.000002052445 Rises=F Damp=F
 DIIS: error= 2.36D-05 at cycle  12 NSaved=  12.
 NSaved=12 IEnMin=12 EnMin= -3010.53947261670     IErMin=12 ErrMin= 2.36D-05
 ErrMax= 2.36D-05  0.00D+00 EMaxC= 1.00D-01 BMatC= 8.20D-08 BMatP= 8.62D-07
 IDIUse=1 WtCom= 1.00D+00 WtEn= 0.00D+00
 Coeff-Com: -0.129D-04 0.120D-04 0.297D-04-0.273D-03 0.135D-03 0.524D-02
 Coeff-Com:  0.137D-01-0.693D-03-0.530D-01-0.816D-01 0.234D+00 0.883D+00
 Coeff:     -0.129D-04 0.120D-04 0.297D-04-0.273D-03 0.135D-03 0.524D-02
 Coeff:      0.137D-01-0.693D-03-0.530D-01-0.816D-01 0.234D+00 0.883D+00
 Gap=     0.213 Goal=   None    Shift=    0.000
 RMSDP=1.09D-05 MaxDP=5.63D-04 DE=-2.05D-06 OVMax= 5.15D-04

 Cycle  13  Pass 1  IDiag  1:
 RMSU=  6.21D-06    CP:  4.54D-01  7.18D-01  9.72D-01  7.77D-01  8.75D-01
                    CP:  1.09D+00  1.11D+00  1.24D+00  1.52D+00  1.78D+00
                    CP:  1.37D+00  1.27D+00
 E= -3010.53947296112     Delta-E=       -0.000000344428 Rises=F Damp=F
 DIIS: error= 1.24D-05 at cycle  13 NSaved=  13.
 NSaved=13 IEnMin=13 EnMin= -3010.53947296112     IErMin=13 ErrMin= 1.24D-05
 ErrMax= 1.24D-05  0.00D+00 EMaxC= 1.00D-01 BMatC= 1.71D-08 BMatP= 8.20D-08
 IDIUse=1 WtCom= 1.00D+00 WtEn= 0.00D+00
 Coeff-Com:  0.326D-04-0.577D-04-0.538D-05-0.456D-03-0.356D-03 0.185D-02
 Coeff-Com:  0.642D-02 0.666D-02 0.274D-02-0.668D-01-0.774D-01 0.267D+00
 Coeff-Com:  0.860D+00
 Coeff:      0.326D-04-0.577D-04-0.538D-05-0.456D-03-0.356D-03 0.185D-02
 Coeff:      0.642D-02 0.666D-02 0.274D-02-0.668D-01-0.774D-01 0.267D+00
 Coeff:      0.860D+00
 Gap=     0.213 Goal=   None    Shift=    0.000
 RMSDP=6.05D-06 MaxDP=3.42D-04 DE=-3.44D-07 OVMax= 3.33D-04

 Cycle  14  Pass 1  IDiag  1:
 RMSU=  1.83D-06    CP:  4.54D-01  7.18D-01  9.72D-01  7.77D-01  8.75D-01
                    CP:  1.09D+00  1.11D+00  1.24D+00  1.52D+00  1.82D+00
                    CP:  1.43D+00  1.54D+00  1.36D+00
 E= -3010.53947306529     Delta-E=       -0.000000104165 Rises=F Damp=F
 DIIS: error= 6.29D-06 at cycle  14 NSaved=  14.
 NSaved=14 IEnMin=14 EnMin= -3010.53947306529     IErMin=14 ErrMin= 6.29D-06
 ErrMax= 6.29D-06  0.00D+00 EMaxC= 1.00D-01 BMatC= 5.10D-09 BMatP= 1.71D-08
 IDIUse=1 WtCom= 1.00D+00 WtEn= 0.00D+00
 Coeff-Com:  0.322D-04-0.471D-04-0.179D-04-0.871D-04-0.164D-03-0.823D-03
 Coeff-Com: -0.216D-02 0.110D-02 0.137D-01 0.396D-02-0.642D-01-0.154D+00
 Coeff-Com:  0.198D+00 0.101D+01
 Coeff:      0.322D-04-0.471D-04-0.179D-04-0.871D-04-0.164D-03-0.823D-03
 Coeff:     -0.216D-02 0.110D-02 0.137D-01 0.396D-02-0.642D-01-0.154D+00
 Coeff:      0.198D+00 0.101D+01
 Gap=     0.213 Goal=   None    Shift=    0.000
 RMSDP=5.12D-06 MaxDP=3.36D-04 DE=-1.04D-07 OVMax= 2.45D-04

 Cycle  15  Pass 1  IDiag  1:
 RMSU=  1.43D-06    CP:  4.54D-01  7.18D-01  9.72D-01  7.77D-01  8.75D-01
                    CP:  1.09D+00  1.11D+00  1.25D+00  1.54D+00  1.84D+00
                    CP:  1.50D+00  1.68D+00  1.84D+00  1.30D+00
 E= -3010.53947310239     Delta-E=       -0.000000037101 Rises=F Damp=F
 DIIS: error= 3.17D-06 at cycle  15 NSaved=  15.
 NSaved=15 IEnMin=15 EnMin= -3010.53947310239     IErMin=15 ErrMin= 3.17D-06
 ErrMax= 3.17D-06  0.00D+00 EMaxC= 1.00D-01 BMatC= 1.84D-09 BMatP= 5.10D-09
 IDIUse=1 WtCom= 1.00D+00 WtEn= 0.00D+00
 Coeff-Com:  0.154D-04-0.190D-04 0.304D-05 0.917D-04-0.292D-05-0.923D-03
 Coeff-Com: -0.256D-02-0.806D-03 0.642D-02 0.209D-01 0.216D-02-0.121D+00
 Coeff-Com: -0.149D+00 0.256D+00 0.989D+00
 Coeff:      0.154D-04-0.190D-04 0.304D-05 0.917D-04-0.292D-05-0.923D-03
 Coeff:     -0.256D-02-0.806D-03 0.642D-02 0.209D-01 0.216D-02-0.121D+00
 Coeff:     -0.149D+00 0.256D+00 0.989D+00
 Gap=     0.213 Goal=   None    Shift=    0.000
 RMSDP=2.40D-06 MaxDP=1.14D-04 DE=-3.71D-08 OVMax= 1.24D-04

 Cycle  16  Pass 1  IDiag  1:
 RMSU=  6.63D-07    CP:  4.54D-01  7.18D-01  9.72D-01  7.77D-01  8.76D-01
                    CP:  1.09D+00  1.11D+00  1.25D+00  1.54D+00  1.85D+00
                    CP:  1.54D+00  1.73D+00  2.04D+00  1.67D+00  1.40D+00
 E= -3010.53947311179     Delta-E=       -0.000000009395 Rises=F Damp=F
 DIIS: error= 1.31D-06 at cycle  16 NSaved=  16.
 NSaved=16 IEnMin=16 EnMin= -3010.53947311179     IErMin=16 ErrMin= 1.31D-06
 ErrMax= 1.31D-06  0.00D+00 EMaxC= 1.00D-01 BMatC= 3.06D-10 BMatP= 1.84D-09
 IDIUse=1 WtCom= 1.00D+00 WtEn= 0.00D+00
 Coeff-Com:  0.587D-05-0.689D-05 0.102D-04 0.426D-04 0.241D-04-0.121D-03
 Coeff-Com: -0.368D-03-0.746D-03-0.211D-02 0.609D-02 0.200D-01 0.285D-02
 Coeff-Com: -0.920D-01-0.219D+00 0.353D+00 0.932D+00
 Coeff:      0.587D-05-0.689D-05 0.102D-04 0.426D-04 0.241D-04-0.121D-03
 Coeff:     -0.368D-03-0.746D-03-0.211D-02 0.609D-02 0.200D-01 0.285D-02
 Coeff:     -0.920D-01-0.219D+00 0.353D+00 0.932D+00
 Gap=     0.213 Goal=   None    Shift=    0.000
 RMSDP=1.32D-06 MaxDP=6.72D-05 DE=-9.39D-09 OVMax= 6.72D-05

 Cycle  17  Pass 1  IDiag  1:
 RMSU=  2.91D-07    CP:  4.54D-01  7.18D-01  9.72D-01  7.77D-01  8.76D-01
                    CP:  1.09D+00  1.11D+00  1.25D+00  1.54D+00  1.85D+00
                    CP:  1.56D+00  1.76D+00  2.15D+00  1.78D+00  1.70D+00
                    CP:  1.16D+00
 E= -3010.53947311357     Delta-E=       -0.000000001789 Rises=F Damp=F
 DIIS: error= 3.16D-07 at cycle  17 NSaved=  17.
 NSaved=17 IEnMin=17 EnMin= -3010.53947311357     IErMin=17 ErrMin= 3.16D-07
 ErrMax= 3.16D-07  0.00D+00 EMaxC= 1.00D-01 BMatC= 3.37D-11 BMatP= 3.06D-10
 IDIUse=1 WtCom= 1.00D+00 WtEn= 0.00D+00
 Coeff-Com:  0.541D-06-0.725D-06 0.113D-05-0.621D-05 0.149D-04 0.141D-03
 Coeff-Com:  0.339D-03-0.140D-03-0.190D-02-0.145D-02 0.339D-02 0.160D-01
 Coeff-Com:  0.561D-02-0.907D-01-0.528D-01 0.249D+00 0.872D+00
 Coeff:      0.541D-06-0.725D-06 0.113D-05-0.621D-05 0.149D-04 0.141D-03
 Coeff:      0.339D-03-0.140D-03-0.190D-02-0.145D-02 0.339D-02 0.160D-01
 Coeff:      0.561D-02-0.907D-01-0.528D-01 0.249D+00 0.872D+00
 Gap=     0.213 Goal=   None    Shift=    0.000
 RMSDP=3.82D-07 MaxDP=1.64D-05 DE=-1.79D-09 OVMax= 1.95D-05

 Cycle  18  Pass 1  IDiag  1:
 RMSU=  9.19D-08    CP:  4.54D-01  7.18D-01  9.72D-01  7.77D-01  8.76D-01
                    CP:  1.09D+00  1.11D+00  1.25D+00  1.54D+00  1.86D+00
                    CP:  1.56D+00  1.77D+00  2.17D+00  1.78D+00  1.76D+00
                    CP:  1.31D+00  1.15D+00
 E= -3010.53947311372     Delta-E=       -0.000000000150 Rises=F Damp=F
 DIIS: error= 1.49D-07 at cycle  18 NSaved=  18.
 NSaved=18 IEnMin=18 EnMin= -3010.53947311372     IErMin=18 ErrMin= 1.49D-07
 ErrMax= 1.49D-07  0.00D+00 EMaxC= 1.00D-01 BMatC= 6.70D-12 BMatP= 3.37D-11
 IDIUse=1 WtCom= 1.00D+00 WtEn= 0.00D+00
 Coeff-Com:  0.393D-07-0.124D-06-0.501D-06-0.555D-05 0.501D-05 0.636D-04
 Coeff-Com:  0.155D-03 0.412D-05-0.542D-03-0.105D-02-0.143D-02 0.490D-02
 Coeff-Com:  0.142D-01-0.917D-02-0.540D-01-0.141D-01 0.310D+00 0.751D+00
 Coeff:      0.393D-07-0.124D-06-0.501D-06-0.555D-05 0.501D-05 0.636D-04
 Coeff:      0.155D-03 0.412D-05-0.542D-03-0.105D-02-0.143D-02 0.490D-02
 Coeff:      0.142D-01-0.917D-02-0.540D-01-0.141D-01 0.310D+00 0.751D+00
 Gap=     0.213 Goal=   None    Shift=    0.000
 RMSDP=1.31D-07 MaxDP=6.58D-06 DE=-1.50D-10 OVMax= 4.73D-06

 Cycle  19  Pass 1  IDiag  1:
 RMSU=  2.97D-08    CP:  4.54D-01  7.18D-01  9.72D-01  7.77D-01  8.76D-01
                    CP:  1.09D+00  1.11D+00  1.25D+00  1.54D+00  1.86D+00
                    CP:  1.56D+00  1.77D+00  2.16D+00  1.78D+00  1.75D+00
                    CP:  1.34D+00  1.24D+00  1.15D+00
 E= -3010.53947311372     Delta-E=        0.000000000005 Rises=F Damp=F
 DIIS: error= 9.41D-08 at cycle  19 NSaved=  19.
 NSaved=19 IEnMin=18 EnMin= -3010.53947311372     IErMin=19 ErrMin= 9.41D-08
 ErrMax= 9.41D-08  0.00D+00 EMaxC= 1.00D-01 BMatC= 8.66D-13 BMatP= 6.70D-12
 IDIUse=1 WtCom= 1.00D+00 WtEn= 0.00D+00
 Coeff-Com: -0.806D-07 0.117D-06-0.107D-06 0.143D-05-0.161D-05-0.226D-04
 Coeff-Com: -0.484D-04 0.188D-04 0.273D-03 0.292D-03-0.974D-03-0.235D-02
 Coeff-Com:  0.195D-02 0.136D-01 0.177D-02-0.502D-01-0.125D+00 0.120D+00
 Coeff-Com:  0.104D+01
 Coeff:     -0.806D-07 0.117D-06-0.107D-06 0.143D-05-0.161D-05-0.226D-04
 Coeff:     -0.484D-04 0.188D-04 0.273D-03 0.292D-03-0.974D-03-0.235D-02
 Coeff:      0.195D-02 0.136D-01 0.177D-02-0.502D-01-0.125D+00 0.120D+00
 Coeff:      0.104D+01
 Gap=     0.213 Goal=   None    Shift=    0.000
 RMSDP=8.05D-08 MaxDP=3.95D-06 DE= 4.55D-12 OVMax= 2.81D-06

 Cycle  20  Pass 1  IDiag  1:
 RMSU=  1.41D-08    CP:  4.54D-01  7.18D-01  9.72D-01  7.77D-01  8.76D-01
                    CP:  1.09D+00  1.11D+00  1.25D+00  1.54D+00  1.86D+00
                    CP:  1.57D+00  1.77D+00  2.16D+00  1.78D+00  1.75D+00
                    CP:  1.37D+00  1.28D+00  1.36D+00  1.67D+00
 E= -3010.53947311377     Delta-E=       -0.000000000047 Rises=F Damp=F
 DIIS: error= 3.81D-08 at cycle  20 NSaved=  20.
 NSaved=20 IEnMin=20 EnMin= -3010.53947311377     IErMin=20 ErrMin= 3.81D-08
 ErrMax= 3.81D-08  0.00D+00 EMaxC= 1.00D-01 BMatC= 1.24D-13 BMatP= 8.66D-13
 IDIUse=1 WtCom= 1.00D+00 WtEn= 0.00D+00
 Coeff-Com: -0.282D-07 0.468D-07 0.385D-07 0.499D-06-0.197D-06-0.530D-05
 Coeff-Com: -0.146D-04-0.489D-05 0.251D-04 0.904D-04 0.227D-03-0.480D-03
 Coeff-Com: -0.164D-02 0.494D-03 0.495D-02 0.946D-02-0.238D-01-0.120D+00
 Coeff-Com: -0.875D-01 0.122D+01
 Coeff:     -0.282D-07 0.468D-07 0.385D-07 0.499D-06-0.197D-06-0.530D-05
 Coeff:     -0.146D-04-0.489D-05 0.251D-04 0.904D-04 0.227D-03-0.480D-03
 Coeff:     -0.164D-02 0.494D-03 0.495D-02 0.946D-02-0.238D-01-0.120D+00
 Coeff:     -0.875D-01 0.122D+01
 Gap=     0.213 Goal=   None    Shift=    0.000
 RMSDP=3.31D-08 MaxDP=1.35D-06 DE=-4.73D-11 OVMax= 1.44D-06

 Cycle  21  Pass 1  IDiag  1:
 Restarting incremental Fock formation.
 E= -3010.53947311372     Delta-E=        0.000000000043 Rises=F Damp=F
 DIIS: error= 1.42D-08 at cycle  21 NSaved=  20.
 NSaved=20 IEnMin=19 EnMin= -3010.53947311377     IErMin=20 ErrMin= 1.42D-08
 ErrMax= 1.42D-08  0.00D+00 EMaxC= 1.00D-01 BMatC= 2.69D-14 BMatP= 1.24D-13
 IDIUse=1 WtCom= 1.00D+00 WtEn= 0.00D+00
 Coeff-Com: -0.292D-09 0.128D-07-0.222D-06 0.407D-06 0.341D-05 0.586D-05
 Coeff-Com: -0.556D-05-0.478D-04-0.476D-04 0.222D-03 0.267D-03-0.683D-03
 Coeff-Com: -0.194D-02 0.246D-03 0.121D-01 0.167D-01-0.434D-01-0.211D+00
 Coeff-Com:  0.216D+00 0.101D+01
 Coeff:     -0.292D-09 0.128D-07-0.222D-06 0.407D-06 0.341D-05 0.586D-05
 Coeff:     -0.556D-05-0.478D-04-0.476D-04 0.222D-03 0.267D-03-0.683D-03
 Coeff:     -0.194D-02 0.246D-03 0.121D-01 0.167D-01-0.434D-01-0.211D+00
 Coeff:      0.216D+00 0.101D+01
 Gap=     0.213 Goal=   None    Shift=    0.000
 RMSDP=1.31D-08 MaxDP=5.00D-07 DE= 4.27D-11 OVMax= 6.53D-07

 Cycle  22  Pass 1  IDiag  1:
 RMSU=  1.30D-08    CP:  1.00D+00
 E= -3010.53947311377     Delta-E=       -0.000000000048 Rises=F Damp=F
 DIIS: error= 4.30D-09 at cycle  22 NSaved=  20.
 NSaved=20 IEnMin=20 EnMin= -3010.53947311377     IErMin=20 ErrMin= 4.30D-09
 ErrMax= 4.30D-09  0.00D+00 EMaxC= 1.00D-01 BMatC= 3.34D-15 BMatP= 2.69D-14
 IDIUse=1 WtCom= 1.00D+00 WtEn= 0.00D+00
 Large coefficients: NSaved= 20 BigCof=    0.00 CofMax=   10.00 Det=-6.55D-15
 Inversion failed.  Reducing to 19 matrices.
 Large coefficients: NSaved= 19 BigCof=    0.00 CofMax=   10.00 Det=-7.32D-15
 Inversion failed.  Reducing to 18 matrices.
 Large coefficients: NSaved= 18 BigCof=    0.00 CofMax=   10.00 Det=-7.54D-15
 Inversion failed.  Reducing to 17 matrices.
 Large coefficients: NSaved= 17 BigCof=    0.00 CofMax=   10.00 Det=-8.88D-15
 Inversion failed.  Reducing to 16 matrices.
 Large coefficients: NSaved= 16 BigCof=    0.00 CofMax=   10.00 Det=-8.97D-15
 Inversion failed.  Reducing to 15 matrices.
 Coeff-Com:  0.825D-06 0.595D-05-0.760D-05-0.349D-04 0.140D-05 0.255D-03
 Coeff-Com:  0.264D-03-0.704D-03-0.192D-02-0.194D-02 0.248D-01 0.242D-01
 Coeff-Com: -0.193D+00-0.787D-01 0.123D+01
 Coeff:      0.825D-06 0.595D-05-0.760D-05-0.349D-04 0.140D-05 0.255D-03
 Coeff:      0.264D-03-0.704D-03-0.192D-02-0.194D-02 0.248D-01 0.242D-01
 Coeff:     -0.193D+00-0.787D-01 0.123D+01
 Gap=     0.213 Goal=   None    Shift=    0.000
 RMSDP=5.00D-09 MaxDP=1.81D-07 DE=-4.82D-11 OVMax= 2.51D-07

 SCF Done:  E(RwB97XD) =  -3010.53947311     A.U. after   22 cycles
            NFock= 22  Conv=0.50D-08     -V/T= 2.0016
 KE= 3.005858902378D+03 PE=-8.630029732734D+03 EE= 1.876616339703D+03
 Leave Link  502 at Wed May  1 14:49:08 2024, MaxMem=  1207959552 cpu:            1225.4 elap:            1225.8
 (Enter /software/gaussian/g16-c01/sse4/g16/l601.exe)
 Copying SCF densities to generalized density rwf, IOpCl= 0 IROHF=0.

 **********************************************************************

            Population analysis using the SCF Density.

 **********************************************************************

 Alpha  occ. eigenvalues -- -483.30429 -62.85471 -56.65140 -56.64601 -56.64598
 Alpha  occ. eigenvalues --  -19.39806 -19.39737 -14.79416 -10.57225 -10.55371
 Alpha  occ. eigenvalues --  -10.55293 -10.54478 -10.54135 -10.51740  -9.01289
 Alpha  occ. eigenvalues --   -6.83903  -6.82130  -6.82117  -2.93823  -2.93350
 Alpha  occ. eigenvalues --   -2.93338  -2.91920  -2.91920  -1.43570  -1.26474
 Alpha  occ. eigenvalues --   -1.20663  -1.11989  -1.09747  -1.03121  -0.97710
 Alpha  occ. eigenvalues --   -0.93571  -0.88504  -0.82545  -0.78359  -0.77061
 Alpha  occ. eigenvalues --   -0.75794  -0.74710  -0.73714  -0.70654  -0.69856
 Alpha  occ. eigenvalues --   -0.67635  -0.65515  -0.61773  -0.58569  -0.55909
 Alpha  occ. eigenvalues --   -0.54054  -0.50801  -0.49551  -0.49291
 Alpha virt. eigenvalues --   -0.27977  -0.17410  -0.14506  -0.11257  -0.09947
 Alpha virt. eigenvalues --   -0.07807  -0.06297  -0.05869  -0.03364  -0.02337
 Alpha virt. eigenvalues --   -0.01932  -0.00790  -0.00672  -0.00290   0.00287
 Alpha virt. eigenvalues --    0.02077   0.02455   0.03119   0.03728   0.04031
 Alpha virt. eigenvalues --    0.05145   0.06575   0.07086   0.07721   0.08379
 Alpha virt. eigenvalues --    0.08971   0.09322   0.10079   0.11030   0.11255
 Alpha virt. eigenvalues --    0.11958   0.13279   0.14146   0.14368   0.14785
 Alpha virt. eigenvalues --    0.15687   0.16710   0.17785   0.18997   0.19559
 Alpha virt. eigenvalues --    0.19716   0.20795   0.21310   0.22278   0.22982
 Alpha virt. eigenvalues --    0.23381   0.26126   0.26884   0.28298   0.28634
 Alpha virt. eigenvalues --    0.29560   0.31322   0.32018   0.32668   0.34613
 Alpha virt. eigenvalues --    0.35141   0.35482   0.37976   0.38176   0.40085
 Alpha virt. eigenvalues --    0.40521   0.41506   0.42678   0.42991   0.43482
 Alpha virt. eigenvalues --    0.44937   0.46745   0.47492   0.48641   0.49970
 Alpha virt. eigenvalues --    0.51156   0.51778   0.52823   0.54075   0.55723
 Alpha virt. eigenvalues --    0.57233   0.58031   0.59181   0.59815   0.61636
 Alpha virt. eigenvalues --    0.62456   0.64767   0.65332   0.67836   0.69713
 Alpha virt. eigenvalues --    0.72060   0.72857   0.74573   0.75247   0.76308
 Alpha virt. eigenvalues --    0.77984   0.82526   0.83416   0.85517   0.87369
 Alpha virt. eigenvalues --    0.88360   0.92131   0.95161   0.96166   1.02767
 Alpha virt. eigenvalues --    1.03710   1.05779   1.07227   1.08657   1.09206
 Alpha virt. eigenvalues --    1.12565   1.15232   1.17824   1.18595   1.20960
 Alpha virt. eigenvalues --    1.27907   1.28367   1.30787   1.34969   1.38634
 Alpha virt. eigenvalues --    1.39045   1.39916   1.46984   1.56931   1.59654
 Alpha virt. eigenvalues --    1.61341   1.61498   1.64304   1.66438   1.68165
 Alpha virt. eigenvalues --    1.71829   1.73062   1.75258   1.79921   1.81324
 Alpha virt. eigenvalues --    1.82612   1.88345   1.90255   1.94227   1.96581
 Alpha virt. eigenvalues --    2.00810   2.05590   2.07150   2.08696   2.10000
 Alpha virt. eigenvalues --    2.11800   2.16704   2.22474   2.26281   2.31069
 Alpha virt. eigenvalues --    2.40318   2.44629   2.45411   2.46763   2.54439
 Alpha virt. eigenvalues --    2.58531   2.65301   2.68303   2.70568   2.76475
 Alpha virt. eigenvalues --    2.78382   2.81182   2.82005   2.83791   2.87288
 Alpha virt. eigenvalues --    2.95214   2.98422   3.06312   3.07554   3.11605
 Alpha virt. eigenvalues --    3.15189   3.17412   3.21310   3.26361   3.29312
 Alpha virt. eigenvalues --    3.33620   3.42829   3.49385   3.54686   3.58149
 Alpha virt. eigenvalues --    3.61901   3.75744   3.80137   3.84234   3.89349
 Alpha virt. eigenvalues --    4.09541   4.09781   4.17424   4.22583   4.43454
 Alpha virt. eigenvalues --    4.50651   4.59389   4.65178   4.99568   5.02294
 Alpha virt. eigenvalues --    5.10915   5.15079   5.68888   6.22077   6.65281
 Alpha virt. eigenvalues --    7.48210   7.49788   7.59645  23.23134  23.63206
 Alpha virt. eigenvalues --   23.70796  23.81507  23.97725  24.03716  35.38529
 Alpha virt. eigenvalues --   47.91947  49.91650  50.00462 289.81294 289.82963
 Alpha virt. eigenvalues --  289.954211020.92396
          Condensed to atoms (all electrons):
               1          2          3          4          5          6
     1  C    9.773531  -2.902879   0.186733  -1.978710  -0.748072   0.308214
     2  C   -2.902879  13.593775  -1.992169  -2.005777   0.501008   0.002103
     3  C    0.186733  -1.992169  13.834603  -4.008657  -1.262683   0.027417
     4  C   -1.978710  -2.005777  -4.008657  16.678050   1.190198   0.011802
     5  C   -0.748072   0.501008  -1.262683   1.190198   8.061047  -0.004749
     6  H    0.308214   0.002103   0.027417   0.011802  -0.004749   0.359756
     7  H    0.092878   0.199055   0.074286  -0.036207  -0.017687  -0.001757
     8  H    0.009102  -0.018301   0.091049   0.197542  -0.031052  -0.000001
     9  H    0.054476  -0.035609   0.012793  -0.014292   0.270719  -0.003089
    10  N   -0.222680   0.406839  -0.950419   0.401055  -0.002601  -0.000696
    11  O    0.002347  -0.124992  -0.261891   0.021712  -0.067556  -0.000028
    12  O    0.408881  -0.035052  -0.268372  -0.163396  -0.044064   0.000070
    13  C    1.562759  -2.091823   1.188216  -4.566106  -1.869627  -0.008228
    14  H   -0.026501   0.013298  -0.006819  -0.082842   0.046342  -0.000038
    15  Br   0.023300   0.028073   0.006011   0.032092   0.003246  -0.000323
               7          8          9         10         11         12
     1  C    0.092878   0.009102   0.054476  -0.222680   0.002347   0.408881
     2  C    0.199055  -0.018301  -0.035609   0.406839  -0.124992  -0.035052
     3  C    0.074286   0.091049   0.012793  -0.950419  -0.261891  -0.268372
     4  C   -0.036207   0.197542  -0.014292   0.401055   0.021712  -0.163396
     5  C   -0.017687  -0.031052   0.270719  -0.002601  -0.067556  -0.044064
     6  H   -0.001757  -0.000001  -0.003089  -0.000696  -0.000028   0.000070
     7  H    0.283665   0.000000   0.000026  -0.026867  -0.001551   0.029308
     8  H    0.000000   0.276981   0.000097  -0.024894   0.028649  -0.000760
     9  H    0.000026   0.000097   0.381746   0.000292   0.000012   0.000010
    10  N   -0.026867  -0.024894   0.000292   7.596811   0.093635   0.059196
    11  O   -0.001551   0.028649   0.000012   0.093635   7.839997   0.014094
    12  O    0.029308  -0.000760   0.000010   0.059196   0.014094   7.876895
    13  C    0.018343   0.077839   0.041674  -0.224982   0.371586   0.039262
    14  H   -0.000024  -0.003152  -0.006937   0.000910  -0.000400  -0.000080
    15  Br   0.000056   0.006275   0.001540   0.007985  -0.000147   0.002130
              13         14         15
     1  C    1.562759  -0.026501   0.023300
     2  C   -2.091823   0.013298   0.028073
     3  C    1.188216  -0.006819   0.006011
     4  C   -4.566106  -0.082842   0.032092
     5  C   -1.869627   0.046342   0.003246
     6  H   -0.008228  -0.000038  -0.000323
     7  H    0.018343  -0.000024   0.000056
     8  H    0.077839  -0.003152   0.006275
     9  H    0.041674  -0.006937   0.001540
    10  N   -0.224982   0.000910   0.007985
    11  O    0.371586  -0.000400  -0.000147
    12  O    0.039262  -0.000080   0.002130
    13  C   11.524974   0.366078   0.052944
    14  H    0.366078   0.362303  -0.047206
    15  Br   0.052944  -0.047206  34.770237
 Mulliken charges:
               1
     1  C   -0.543377
     2  C    0.462449
     3  C   -0.670098
     4  C    0.323535
     5  C   -0.024470
     6  H    0.309549
     7  H    0.386477
     8  H    0.390627
     9  H    0.296542
    10  N   -0.113585
    11  O    0.084533
    12  O    0.081876
    13  C   -0.482909
    14  H    0.385068
    15  Br   0.113785
 Sum of Mulliken charges =   1.00000
 Mulliken charges with hydrogens summed into heavy atoms:
               1
     1  C   -0.233829
     2  C    0.848926
     3  C   -0.670098
     4  C    0.714161
     5  C    0.272072
    10  N   -0.113585
    11  O    0.084533
    12  O    0.081876
    13  C   -0.097842
    15  Br   0.113785
 Electronic spatial extent (au):  <R**2>=           2793.3958
 Charge=              1.0000 electrons
 Dipole moment (field-independent basis, Debye):
    X=              2.6519    Y=             -0.2017    Z=              0.2577  Tot=              2.6720
 Quadrupole moment (field-independent basis, Debye-Ang):
   XX=            -63.2608   YY=            -52.3965   ZZ=            -63.5024
   XY=              0.7064   XZ=              0.2127   YZ=              0.8707
 Traceless Quadrupole moment (field-independent basis, Debye-Ang):
   XX=             -3.5409   YY=              7.3234   ZZ=             -3.7825
   XY=              0.7064   XZ=              0.2127   YZ=              0.8707
 Octapole moment (field-independent basis, Debye-Ang**2):
  XXX=           -252.0163  YYY=             90.4696  ZZZ=             79.5134  XYY=            -67.9872
  XXY=             31.6895  XXZ=             32.5707  XZZ=            -74.3229  YZZ=             18.2080
  YYZ=             27.1540  XYZ=             -1.7231
 Hexadecapole moment (field-independent basis, Debye-Ang**3):
 XXXX=          -2079.4697 YYYY=           -683.5885 ZZZZ=           -354.3936 XXXY=            -69.0235
 XXXZ=            -27.5042 YYYX=            -63.7449 YYYZ=           -160.5873 ZZZX=            -22.8968
 ZZZY=           -140.3350 XXYY=           -441.4569 XXZZ=           -368.0557 YYZZ=           -167.7961
 XXYZ=            -56.8327 YYXZ=             -6.0435 ZZXY=            -11.9747
 N-N= 7.370150175393D+02 E-N=-8.630029732247D+03  KE= 3.005858902378D+03
 No NMR shielding tensors so no spin-rotation constants.
 Leave Link  601 at Wed May  1 14:49:16 2024, MaxMem=  1207959552 cpu:               7.5 elap:               7.6
 (Enter /software/gaussian/g16-c01/sse4/g16/l9999.exe)
 Unable to Open any file for archive entry.
 1\1\GINC-BHX0010\SP\RwB97XD\6-311+G(d)\C6H5Br1N1O2(1+)\BWEIGHT\01-May-
 2024\0\\#P wB97XD/6-311+G* NoSymm #P Field=X-116\\TitleMe\\1,1\C,0,0.0
 295,1.3397,0.0682\C,0,1.4348,1.2867,0.0064\C,0,2.1118,0.0511,-0.0054\C
 ,0,1.4451,-1.1372,0.0312\C,0,-0.6879,0.1682,0.11\H,0,-0.4713,2.2984,0.
 0781\H,0,2.0273,2.1965,-0.0322\H,0,1.9897,-2.0764,0.0232\H,0,-1.7716,0
 .1804,0.1582\N,0,3.5864,0.051,-0.0675\O,0,4.1471,-1.0597,-0.0881\O,0,4
 .145,1.1639,-0.0901\C,0,-0.0236,-1.1458,0.0835\H,0,-0.4367,-1.8725,0.7
 889\Br,0,-0.5359,-1.8697,-1.7408\\Version=ES64L-G16RevC.01\HF=-3010.53
 94731\RMSD=4.996e-09\Dipole=-0.8632105,1.0687241,1.2475576\Quadrupole=
 -2.6325713,5.4447655,-2.8121942,0.5251667,0.1581307,0.6473154\PG=C01 [
 X(C6H5Br1N1O2)]\\@
 The archive entry for this job was punched.


 "MATHEMATICS IS THE ART OF GIVING THE SAME NAME
 TO DIFFERENT THINGS."
                    - H. POINCARE
 Job cpu time:       0 days  0 hours 21 minutes 32.5 seconds.
 Elapsed time:       0 days  0 hours 21 minutes 32.8 seconds.
 File lengths (MBytes):  RWF=     40 Int=      0 D2E=      0 Chk=     32 Scr=      1
 Normal termination of Gaussian 16 at Wed May  1 14:49:17 2024.
