 Entering Gaussian System, Link 0=g16
 Initial command:
 /software/gaussian/g16-a03/l1.exe "/local_scratch/6484942/Gau-8712.inp" -scrdir="/local_scratch/6484942/"
 Entering Link 1 = /software/gaussian/g16-a03/l1.exe PID=      8713.
  
 Copyright (c) 1988,1990,1992,1993,1995,1998,2003,2009,2016,
            Gaussian, Inc.  All Rights Reserved.
  
 This is part of the Gaussian(R) 16 program.  It is based on
 the Gaussian(R) 09 system (copyright 2009, Gaussian, Inc.),
 the Gaussian(R) 03 system (copyright 2003, Gaussian, Inc.),
 the Gaussian(R) 98 system (copyright 1998, Gaussian, Inc.),
 the Gaussian(R) 94 system (copyright 1995, Gaussian, Inc.),
 the Gaussian 92(TM) system (copyright 1992, Gaussian, Inc.),
 the Gaussian 90(TM) system (copyright 1990, Gaussian, Inc.),
 the Gaussian 88(TM) system (copyright 1988, Gaussian, Inc.),
 the Gaussian 86(TM) system (copyright 1986, Carnegie Mellon
 University), and the Gaussian 82(TM) system (copyright 1983,
 Carnegie Mellon University). Gaussian is a federally registered
 trademark of Gaussian, Inc.
  
 This software contains proprietary and confidential information,
 including trade secrets, belonging to Gaussian, Inc.
  
 This software is provided under written license and may be
 used, copied, transmitted, or stored only in accord with that
 written license.
  
 The following legend is applicable only to US Government
 contracts under FAR:
  
                    RESTRICTED RIGHTS LEGEND
  
 Use, reproduction and disclosure by the US Government is
 subject to restrictions as set forth in subparagraphs (a)
 and (c) of the Commercial Computer Software - Restricted
 Rights clause in FAR 52.227-19.
  
 Gaussian, Inc.
 340 Quinnipiac St., Bldg. 40, Wallingford CT 06492
  
  
 ---------------------------------------------------------------
 Warning -- This program may not be used in any manner that
 competes with the business of Gaussian, Inc. or will provide
 assistance to any competitor of Gaussian, Inc.  The licensee
 of this program is prohibited from giving any competitor of
 Gaussian, Inc. access to this program.  By using this program,
 the user acknowledges that Gaussian, Inc. is engaged in the
 business of creating and licensing software in the field of
 computational chemistry and represents and warrants to the
 licensee that it is not a competitor of Gaussian, Inc. and that
 it will not use this program in any manner prohibited above.
 ---------------------------------------------------------------
  

 Cite this work as:
 Gaussian 16, Revision A.03,
 M. J. Frisch, G. W. Trucks, H. B. Schlegel, G. E. Scuseria, 
 M. A. Robb, J. R. Cheeseman, G. Scalmani, V. Barone, 
 G. A. Petersson, H. Nakatsuji, X. Li, M. Caricato, A. V. Marenich, 
 J. Bloino, B. G. Janesko, R. Gomperts, B. Mennucci, H. P. Hratchian, 
 J. V. Ortiz, A. F. Izmaylov, J. L. Sonnenberg, D. Williams-Young, 
 F. Ding, F. Lipparini, F. Egidi, J. Goings, B. Peng, A. Petrone, 
 T. Henderson, D. Ranasinghe, V. G. Zakrzewski, J. Gao, N. Rega, 
 G. Zheng, W. Liang, M. Hada, M. Ehara, K. Toyota, R. Fukuda, 
 J. Hasegawa, M. Ishida, T. Nakajima, Y. Honda, O. Kitao, H. Nakai, 
 T. Vreven, K. Throssell, J. A. Montgomery, Jr., J. E. Peralta, 
 F. Ogliaro, M. J. Bearpark, J. J. Heyd, E. N. Brothers, K. N. Kudin, 
 V. N. Staroverov, T. A. Keith, R. Kobayashi, J. Normand, 
 K. Raghavachari, A. P. Rendell, J. C. Burant, S. S. Iyengar, 
 J. Tomasi, M. Cossi, J. M. Millam, M. Klene, C. Adamo, R. Cammi, 
 J. W. Ochterski, R. L. Martin, K. Morokuma, O. Farkas, 
 J. B. Foresman, and D. J. Fox, Gaussian, Inc., Wallingford CT, 2016.
 
 ******************************************
 Gaussian 16:  ES64L-G16RevA.03 25-Dec-2016
                17-Sep-2021 
 ******************************************
 %chk=geometry.chk
 %mem=2GB
 %nprocshared=1
 Will use up to    1 processors via shared memory.
 --------------------------------------------------------------------
 #p B3LYP/6-311+G** #p TD=(singlets,nstates=30)IOp(6/8=3) IOp(9/40=4)
 --------------------------------------------------------------------
 1/38=1,172=1/1;
 2/12=2,17=6,18=5,40=1/2;
 3/5=4,6=6,7=111,11=9,25=1,30=1,74=-5/1,2,3,8;
 4//1;
 5/5=2,38=5/2;
 8/6=1,10=2,108=30/1;
 9/40=4,41=30,42=1,48=1,70=2/14;
 6/7=2,8=3,9=2,10=2/1;
 99/5=1,9=1/99;
 Leave Link    1 at Fri Sep 17 10:52:31 2021, MaxMem=   268435456 cpu:               0.0 elap:               0.4
 (Enter /software/gaussian/g16-a03/l101.exe)
 --------------------------------
 Scan Step 211, Bond Length 1.555
 --------------------------------
 Symbolic Z-matrix:
 Charge =  0 Multiplicity = 1
 C                     0.        0.       -0.52736 
 H                     0.        0.93726  -1.11871 
 H                     0.       -0.93726  -1.11871 
 O                     0.        0.        1.02764 
 
 ITRead=  0  0  0  0
 MicOpt= -1 -1 -1 -1
 NAtoms=      4 NQM=        4 NQMF=       0 NMMI=      0 NMMIF=      0
                NMic=       0 NMicF=      0.
                    Isotopes and Nuclear Properties:
 (Nuclear quadrupole moments (NQMom) in fm**2, nuclear magnetic moments (NMagM)
  in nuclear magnetons)

  Atom         1           2           3           4
 IAtWgt=          12           1           1          16
 AtmWgt=  12.0000000   1.0078250   1.0078250  15.9949146
 NucSpn=           0           1           1           0
 AtZEff=  -0.0000000  -0.0000000  -0.0000000  -0.0000000
 NQMom=    0.0000000   0.0000000   0.0000000   0.0000000
 NMagM=    0.0000000   2.7928460   2.7928460   0.0000000
 AtZNuc=   6.0000000   1.0000000   1.0000000   8.0000000
 Leave Link  101 at Fri Sep 17 10:52:32 2021, MaxMem=   268435456 cpu:               0.1 elap:               0.1
 (Enter /software/gaussian/g16-a03/l202.exe)
                          Input orientation:                          
 ---------------------------------------------------------------------
 Center     Atomic      Atomic             Coordinates (Angstroms)
 Number     Number       Type             X           Y           Z
 ---------------------------------------------------------------------
      1          6           0        0.000000    0.000000   -0.527360
      2          1           0        0.000000    0.937260   -1.118710
      3          1           0        0.000000   -0.937260   -1.118710
      4          8           0        0.000000    0.000000    1.027640
 ---------------------------------------------------------------------
                    Distance matrix (angstroms):
                    1          2          3          4
     1  C    0.000000
     2  H    1.108220   0.000000
     3  H    1.108220   1.874520   0.000000
     4  O    1.555000   2.342066   2.342066   0.000000
 Stoichiometry    CH2O
 Framework group  C2V[C2(CO),SGV(H2)]
 Deg. of freedom     3
 Full point group                 C2V     NOp   4
 Largest Abelian subgroup         C2V     NOp   4
 Largest concise Abelian subgroup C2      NOp   2
                         Standard orientation:                         
 ---------------------------------------------------------------------
 Center     Atomic      Atomic             Coordinates (Angstroms)
 Number     Number       Type             X           Y           Z
 ---------------------------------------------------------------------
      1          6           0        0.000000   -0.000000   -0.703581
      2          1           0        0.000000    0.937260   -1.294931
      3          1           0       -0.000000   -0.937260   -1.294931
      4          8           0        0.000000    0.000000    0.851419
 ---------------------------------------------------------------------
 Rotational constants (GHZ):         285.4183527          24.4192634          22.4947055
 Leave Link  202 at Fri Sep 17 10:52:32 2021, MaxMem=   268435456 cpu:               0.0 elap:               0.0
 (Enter /software/gaussian/g16-a03/l301.exe)
 Standard basis: 6-311+G(d,p) (5D, 7F)
 Ernie: Thresh=  0.10000D-02 Tol=  0.10000D-05 Strict=F.
 There are    29 symmetry adapted cartesian basis functions of A1  symmetry.
 There are     3 symmetry adapted cartesian basis functions of A2  symmetry.
 There are    11 symmetry adapted cartesian basis functions of B1  symmetry.
 There are    15 symmetry adapted cartesian basis functions of B2  symmetry.
 There are    27 symmetry adapted basis functions of A1  symmetry.
 There are     3 symmetry adapted basis functions of A2  symmetry.
 There are    11 symmetry adapted basis functions of B1  symmetry.
 There are    15 symmetry adapted basis functions of B2  symmetry.
    56 basis functions,    88 primitive gaussians,    58 cartesian basis functions
     8 alpha electrons        8 beta electrons
       nuclear repulsion energy        25.9621685841 Hartrees.
 IExCor=  402 DFT=T Ex+Corr=B3LYP ExCW=0 ScaHFX=  0.200000
 ScaDFX=  0.800000  0.720000  1.000000  0.810000 ScalE2=  1.000000  1.000000
 IRadAn=      5 IRanWt=     -1 IRanGd=            0 ICorTp=0 IEmpDi=  4
 NAtoms=    4 NActive=    4 NUniq=    3 SFac= 1.78D+00 NAtFMM=   60 NAOKFM=F Big=F
 Integral buffers will be    131072 words long.
 Regular integral format.
 Two-electron integral symmetry is turned on.
 Leave Link  301 at Fri Sep 17 10:52:32 2021, MaxMem=   268435456 cpu:               0.0 elap:               0.1
 (Enter /software/gaussian/g16-a03/l302.exe)
 NPDir=0 NMtPBC=     1 NCelOv=     1 NCel=       1 NClECP=     1 NCelD=      1
         NCelK=      1 NCelE2=     1 NClLst=     1 CellRange=     0.0.
 One-electron integrals computed using PRISM.
 One-electron integral symmetry used in STVInt
 NBasis=    56 RedAO= T EigKep=  9.01D-03  NBF=    27     3    11    15
 NBsUse=    56 1.00D-06 EigRej= -1.00D+00 NBFU=    27     3    11    15
 Precomputing XC quadrature grid using
 IXCGrd= 4 IRadAn=           5 IRanWt=          -1 IRanGd=           0 AccXCQ= 0.00D+00.
 Generated NRdTot=       0 NPtTot=           0 NUsed=           0 NTot=          32
 NSgBfM=    58    58    58    58    58 MxSgAt=     4 MxSgA2=     4.
 Leave Link  302 at Fri Sep 17 10:52:32 2021, MaxMem=   268435456 cpu:               0.1 elap:               0.1
 (Enter /software/gaussian/g16-a03/l303.exe)
 DipDrv:  MaxL=1.
 Leave Link  303 at Fri Sep 17 10:52:32 2021, MaxMem=   268435456 cpu:               0.0 elap:               0.1
 (Enter /software/gaussian/g16-a03/l308.exe)
 Leave Link  308 at Fri Sep 17 10:52:32 2021, MaxMem=   268435456 cpu:               0.0 elap:               0.0
 (Enter /software/gaussian/g16-a03/l401.exe)
 ExpMin= 4.38D-02 ExpMax= 8.59D+03 ExpMxC= 1.30D+03 IAcc=3 IRadAn=         5 AccDes= 0.00D+00
 Harris functional with IExCor=  402 and IRadAn=       5 diagonalized for initial guess.
 HarFok:  IExCor=  402 AccDes= 0.00D+00 IRadAn=         5 IDoV= 1 UseB2=F ITyADJ=14
 ICtDFT=  3500011 ScaDFX=  1.000000  1.000000  1.000000  1.000000
 FoFCou: FMM=F IPFlag=           0 FMFlag=      100000 FMFlg1=           0
         NFxFlg=           0 DoJE=T BraDBF=F KetDBF=T FulRan=T
         wScrn=  0.000000 ICntrl=       500 IOpCl=  0 I1Cent=   200000004 NGrid=           0
         NMat0=    1 NMatS0=      1 NMatT0=    0 NMatD0=    1 NMtDS0=    0 NMtDT0=    0
 Petite list used in FoFCou.
 Harris En= -114.464424700379    
 JPrj=0 DoOrth=F DoCkMO=F.
 Initial guess orbital symmetries:
       Occupied  (A1) (A1) (A1) (A1) (B2) (A1) (B1) (B2)
       Virtual   (B1) (A1) (A1) (B2) (B1) (A1) (A1) (B2) (A1) (B1)
                 (B2) (A1) (A1) (B2) (B1) (A1) (B2) (A1) (B1) (A2)
                 (A1) (B2) (B1) (A1) (B2) (A1) (A1) (B2) (B1) (A2)
                 (A1) (B2) (A1) (B2) (A1) (B1) (A1) (A2) (A1) (B1)
                 (B2) (B2) (A1) (B1) (B2) (A1) (A1) (A1)
 The electronic state of the initial guess is 1-A1.
 Leave Link  401 at Fri Sep 17 10:52:33 2021, MaxMem=   268435456 cpu:               0.3 elap:               0.3
 (Enter /software/gaussian/g16-a03/l502.exe)
 Keep R1 ints in memory in symmetry-blocked form, NReq=2159909.
 FoFCou: FMM=F IPFlag=           0 FMFlag=           0 FMFlg1=           0
         NFxFlg=           0 DoJE=F BraDBF=F KetDBF=F FulRan=T
         wScrn=  0.000000 ICntrl=       600 IOpCl=  0 I1Cent=           0 NGrid=           0
         NMat0=    1 NMatS0=   1596 NMatT0=    0 NMatD0=    1 NMtDS0=    0 NMtDT0=    0
 Petite list used in FoFCou.
 Closed shell SCF:
 Using DIIS extrapolation, IDIIS=  1040.
 NGot=   268435456 LenX=   268074384 LenY=   268070579
 Requested convergence on RMS density matrix=1.00D-08 within 128 cycles.
 Requested convergence on MAX density matrix=1.00D-06.
 Requested convergence on             energy=1.00D-06.
 No special actions if energy rises.

 Cycle   1  Pass 1  IDiag  1:
 E= -114.360988987870    
 DIIS: error= 6.08D-02 at cycle   1 NSaved=   1.
 NSaved= 1 IEnMin= 1 EnMin= -114.360988987870     IErMin= 1 ErrMin= 6.08D-02
 ErrMax= 6.08D-02  0.00D+00 EMaxC= 1.00D-01 BMatC= 9.87D-02 BMatP= 9.87D-02
 IDIUse=3 WtCom= 3.92D-01 WtEn= 6.08D-01
 Coeff-Com:  0.100D+01
 Coeff-En:   0.100D+01
 Coeff:      0.100D+01
 Gap=     0.041 Goal=   None    Shift=    0.000
 GapD=    0.041 DampG=0.250 DampE=0.500 DampFc=0.2500 IDamp=-1.
 Damping current iteration by 2.50D-01
 RMSDP=1.57D-02 MaxDP=1.39D-01              OVMax= 2.83D-01

 Cycle   2  Pass 1  IDiag  1:
 E= -114.368770657985     Delta-E=       -0.007781670114 Rises=F Damp=T
 DIIS: error= 1.21D-02 at cycle   2 NSaved=   2.
 NSaved= 2 IEnMin= 2 EnMin= -114.368770657985     IErMin= 2 ErrMin= 1.21D-02
 ErrMax= 1.21D-02  0.00D+00 EMaxC= 1.00D-01 BMatC= 1.02D-02 BMatP= 9.87D-02
 IDIUse=3 WtCom= 8.79D-01 WtEn= 1.21D-01
 Coeff-Com:  0.146D+00 0.854D+00
 Coeff-En:   0.457D+00 0.543D+00
 Coeff:      0.183D+00 0.817D+00
 Gap=     0.091 Goal=   None    Shift=    0.000
 RMSDP=2.01D-03 MaxDP=3.23D-02 DE=-7.78D-03 OVMax= 5.30D-01

 Cycle   3  Pass 1  IDiag  1:
 E= -114.442448547524     Delta-E=       -0.073677889540 Rises=F Damp=F
 DIIS: error= 8.48D-03 at cycle   3 NSaved=   3.
 NSaved= 3 IEnMin= 3 EnMin= -114.442448547524     IErMin= 3 ErrMin= 8.48D-03
 ErrMax= 8.48D-03  0.00D+00 EMaxC= 1.00D-01 BMatC= 2.19D-03 BMatP= 1.02D-02
 IDIUse=3 WtCom= 9.15D-01 WtEn= 8.48D-02
 Coeff-Com:  0.415D-01 0.278D+00 0.681D+00
 Coeff-En:   0.000D+00 0.000D+00 0.100D+01
 Coeff:      0.380D-01 0.254D+00 0.708D+00
 Gap=     0.146 Goal=   None    Shift=    0.000
 RMSDP=8.05D-04 MaxDP=1.74D-02 DE=-7.37D-02 OVMax= 3.04D-02

 Cycle   4  Pass 1  IDiag  1:
 E= -114.444175268719     Delta-E=       -0.001726721195 Rises=F Damp=F
 DIIS: error= 3.87D-03 at cycle   4 NSaved=   4.
 NSaved= 4 IEnMin= 4 EnMin= -114.444175268719     IErMin= 4 ErrMin= 3.87D-03
 ErrMax= 3.87D-03  0.00D+00 EMaxC= 1.00D-01 BMatC= 5.68D-04 BMatP= 2.19D-03
 IDIUse=3 WtCom= 9.61D-01 WtEn= 3.87D-02
 Coeff-Com:  0.320D-01-0.347D-02 0.285D+00 0.686D+00
 Coeff-En:   0.000D+00 0.000D+00 0.151D+00 0.849D+00
 Coeff:      0.308D-01-0.333D-02 0.280D+00 0.692D+00
 Gap=     0.150 Goal=   None    Shift=    0.000
 RMSDP=2.52D-04 MaxDP=5.98D-03 DE=-1.73D-03 OVMax= 6.89D-03

 Cycle   5  Pass 1  IDiag  1:
 E= -114.444701468371     Delta-E=       -0.000526199652 Rises=F Damp=F
 DIIS: error= 1.20D-03 at cycle   5 NSaved=   5.
 NSaved= 5 IEnMin= 5 EnMin= -114.444701468371     IErMin= 5 ErrMin= 1.20D-03
 ErrMax= 1.20D-03  0.00D+00 EMaxC= 1.00D-01 BMatC= 3.43D-05 BMatP= 5.68D-04
 IDIUse=3 WtCom= 9.88D-01 WtEn= 1.20D-02
 Coeff-Com:  0.181D-01-0.279D-01 0.647D-01 0.227D+00 0.718D+00
 Coeff-En:   0.000D+00 0.000D+00 0.000D+00 0.000D+00 0.100D+01
 Coeff:      0.179D-01-0.275D-01 0.639D-01 0.224D+00 0.722D+00
 Gap=     0.151 Goal=   None    Shift=    0.000
 RMSDP=4.78D-05 MaxDP=3.45D-04 DE=-5.26D-04 OVMax= 1.21D-03

 Cycle   6  Pass 1  IDiag  1:
 E= -114.444727904682     Delta-E=       -0.000026436311 Rises=F Damp=F
 DIIS: error= 4.69D-04 at cycle   6 NSaved=   6.
 NSaved= 6 IEnMin= 6 EnMin= -114.444727904682     IErMin= 6 ErrMin= 4.69D-04
 ErrMax= 4.69D-04  0.00D+00 EMaxC= 1.00D-01 BMatC= 4.36D-06 BMatP= 3.43D-05
 IDIUse=3 WtCom= 9.95D-01 WtEn= 4.69D-03
 Coeff-Com:  0.423D-02-0.499D-02 0.505D-02-0.176D-01-0.738D-01 0.109D+01
 Coeff-En:   0.000D+00 0.000D+00 0.000D+00 0.000D+00 0.000D+00 0.100D+01
 Coeff:      0.421D-02-0.497D-02 0.503D-02-0.175D-01-0.735D-01 0.109D+01
 Gap=     0.152 Goal=   None    Shift=    0.000
 RMSDP=1.90D-05 MaxDP=1.64D-04 DE=-2.64D-05 OVMax= 7.77D-04

 Cycle   7  Pass 1  IDiag  1:
 E= -114.444731812722     Delta-E=       -0.000003908041 Rises=F Damp=F
 DIIS: error= 5.35D-05 at cycle   7 NSaved=   7.
 NSaved= 7 IEnMin= 7 EnMin= -114.444731812722     IErMin= 7 ErrMin= 5.35D-05
 ErrMax= 5.35D-05  0.00D+00 EMaxC= 1.00D-01 BMatC= 5.96D-08 BMatP= 4.36D-06
 IDIUse=1 WtCom= 1.00D+00 WtEn= 0.00D+00
 Coeff-Com:  0.428D-03-0.445D-03 0.153D-02 0.265D-03-0.205D-02-0.372D-01
 Coeff-Com:  0.104D+01
 Coeff:      0.428D-03-0.445D-03 0.153D-02 0.265D-03-0.205D-02-0.372D-01
 Coeff:      0.104D+01
 Gap=     0.152 Goal=   None    Shift=    0.000
 RMSDP=1.54D-06 MaxDP=2.44D-05 DE=-3.91D-06 OVMax= 7.50D-05

 Cycle   8  Pass 1  IDiag  1:
 E= -114.444731863188     Delta-E=       -0.000000050465 Rises=F Damp=F
 DIIS: error= 1.42D-05 at cycle   8 NSaved=   8.
 NSaved= 8 IEnMin= 8 EnMin= -114.444731863188     IErMin= 8 ErrMin= 1.42D-05
 ErrMax= 1.42D-05  0.00D+00 EMaxC= 1.00D-01 BMatC= 3.72D-09 BMatP= 5.96D-08
 IDIUse=1 WtCom= 1.00D+00 WtEn= 0.00D+00
 Coeff-Com:  0.121D-04 0.235D-05 0.710D-04 0.531D-03 0.166D-02-0.439D-01
 Coeff-Com:  0.801D-01 0.962D+00
 Coeff:      0.121D-04 0.235D-05 0.710D-04 0.531D-03 0.166D-02-0.439D-01
 Coeff:      0.801D-01 0.962D+00
 Gap=     0.152 Goal=   None    Shift=    0.000
 RMSDP=6.20D-07 MaxDP=6.62D-06 DE=-5.05D-08 OVMax= 2.99D-05

 Cycle   9  Pass 1  IDiag  1:
 E= -114.444731866637     Delta-E=       -0.000000003450 Rises=F Damp=F
 DIIS: error= 2.52D-07 at cycle   9 NSaved=   9.
 NSaved= 9 IEnMin= 9 EnMin= -114.444731866637     IErMin= 9 ErrMin= 2.52D-07
 ErrMax= 2.52D-07  0.00D+00 EMaxC= 1.00D-01 BMatC= 1.68D-12 BMatP= 3.72D-09
 IDIUse=1 WtCom= 1.00D+00 WtEn= 0.00D+00
 Coeff-Com: -0.507D-07-0.829D-06-0.377D-05 0.460D-04 0.117D-03 0.179D-03
 Coeff-Com: -0.103D-01 0.303D-01 0.980D+00
 Coeff:     -0.507D-07-0.829D-06-0.377D-05 0.460D-04 0.117D-03 0.179D-03
 Coeff:     -0.103D-01 0.303D-01 0.980D+00
 Gap=     0.152 Goal=   None    Shift=    0.000
 RMSDP=2.23D-08 MaxDP=2.06D-07 DE=-3.45D-09 OVMax= 4.84D-07

 Cycle  10  Pass 1  IDiag  1:
 E= -114.444731866639     Delta-E=       -0.000000000002 Rises=F Damp=F
 DIIS: error= 4.98D-08 at cycle  10 NSaved=  10.
 NSaved=10 IEnMin=10 EnMin= -114.444731866639     IErMin=10 ErrMin= 4.98D-08
 ErrMax= 4.98D-08  0.00D+00 EMaxC= 1.00D-01 BMatC= 6.98D-14 BMatP= 1.68D-12
 IDIUse=1 WtCom= 1.00D+00 WtEn= 0.00D+00
 Coeff-Com: -0.166D-06 0.315D-08 0.131D-05 0.547D-05-0.948D-06 0.493D-03
 Coeff-Com: -0.159D-02-0.705D-02 0.962D-01 0.912D+00
 Coeff:     -0.166D-06 0.315D-08 0.131D-05 0.547D-05-0.948D-06 0.493D-03
 Coeff:     -0.159D-02-0.705D-02 0.962D-01 0.912D+00
 Gap=     0.152 Goal=   None    Shift=    0.000
 RMSDP=3.15D-09 MaxDP=2.98D-08 DE=-1.99D-12 OVMax= 7.85D-08

 SCF Done:  E(RB3LYP) =  -114.444731867     A.U. after   10 cycles
            NFock= 10  Conv=0.31D-08     -V/T= 2.0090
 KE= 1.134232545627D+02 PE=-3.204743182871D+02 EE= 6.664416327364D+01
 Leave Link  502 at Fri Sep 17 10:52:35 2021, MaxMem=   268435456 cpu:               1.8 elap:               2.1
 (Enter /software/gaussian/g16-a03/l801.exe)
 DoSCS=F DFT=T ScalE2(SS,OS)=  1.000000  1.000000
 ExpMin= 4.38D-02 ExpMax= 8.59D+03 ExpMxC= 1.30D+03 IAcc=3 IRadAn=         5 AccDes= 0.00D+00
 HarFok:  IExCor=  205 AccDes= 0.00D+00 IRadAn=         5 IDoV=-2 UseB2=F ITyADJ=14
 ICtDFT= 12500011 ScaDFX=  1.000000  1.000000  1.000000  1.000000
 Largest valence mixing into a core orbital is  5.32D-05
 Largest core mixing into a valence orbital is  1.23D-05
 Range of M.O.s used for correlation:     3    56
 NBasis=    56 NAE=     8 NBE=     8 NFC=     2 NFV=     0
 NROrb=     54 NOA=     6 NOB=     6 NVA=    48 NVB=    48
 Leave Link  801 at Fri Sep 17 10:52:35 2021, MaxMem=   268435456 cpu:               0.2 elap:               0.2
 (Enter /software/gaussian/g16-a03/l914.exe)
 RHF ground state
 Keep R1, R2, and R3 ints in memory in symmetry-blocked form, NReq=6042848.
 FoFCou: FMM=F IPFlag=           0 FMFlag=           0 FMFlg1=           0
         NFxFlg=           0 DoJE=F BraDBF=F KetDBF=F FulRan=T
         wScrn=  0.000000 ICntrl=       600 IOpCl=  0 I1Cent=           0 NGrid=           0
         NMat0=    1 NMatS0=   1596 NMatT0=    0 NMatD0=    1 NMtDS0=    0 NMtDT0=    0
 Petite list used in FoFCou.
 MDV=   268435456 DFT=T DoStab=F Mixed=T DoRPA=T DoScal=F NonHer=T
 Making orbital integer symmetry assigments:
 Orbital symmetries:
       Occupied  (A1) (A1) (A1) (A1) (B2) (A1) (B1) (B2)
       Virtual   (B1) (A1) (A1) (B2) (B1) (A1) (A1) (B2) (A1) (B1)
                 (B2) (A1) (A1) (B2) (B1) (A1) (B2) (A1) (A2) (B1)
                 (A1) (B2) (B1) (A1) (B2) (A1) (A1) (B2) (B1) (A2)
                 (A1) (B2) (A1) (B2) (A1) (B1) (A1) (A2) (A1) (B1)
                 (B2) (B2) (A1) (B1) (B2) (A1) (A1) (A1)
   120 initial guesses have been made.
 Convergence on wavefunction:    0.001000000000000
 Davidson Disk Diagonalization:  ConvIn= 1.00D-03 SkipCon=T Conv= 1.00D-03.
 Max sub-space:  1728 roots to seek:   120 dimension of matrix:          576
 Iteration     1 Dimension   120 NMult     0 NNew    120
 CISAX will form   120 AO SS matrices at one time.
 NMat=   120 NSing=   120 JSym2X=-1.
 New state      3 was old state      4
 New state      4 was old state      3
 New state      6 was old state      8
 New state      7 was old state      6
 New state      8 was old state      7
 New state      9 was old state     10
 New state     10 was old state      9
 New state     14 was old state     15
 New state     15 was old state     14
 New state     17 was old state     18
 New state     18 was old state     20
 New state     19 was old state     17
 New state     20 was old state     19
 New state     22 was old state     24
 New state     23 was old state     22
 New state     24 was old state     23
 New state     27 was old state     28
 New state     28 was old state     30
 New state     29 was old state     27
 New state     30 was old state     29
 Excitation Energies [eV] at current iteration:
 Root      1 :     2.166492393301892
 Root      2 :     5.522520970109413
 Root      3 :     5.782656417826564
 Root      4 :     6.498881686605661
 Root      5 :     7.114078363121958
 Root      6 :     7.696530425749782
 Root      7 :     7.795338116415681
 Root      8 :     8.051266411825077
 Root      9 :     8.416477644273883
 Root     10 :     8.604492686127276
 Root     11 :     9.261643839026993
 Root     12 :     9.310691158833910
 Root     13 :     9.889823802817709
 Root     14 :    10.345861209162880
 Root     15 :    10.359967844251090
 Root     16 :    10.587036772073570
 Root     17 :    10.877825274827970
 Root     18 :    11.479450251322750
 Root     19 :    11.568543906116580
 Root     20 :    11.590973291044450
 Root     21 :    11.661664409655830
 Root     22 :    11.848203223632150
 Root     23 :    11.956179854046960
 Root     24 :    12.141113840874610
 Root     25 :    12.263029074009020
 Root     26 :    12.582857012250990
 Root     27 :    13.030850929502870
 Root     28 :    13.212246055986810
 Root     29 :    13.352141299989830
 Root     30 :    13.552357461676770
 Root     31 :    13.825914996656870
 Root     32 :    14.078534423872470
 Root     33 :    14.262341679765360
 Root     34 :    14.397095817773200
 Root     35 :    14.745028590319050
 Root     36 :    14.763209320243140
 Root     37 :    14.905974438368470
 Root     38 :    15.233287671810340
 Root     39 :    15.944675789602140
 Root     40 :    16.051187370550070
 Root     41 :    16.167709082659200
 Root     42 :    16.233130806945030
 Root     43 :    16.459554483825640
 Root     44 :    16.801256815926610
 Root     45 :    17.488876712390630
 Root     46 :    17.568615727447860
 Root     47 :    17.828255820144150
 Root     48 :    18.094596677141010
 Root     49 :    18.116075573829520
 Root     50 :    18.499188765188780
 Root     51 :    18.670172008822850
 Root     52 :    18.971555995633890
 Root     53 :    19.025969782021030
 Root     54 :    19.070193392088830
 Root     55 :    19.514203680700340
 Root     56 :    19.544598861339790
 Root     57 :    20.359428790983620
 Root     58 :    20.367534672282270
 Root     59 :    20.513130010923340
 Root     60 :    21.083969750842700
 Root     61 :    21.270574005157300
 Root     62 :    21.292635307713470
 Root     63 :    21.598330938479080
 Root     64 :    21.745833216324460
 Root     65 :    21.810160966486410
 Root     66 :    22.199960930310260
 Root     67 :    22.415677226998740
 Root     68 :    22.748196243158190
 Root     69 :    23.067774456612410
 Root     70 :    23.339304676812990
 Root     71 :    23.663418184643060
 Root     72 :    23.680610836332550
 Root     73 :    23.740511353989120
 Root     74 :    24.147053398201450
 Root     75 :    24.334474180062430
 Root     76 :    24.576132823672640
 Root     77 :    25.225599890199700
 Root     78 :    25.320584858605740
 Root     79 :    25.449301899886860
 Root     80 :    25.752298931518160
 Root     81 :    25.769578623900020
 Root     82 :    26.031711839113840
 Root     83 :    26.075250868636390
 Root     84 :    26.295249837264120
 Root     85 :    26.635370789080540
 Root     86 :    26.974234237155870
 Root     87 :    27.449502114636510
 Root     88 :    28.302430420462690
 Root     89 :    28.440031890664680
 Root     90 :    28.513404592057680
 Root     91 :    29.039706859870840
 Root     92 :    29.244999771701850
 Root     93 :    29.541086354818280
 Root     94 :    30.269442947914360
 Root     95 :    30.325794210740180
 Root     96 :    30.939606575286890
 Root     97 :    31.027180509638270
 Root     98 :    31.068778030452800
 Root     99 :    32.482064083727370
 Root    100 :    33.017779674584500
 Root    101 :    33.092916515952330
 Root    102 :    33.360879511879500
 Root    103 :    33.473903348724740
 Root    104 :    34.311879011921840
 Root    105 :    34.865891414274470
 Root    106 :    35.016067984782930
 Root    107 :    35.184924364021250
 Root    108 :    35.610856402270680
 Root    109 :    35.865935302932180
 Root    110 :    36.537075809445450
 Root    111 :    36.595051343521010
 Root    112 :    36.930878130510200
 Root    113 :    37.202868643941520
 Root    114 :    37.934390401061900
 Root    115 :    38.027008061908940
 Root    116 :    38.909589260414610
 Root    117 :    39.050555999481240
 Root    118 :    39.142217669413990
 Root    119 :    39.920426552105350
 Root    120 :    43.993633489573920
 Iteration     2 Dimension   180 NMult   120 NNew     60
 CISAX will form    60 AO SS matrices at one time.
 NMat=    60 NSing=    60 JSym2X=-1.
 Root      1 not converged, maximum delta is    0.006574523756729
 Root      2 not converged, maximum delta is    0.007690476241753
 Root      3 not converged, maximum delta is    0.010764071417040
 Root      4 not converged, maximum delta is    0.013927015991055
 Root      5 not converged, maximum delta is    0.013851308595722
 Root      6 not converged, maximum delta is    0.011101332841585
 Root      7 not converged, maximum delta is    0.008811399232488
 Root      8 not converged, maximum delta is    0.001982009812300
 Root      9 not converged, maximum delta is    0.008696593688961
 Root     10 not converged, maximum delta is    0.001940946847309
 Root     11 not converged, maximum delta is    0.001659946731210
 Root     12 not converged, maximum delta is    0.004979171681886
 Root     13 not converged, maximum delta is    0.002412149461393
 Root     14 not converged, maximum delta is    0.003109567780506
 Root     15 not converged, maximum delta is    0.003449661010258
 Root     16 not converged, maximum delta is    0.003599736712253
 Root     17 not converged, maximum delta is    0.004938829256309
 Root     18 not converged, maximum delta is    0.003705491219521
 Root     19 not converged, maximum delta is    0.008011067523196
 Root     20 not converged, maximum delta is    0.010660609859563
 Root     21 not converged, maximum delta is    0.010496363697763
 Root     22 not converged, maximum delta is    0.004206269652735
 Root     23 not converged, maximum delta is    0.011086102740894
 Root     24 not converged, maximum delta is    0.001486213283448
 Root     25 not converged, maximum delta is    0.006600129942019
 Root     26 not converged, maximum delta is    0.010544864594636
 Root     27 not converged, maximum delta is    0.002653886097343
 Root     28 not converged, maximum delta is    0.012823151985498
 Root     29 not converged, maximum delta is    0.012587322151296
 Root     30 not converged, maximum delta is    0.005648326502358
 Excitation Energies [eV] at current iteration:
 Root      1 :     2.157568230138143   Change is   -0.008924163163749
 Root      2 :     5.499426367690069   Change is   -0.023094602419344
 Root      3 :     5.745326586441806   Change is   -0.037329831384757
 Root      4 :     6.476340689060383   Change is   -0.022540997545278
 Root      5 :     7.104227814494140   Change is   -0.009850548627819
 Root      6 :     7.681376539283309   Change is   -0.015153886466473
 Root      7 :     7.783758905887574   Change is   -0.011579210528107
 Root      8 :     8.050071446328506   Change is   -0.001194965496572
 Root      9 :     8.409223544885151   Change is   -0.007254099388732
 Root     10 :     8.604107179897513   Change is   -0.000385506229764
 Root     11 :     9.261087663215230   Change is   -0.000556175811763
 Root     12 :     9.294249678077017   Change is   -0.016441480756893
 Root     13 :     9.887214449490939   Change is   -0.002609353326769
 Root     14 :    10.341651480652490   Change is   -0.004209728510394
 Root     15 :    10.354115565536250   Change is   -0.005852278714848
 Root     16 :    10.579347761242320   Change is   -0.007689010831248
 Root     17 :    10.868592850039600   Change is   -0.009232424788370
 Root     18 :    11.476631960497330   Change is   -0.002818290825424
 Root     19 :    11.555662501566640   Change is   -0.012881404549943
 Root     20 :    11.589350187091890   Change is   -0.001623103952560
 Root     21 :    11.653867496882310   Change is   -0.007796912773519
 Root     22 :    11.845768380866500   Change is   -0.002434842765648
 Root     23 :    11.939258375866570   Change is   -0.016921478180394
 Root     24 :    12.140271302236050   Change is   -0.000842538638562
 Root     25 :    12.259478846888260   Change is   -0.003550227120763
 Root     26 :    12.571407283807670   Change is   -0.011449728443315
 Root     27 :    13.028577168573360   Change is   -0.002273760929507
 Root     28 :    13.203076304305990   Change is   -0.009169751680818
 Root     29 :    13.343284320305200   Change is   -0.008856979684630
 Root     30 :    13.545290800991030   Change is   -0.007066660685733
 Iteration     3 Dimension   240 NMult   180 NNew     60
 CISAX will form    60 AO SS matrices at one time.
 NMat=    60 NSing=    60 JSym2X=-1.
 Root      1 has converged.
 Root      2 has converged.
 Root      3 has converged.
 Root      4 has converged.
 Root      5 has converged.
 Root      6 has converged.
 Root      7 has converged.
 Root      8 has converged.
 Root      9 has converged.
 Root     10 has converged.
 Root     11 has converged.
 Root     12 has converged.
 Root     13 has converged.
 Root     14 has converged.
 Root     15 has converged.
 Root     16 has converged.
 Root     17 has converged.
 Root     18 has converged.
 Root     19 has converged.
 Root     20 has converged.
 Root     21 has converged.
 Root     22 has converged.
 Root     23 has converged.
 Root     24 has converged.
 Root     25 has converged.
 Root     26 has converged.
 Root     27 has converged.
 Root     28 has converged.
 Root     29 has converged.
 Root     30 has converged.
 Excitation Energies [eV] at current iteration:
 Root      1 :     2.157567040924539   Change is   -0.000001189213603
 Root      2 :     5.499404252082099   Change is   -0.000022115607970
 Root      3 :     5.745302398252274   Change is   -0.000024188189533
 Root      4 :     6.476326439313497   Change is   -0.000014249746886
 Root      5 :     7.104221479797984   Change is   -0.000006334696154
 Root      6 :     7.681369735788538   Change is   -0.000006803494771
 Root      7 :     7.783753280971605   Change is   -0.000005624915968
 Root      8 :     8.050070291845859   Change is   -0.000001154482645
 Root      9 :     8.409219697517393   Change is   -0.000003847367758
 Root     10 :     8.604107125949740   Change is   -0.000000053947772
 Root     11 :     9.261087305668998   Change is   -0.000000357546233
 Root     12 :     9.294233200678596   Change is   -0.000016477398421
 Root     13 :     9.887209393481525   Change is   -0.000005056009414
 Root     14 :    10.341647587654600   Change is   -0.000003892997892
 Root     15 :    10.354104020078290   Change is   -0.000011545457962
 Root     16 :    10.579341226349510   Change is   -0.000006534892817
 Root     17 :    10.868572803412370   Change is   -0.000020046627228
 Root     18 :    11.476628697856090   Change is   -0.000003262641234
 Root     19 :    11.555624716233860   Change is   -0.000037785332779
 Root     20 :    11.589348029047790   Change is   -0.000002158044101
 Root     21 :    11.653858443168930   Change is   -0.000009053713380
 Root     22 :    11.845764212624180   Change is   -0.000004168242324
 Root     23 :    11.939233284968250   Change is   -0.000025090898317
 Root     24 :    12.140270742986780   Change is   -0.000000559249269
 Root     25 :    12.259477358812520   Change is   -0.000001488075734
 Root     26 :    12.571393933164860   Change is   -0.000013350642808
 Root     27 :    13.028573050105470   Change is   -0.000004118467888
 Root     28 :    13.203057003706170   Change is   -0.000019300599824
 Root     29 :    13.343266433484850   Change is   -0.000017886820355
 Root     30 :    13.545271073594270   Change is   -0.000019727396764
 Convergence achieved on expansion vectors.
 ***********************************************************************
 Excited states from <AA,BB:AA,BB> singles matrix:
 ***********************************************************************
 
 1PDM for each excited state written to RWF  633
 Ground to excited state transition densities written to RWF  633
 Ground to excited state transition electric dipole moments (Au):
       state          X           Y           Z        Dip. S.      Osc.
         1        -0.0000     -0.0000      0.0000      0.0000      0.0000
         2        -0.0000      0.0000      0.8066      0.6506      0.0877
         3         0.1023     -0.0000     -0.0000      0.0105      0.0015
         4         0.0000      0.3364     -0.0000      0.1132      0.0180
         5        -0.0000     -0.1532      0.0000      0.0235      0.0041
         6         0.0000      0.0000     -0.0000      0.0000      0.0000
         7         0.0148      0.0000     -0.0000      0.0002      0.0000
         8         0.0000     -0.0000     -0.3373      0.1138      0.0224
         9        -0.7220     -0.0000      0.0000      0.5212      0.1074
        10         0.0000      0.0000     -0.0000      0.0000      0.0000
        11         0.0000      0.0000      0.0000      0.0000      0.0000
        12         0.0000      0.1777      0.0000      0.0316      0.0072
        13        -0.0000      0.0000      0.1074      0.0115      0.0028
        14         0.0000     -0.3913     -0.0000      0.1531      0.0388
        15         0.0000     -0.0000      0.6271      0.3932      0.0997
        16         0.0500     -0.0000     -0.0000      0.0025      0.0006
        17         0.0000     -0.0000     -0.2614      0.0683      0.0182
        18        -0.3760      0.0000     -0.0000      0.1413      0.0397
        19         0.0000     -0.0000     -1.0868      1.1811      0.3344
        20        -0.0000     -0.3255      0.0000      0.1060      0.0301
        21         0.0000     -0.0054      0.0000      0.0000      0.0000
        22        -0.0000     -0.0000      0.0000      0.0000      0.0000
        23        -0.0000     -0.4543      0.0000      0.2064      0.0604
        24        -0.1361      0.0000      0.0000      0.0185      0.0055
        25        -0.0000      0.0000     -0.0000      0.0000      0.0000
        26         0.0000     -0.5361      0.0000      0.2875      0.0885
        27         0.1367      0.0000     -0.0000      0.0187      0.0060
        28        -0.0000      0.0000     -0.5599      0.3134      0.1014
        29         0.0000     -0.0000     -0.7994      0.6390      0.2089
        30         0.0000     -0.0000      0.0567      0.0032      0.0011
 Ground to excited state transition velocity dipole moments (Au):
       state          X           Y           Z        Dip. S.      Osc.
         1         0.0000      0.0000     -0.0000      0.0000      0.0000
         2         0.0000     -0.0000     -0.1499      0.0225      0.0742
         3        -0.0390      0.0000     -0.0000      0.0015      0.0048
         4        -0.0000     -0.0810     -0.0000      0.0066      0.0184
         5         0.0000      0.0372      0.0000      0.0014      0.0035
         6        -0.0000     -0.0000      0.0000      0.0000      0.0000
         7         0.0036     -0.0000      0.0000      0.0000      0.0000
         8        -0.0000      0.0000      0.0976      0.0095      0.0215
         9         0.2244      0.0000     -0.0000      0.0504      0.1086
        10        -0.0000      0.0000      0.0000      0.0000      0.0000
        11        -0.0000     -0.0000     -0.0000      0.0000      0.0000
        12         0.0000     -0.0659      0.0000      0.0043      0.0085
        13         0.0000      0.0000     -0.0357      0.0013      0.0023
        14        -0.0000      0.1517      0.0000      0.0230      0.0404
        15        -0.0000      0.0000     -0.2433      0.0592      0.1037
        16        -0.0419      0.0000      0.0000      0.0018      0.0030
        17         0.0000      0.0000      0.1163      0.0135      0.0226
        18         0.1477     -0.0000      0.0000      0.0218      0.0345
        19         0.0000      0.0000      0.4646      0.2159      0.3389
        20         0.0000      0.1369     -0.0000      0.0187      0.0293
        21        -0.0000     -0.0091     -0.0000      0.0001      0.0001
        22         0.0000      0.0000     -0.0000      0.0000      0.0000
        23        -0.0000      0.2006     -0.0000      0.0402      0.0611
        24         0.0559      0.0000     -0.0000      0.0031      0.0047
        25         0.0000     -0.0000      0.0000      0.0000      0.0000
        26        -0.0000      0.2418     -0.0000      0.0585      0.0844
        27        -0.0578     -0.0000      0.0000      0.0033      0.0046
        28         0.0000     -0.0000      0.2580      0.0666      0.0915
        29        -0.0000      0.0000      0.3832      0.1469      0.1997
        30         0.0000     -0.0000     -0.0256      0.0007      0.0009
 Ground to excited state transition magnetic dipole moments (Au):
       state          X           Y           Z
         1         0.0000      0.0000      1.0539
         2         0.0000      0.0000     -0.0000
         3        -0.0000     -1.7059      0.0000
         4        -0.1558     -0.0000      0.0000
         5        -0.4474      0.0000     -0.0000
         6         0.0000      0.0000     -0.9524
         7         0.0000      0.3837      0.0000
         8        -0.0000     -0.0000      0.0000
         9         0.0000     -0.3036     -0.0000
        10         0.0000     -0.0000      0.0088
        11         0.0000      0.0000      0.0282
        12         0.5757     -0.0000      0.0000
        13        -0.0000      0.0000      0.0000
        14         0.4313     -0.0000      0.0000
        15         0.0000     -0.0000      0.0000
        16         0.0000     -0.4076      0.0000
        17        -0.0000     -0.0000      0.0000
        18         0.0000      0.3424     -0.0000
        19        -0.0000      0.0000      0.0000
        20        -0.1326      0.0000      0.0000
        21         0.2020      0.0000     -0.0000
        22         0.0000      0.0000     -0.0501
        23        -0.1035      0.0000      0.0000
        24         0.0000      0.1417     -0.0000
        25         0.0000     -0.0000     -0.0338
        26         1.0017      0.0000      0.0000
        27         0.0000     -0.0412      0.0000
        28         0.0000     -0.0000      0.0000
        29        -0.0000      0.0000      0.0000
        30        -0.0000     -0.0000      0.0000
 Ground to excited state transition velocity quadrupole moments (Au):
       state          XX          YY          ZZ          XY          XZ          YZ
         1         0.0000      0.0000      0.0000     -0.0414      0.0000      0.0000
         2         0.0994     -0.0046     -0.0582     -0.0000      0.0000     -0.0000
         3        -0.0000      0.0000     -0.0000     -0.0000     -0.1716     -0.0000
         4        -0.0000     -0.0000      0.0000     -0.0000     -0.0000      0.1153
         5        -0.0000     -0.0000      0.0000      0.0000      0.0000      0.3276
         6         0.0000      0.0000     -0.0000      0.1827     -0.0000     -0.0000
         7         0.0000     -0.0000      0.0000     -0.0000     -0.2659     -0.0000
         8         0.0250     -0.0227     -0.2336     -0.0000     -0.0000      0.0000
         9        -0.0000      0.0000     -0.0000      0.0000      0.0312     -0.0000
        10         0.0000     -0.0000     -0.0000      0.0341     -0.0000     -0.0000
        11        -0.0000      0.0000      0.0000      0.2857      0.0000     -0.0000
        12         0.0000      0.0000      0.0000     -0.0000      0.0000     -0.1894
        13         0.8075      0.0336     -0.0610      0.0000      0.0000      0.0000
        14         0.0000      0.0000     -0.0000     -0.0000     -0.0000     -0.1365
        15        -0.0408     -0.0598      0.3155     -0.0000     -0.0000      0.0000
        16         0.0000      0.0000     -0.0000      0.0000     -0.2634      0.0000
        17         0.2681      0.3883      0.5233     -0.0000      0.0000      0.0000
        18        -0.0000     -0.0000     -0.0000     -0.0000     -0.0018      0.0000
        19        -0.0248     -0.3867     -0.2555     -0.0000      0.0000     -0.0000
        20        -0.0000      0.0000      0.0000      0.0000      0.0000     -0.3476
        21        -0.0000      0.0000     -0.0000      0.0000      0.0000      0.4374
        22        -0.0000      0.0000     -0.0000     -0.2541      0.0000     -0.0000
        23         0.0000      0.0000      0.0000      0.0000     -0.0000     -0.8119
        24        -0.0000      0.0000     -0.0000      0.0000     -0.1190      0.0000
        25        -0.0000     -0.0000     -0.0000      0.3844      0.0000      0.0000
        26        -0.0000      0.0000     -0.0000      0.0000      0.0000     -0.1699
        27         0.0000     -0.0000     -0.0000     -0.0000      0.2602      0.0000
        28        -0.0689      0.2559      0.1798     -0.0000     -0.0000     -0.0000
        29         0.1901     -0.9039     -0.0089      0.0000      0.0000     -0.0000
        30         0.2205      0.6078      0.3981      0.0000     -0.0000     -0.0000
 <0|del|b> * <b|rxdel|0> + <0|del|b> * <b|delr+rdel|0>
 Rotatory Strengths (R) in cgs (10**-40 erg-esu-cm/Gauss)
       state          XX          YY          ZZ    R(velocity)    E-M Angle
         1        -0.0000     -0.0000      0.0000     -0.0000       90.00
         2         0.0000     -0.0000      0.0000      0.0000       90.00
         3        -0.0000      0.0000     -0.0000     -0.0000       90.00
         4         0.0000      0.0000      0.0000      0.0000       90.00
         5        -0.0000     -0.0000     -0.0000     -0.0000       90.00
         6        -0.0000     -0.0000      0.0000     -0.0000       90.00
         7        -0.0000      0.0000     -0.0000     -0.0000       90.00
         8         0.0000      0.0000      0.0000      0.0000       90.00
         9        -0.0000     -0.0000      0.0000      0.0000       90.00
        10         0.0000     -0.0000     -0.0000      0.0000       90.00
        11        -0.0000      0.0000     -0.0000     -0.0000       90.00
        12         0.0000      0.0000      0.0000      0.0000       90.00
        13        -0.0000      0.0000      0.0000     -0.0000       90.00
        14        -0.0000     -0.0000     -0.0000     -0.0000       90.00
        15        -0.0000     -0.0000     -0.0000     -0.0000       90.00
        16        -0.0000     -0.0000     -0.0000     -0.0000       90.00
        17        -0.0000      0.0000     -0.0000      0.0000       90.00
        18        -0.0000      0.0000     -0.0000      0.0000       90.00
        19        -0.0000      0.0000      0.0000      0.0000       90.00
        20         0.0000     -0.0000      0.0000      0.0000       90.00
        21         0.0000     -0.0000      0.0000     -0.0000       90.00
        22         0.0000     -0.0000      0.0000      0.0000       90.00
        23         0.0000      0.0000     -0.0000      0.0000       90.00
        24         0.0000      0.0000     -0.0000      0.0000       90.00
        25         0.0000     -0.0000     -0.0000     -0.0000       90.00
        26        -0.0000     -0.0000      0.0000     -0.0000       90.00
        27         0.0000     -0.0000     -0.0000     -0.0000       90.00
        28        -0.0000      0.0000      0.0000      0.0000       90.00
        29         0.0000     -0.0000      0.0000      0.0000       90.00
        30        -0.0000      0.0000      0.0000     -0.0000       90.00
 1/2[<0|r|b>*<b|rxdel|0> + (<0|rxdel|b>*<b|r|0>)*]
 Rotatory Strengths (R) in cgs (10**-40 erg-esu-cm/Gauss)
       state          XX          YY          ZZ     R(length)
         1         0.0000      0.0000     -0.0000     -0.0000
         2         0.0000     -0.0000      0.0000      0.0000
         3         0.0000     -0.0000      0.0000     -0.0000
         4         0.0000      0.0000      0.0000      0.0000
         5        -0.0000      0.0000      0.0000     -0.0000
         6        -0.0000     -0.0000     -0.0000     -0.0000
         7        -0.0000     -0.0000      0.0000     -0.0000
         8         0.0000     -0.0000      0.0000      0.0000
         9         0.0000     -0.0000      0.0000      0.0000
        10        -0.0000      0.0000      0.0000      0.0000
        11        -0.0000     -0.0000     -0.0000     -0.0000
        12        -0.0000      0.0000     -0.0000      0.0000
        13        -0.0000     -0.0000     -0.0000     -0.0000
        14        -0.0000     -0.0000      0.0000     -0.0000
        15        -0.0000     -0.0000     -0.0000     -0.0000
        16        -0.0000     -0.0000      0.0000     -0.0000
        17         0.0000     -0.0000      0.0000      0.0000
        18         0.0000     -0.0000     -0.0000      0.0000
        19         0.0000      0.0000      0.0000      0.0000
        20        -0.0000      0.0000     -0.0000      0.0000
        21        -0.0000      0.0000      0.0000     -0.0000
        22         0.0000      0.0000      0.0000      0.0000
        23        -0.0000      0.0000     -0.0000      0.0000
        24         0.0000     -0.0000      0.0000      0.0000
        25         0.0000      0.0000     -0.0000     -0.0000
        26        -0.0000      0.0000     -0.0000      0.0000
        27        -0.0000      0.0000      0.0000     -0.0000
        28         0.0000      0.0000      0.0000      0.0000
        29         0.0000      0.0000      0.0000      0.0000
        30         0.0000     -0.0000     -0.0000     -0.0000
  1/2[<0|del|b>*<b|r|0> + (<0|r|b>*<b|del|0>)*] (Au)
       state          X           Y           Z        Dip. S.   Osc.(frdel)
         1        -0.0000     -0.0000     -0.0000      0.0000      0.0000
         2        -0.0000     -0.0000     -0.1209      0.1209      0.0806
         3        -0.0040     -0.0000      0.0000      0.0040      0.0027
         4        -0.0000     -0.0273      0.0000      0.0273      0.0182
         5        -0.0000     -0.0057      0.0000      0.0057      0.0038
         6        -0.0000     -0.0000     -0.0000      0.0000      0.0000
         7         0.0001     -0.0000     -0.0000     -0.0001     -0.0000
         8        -0.0000     -0.0000     -0.0329      0.0329      0.0220
         9        -0.1620     -0.0000     -0.0000      0.1620      0.1080
        10        -0.0000      0.0000     -0.0000      0.0000      0.0000
        11        -0.0000     -0.0000     -0.0000      0.0000      0.0000
        12         0.0000     -0.0117      0.0000      0.0117      0.0078
        13        -0.0000      0.0000     -0.0038      0.0038      0.0026
        14        -0.0000     -0.0594     -0.0000      0.0594      0.0396
        15        -0.0000     -0.0000     -0.1526      0.1526      0.1017
        16        -0.0021     -0.0000     -0.0000      0.0021      0.0014
        17         0.0000     -0.0000     -0.0304      0.0304      0.0203
        18        -0.0555     -0.0000     -0.0000      0.0555      0.0370
        19         0.0000     -0.0000     -0.5049      0.5049      0.3366
        20        -0.0000     -0.0446     -0.0000      0.0446      0.0297
        21        -0.0000      0.0000     -0.0000     -0.0000     -0.0000
        22        -0.0000     -0.0000     -0.0000      0.0000      0.0000
        23         0.0000     -0.0911     -0.0000      0.0911      0.0608
        24        -0.0076      0.0000     -0.0000      0.0076      0.0051
        25        -0.0000     -0.0000     -0.0000      0.0000      0.0000
        26        -0.0000     -0.1296     -0.0000      0.1296      0.0864
        27        -0.0079     -0.0000     -0.0000      0.0079      0.0053
        28        -0.0000     -0.0000     -0.1445      0.1445      0.0963
        29        -0.0000     -0.0000     -0.3064      0.3064      0.2042
        30         0.0000      0.0000     -0.0015      0.0015      0.0010

 Excitation energies and oscillator strengths:
 
 Excited State   1:      Singlet-A2     2.1576 eV  574.65 nm  f=0.0000  <S**2>=0.000
       3 -> 27         0.00130
       3 -> 38         0.00099
       3 -> 46         0.00325
       4 -> 27         0.00079
       4 -> 38        -0.00016
       4 -> 46        -0.00134
       5 ->  9         0.00895
       5 -> 13         0.00079
       5 -> 18         0.00317
       5 -> 23         0.00160
       5 -> 28         0.00279
       5 -> 31        -0.00025
       5 -> 37         0.00156
       5 -> 44         0.00036
       5 -> 52         0.00038
       6 -> 27        -0.00062
       6 -> 38        -0.00080
       6 -> 46         0.00141
       7 -> 12        -0.00085
       7 -> 16         0.00459
       7 -> 19        -0.00392
       7 -> 22        -0.00067
       7 -> 25         0.00102
       7 -> 30        -0.00146
       7 -> 33         0.00038
       7 -> 49         0.00013
       7 -> 50         0.00018
       7 -> 53         0.00045
       8 ->  9         0.70818
       8 -> 13        -0.01502
       8 -> 18         0.02176
       8 -> 23        -0.00408
       8 -> 28         0.01107
       8 -> 31         0.00083
       8 -> 37         0.00065
       8 -> 48        -0.00031
       8 -> 52         0.00194
       3 <- 27         0.00064
       3 <- 38         0.00071
       3 <- 46         0.00330
       4 <- 27         0.00135
       4 <- 38         0.00023
       4 <- 46        -0.00108
       5 <-  9        -0.00034
       5 <- 13        -0.00056
       5 <- 18        -0.00074
       5 <- 23         0.00030
       5 <- 28        -0.00052
       5 <- 31         0.00039
       5 <- 37         0.00086
       5 <- 44         0.00012
       5 <- 52         0.00010
       6 <- 38        -0.00066
       6 <- 46         0.00109
       7 <- 12         0.00043
       7 <- 16        -0.00985
       7 <- 19         0.00336
       7 <- 22         0.00707
       7 <- 25         0.00049
       7 <- 30         0.00515
       7 <- 33        -0.00059
       7 <- 36         0.00100
       7 <- 40         0.00056
       7 <- 42         0.00013
       7 <- 49        -0.00035
       7 <- 50         0.00011
       7 <- 53         0.00145
       8 <-  9        -0.04768
       8 <- 13         0.00068
       8 <- 18        -0.00635
       8 <- 23         0.00026
       8 <- 28        -0.00226
       8 <- 31        -0.00060
       8 <- 37        -0.00053
       8 <- 52         0.00052
 This state for optimization and/or second-order correction.
 Total Energy, E(TD-HF/TD-DFT) =  -114.365442737    
 Copying the excited state density for this state as the 1-particle RhoCI density.
 
 Excited State   2:      Singlet-A1     5.4994 eV  225.45 nm  f=0.0877  <S**2>=0.000
       3 -> 10         0.01258
       3 -> 11        -0.01609
       3 -> 14        -0.01291
       3 -> 15         0.01082
       3 -> 17        -0.00362
       3 -> 20        -0.00364
       3 -> 21        -0.00180
       3 -> 24         0.00308
       3 -> 26         0.00472
       3 -> 29        -0.00094
       3 -> 32         0.00278
       3 -> 34         0.00298
       3 -> 35        -0.00060
       3 -> 39         0.00093
       3 -> 43         0.00043
       3 -> 45        -0.00034
       3 -> 47         0.00219
       3 -> 51         0.00088
       3 -> 54         0.00023
       4 -> 10         0.01554
       4 -> 11         0.01125
       4 -> 14        -0.00824
       4 -> 15        -0.00927
       4 -> 17         0.00323
       4 -> 20         0.00621
       4 -> 21         0.00039
       4 -> 24        -0.00549
       4 -> 26         0.00538
       4 -> 29         0.00115
       4 -> 32        -0.00128
       4 -> 34        -0.00207
       4 -> 35         0.00023
       4 -> 39        -0.00014
       4 -> 41         0.00014
       4 -> 43        -0.00038
       4 -> 45        -0.00065
       4 -> 47        -0.00142
       4 -> 51        -0.00030
       5 -> 12         0.01959
       5 -> 16         0.01410
       5 -> 19         0.00155
       5 -> 22         0.00698
       5 -> 25         0.00925
       5 -> 30        -0.00063
       5 -> 33        -0.00320
       5 -> 36         0.00267
       5 -> 40         0.00155
       5 -> 42         0.00062
       5 -> 49         0.00052
       5 -> 50        -0.00063
       5 -> 53        -0.00017
       6 -> 10        -0.10266
       6 -> 11         0.11164
       6 -> 14         0.09178
       6 -> 15        -0.09083
       6 -> 17        -0.02052
       6 -> 20        -0.01489
       6 -> 21         0.01643
       6 -> 24        -0.01602
       6 -> 26        -0.00794
       6 -> 29        -0.00867
       6 -> 32         0.00043
       6 -> 34         0.00163
       6 -> 35        -0.00106
       6 -> 39         0.00071
       6 -> 41        -0.00051
       6 -> 43         0.00075
       6 -> 45         0.00066
       6 -> 47         0.00145
       6 -> 51         0.00084
       6 -> 54        -0.00058
       7 ->  9         0.68531
       7 -> 13         0.00401
       7 -> 18        -0.02048
       7 -> 23         0.00115
       7 -> 28        -0.00218
       7 -> 31        -0.00285
       7 -> 37         0.00073
       7 -> 44        -0.00106
       7 -> 48         0.00048
       7 -> 52         0.00104
       8 -> 12        -0.00637
       8 -> 16         0.08043
       8 -> 19        -0.02534
       8 -> 22        -0.03071
       8 -> 25         0.00100
       8 -> 30        -0.01296
       8 -> 33         0.00280
       8 -> 36        -0.00348
       8 -> 40        -0.00163
       8 -> 42        -0.00034
       8 -> 49         0.00064
       8 -> 50         0.00026
       8 -> 53        -0.00077
       3 <- 10         0.00807
       3 <- 11        -0.01089
       3 <- 14        -0.00935
       3 <- 15         0.00732
       3 <- 17        -0.00183
       3 <- 20        -0.00251
       3 <- 21        -0.00197
       3 <- 24         0.00200
       3 <- 26         0.00290
       3 <- 29        -0.00054
       3 <- 32         0.00255
       3 <- 34         0.00197
       3 <- 35        -0.00055
       3 <- 39         0.00079
       3 <- 41         0.00010
       3 <- 43         0.00051
       3 <- 45        -0.00015
       3 <- 47         0.00234
       3 <- 51         0.00086
       3 <- 54         0.00032
       4 <- 10         0.00762
       4 <- 11         0.00683
       4 <- 14        -0.00403
       4 <- 15        -0.00544
       4 <- 17         0.00156
       4 <- 20         0.00485
       4 <- 21         0.00031
       4 <- 24        -0.00363
       4 <- 26         0.00414
       4 <- 29         0.00030
       4 <- 32        -0.00161
       4 <- 34        -0.00181
       4 <- 35         0.00045
       4 <- 39        -0.00020
       4 <- 43        -0.00038
       4 <- 45        -0.00083
       4 <- 47        -0.00102
       4 <- 51        -0.00013
       5 <- 12         0.00810
       5 <- 16         0.00678
       5 <- 19         0.00104
       5 <- 22         0.00415
       5 <- 25         0.00606
       5 <- 30        -0.00030
       5 <- 33        -0.00243
       5 <- 36         0.00215
       5 <- 40         0.00133
       5 <- 42         0.00050
       5 <- 49         0.00046
       5 <- 50        -0.00057
       5 <- 53        -0.00015
       6 <- 10        -0.02846
       6 <- 11         0.03308
       6 <- 14         0.03418
       6 <- 15        -0.03676
       6 <- 17        -0.00938
       6 <- 20        -0.00859
       6 <- 21         0.00915
       6 <- 24        -0.00949
       6 <- 26        -0.00467
       6 <- 29        -0.00581
       6 <- 32         0.00090
       6 <- 34         0.00195
       6 <- 35        -0.00100
       6 <- 39         0.00081
       6 <- 41        -0.00035
       6 <- 43         0.00065
       6 <- 45         0.00068
       6 <- 47         0.00096
       6 <- 51         0.00066
       6 <- 54        -0.00047
       7 <-  9        -0.12055
       7 <- 13         0.00848
       7 <- 18        -0.01426
       7 <- 23         0.00427
       7 <- 28        -0.00439
       7 <- 31        -0.00123
       7 <- 37         0.00020
       7 <- 44        -0.00059
       7 <- 48        -0.00011
       7 <- 52         0.00090
       8 <- 12        -0.00124
       8 <- 16         0.02568
       8 <- 19        -0.00997
       8 <- 22        -0.01577
       8 <- 25         0.00029
       8 <- 30        -0.00909
       8 <- 33         0.00204
       8 <- 36        -0.00261
       8 <- 40        -0.00130
       8 <- 42        -0.00027
       8 <- 49         0.00044
       8 <- 50         0.00021
       8 <- 53        -0.00070
 
 Excited State   3:      Singlet-B1     5.7453 eV  215.80 nm  f=0.0015  <S**2>=0.000
       3 ->  9        -0.03007
       3 -> 13         0.00203
       3 -> 18        -0.00500
       3 -> 23         0.00202
       3 -> 28        -0.00110
       3 -> 31        -0.00049
       3 -> 44         0.00027
       3 -> 48         0.00090
       3 -> 52         0.00100
       4 ->  9         0.01421
       4 -> 13        -0.00270
       4 -> 18         0.00035
       4 -> 23        -0.00245
       4 -> 28         0.00021
       4 -> 31        -0.00163
       4 -> 37        -0.00043
       4 -> 44         0.00012
       4 -> 48        -0.00120
       4 -> 52        -0.00065
       5 -> 27        -0.00034
       5 -> 38         0.00200
       5 -> 46         0.00111
       6 ->  9         0.70579
       6 -> 13        -0.02136
       6 -> 18         0.01756
       6 -> 23        -0.01120
       6 -> 28         0.00464
       6 -> 31         0.00348
       6 -> 37        -0.00228
       6 -> 44        -0.00302
       6 -> 48         0.00435
       6 -> 52         0.00154
       7 -> 10        -0.02106
       7 -> 11         0.02061
       7 -> 14         0.01348
       7 -> 15        -0.00806
       7 -> 17        -0.00947
       7 -> 20         0.00267
       7 -> 21        -0.00022
       7 -> 24        -0.00029
       7 -> 26        -0.00124
       7 -> 29        -0.00406
       7 -> 32        -0.00078
       7 -> 34         0.00044
       7 -> 35         0.00184
       7 -> 39         0.00013
       7 -> 41        -0.00072
       7 -> 43         0.00060
       7 -> 45        -0.00109
       7 -> 47         0.00433
       7 -> 51         0.00117
       7 -> 54         0.00047
       8 -> 27         0.00072
       8 -> 38         0.00018
       8 -> 46         0.00561
       3 <-  9        -0.01000
       3 <- 13        -0.00049
       3 <- 18        -0.00301
       3 <- 23        -0.00047
       3 <- 28        -0.00072
       3 <- 31        -0.00063
       3 <- 44        -0.00027
       3 <- 48         0.00109
       3 <- 52         0.00080
       4 <-  9         0.00668
       4 <- 13        -0.00018
       4 <- 18         0.00207
       4 <- 23        -0.00052
       4 <- 28         0.00176
       4 <- 31        -0.00113
       4 <- 37        -0.00019
       4 <- 44         0.00013
       4 <- 48        -0.00104
       4 <- 52        -0.00037
       5 <- 27        -0.00085
       5 <- 38         0.00161
       5 <- 46         0.00099
       6 <-  9        -0.02417
       6 <- 13         0.00173
       6 <- 18        -0.00315
       6 <- 23        -0.00027
       6 <- 28        -0.00325
       6 <- 31         0.00147
       6 <- 37        -0.00202
       6 <- 44        -0.00171
       6 <- 48         0.00389
       6 <- 52         0.00054
       7 <- 10         0.01019
       7 <- 11        -0.01165
       7 <- 14        -0.01242
       7 <- 15         0.01509
       7 <- 17         0.00109
       7 <- 20         0.00537
       7 <- 21        -0.00470
       7 <- 24         0.00463
       7 <- 26         0.00189
       7 <- 29         0.00092
       7 <- 32        -0.00040
       7 <- 34         0.00016
       7 <- 35         0.00286
       7 <- 39         0.00041
       7 <- 41        -0.00035
       7 <- 43         0.00048
       7 <- 45        -0.00116
       7 <- 47         0.00392
       7 <- 51         0.00099
       7 <- 54         0.00109
       8 <- 27         0.00114
       8 <- 38         0.00035
       8 <- 46         0.00519
 
 Excited State   4:      Singlet-B2     6.4763 eV  191.44 nm  f=0.0180  <S**2>=0.000
       3 -> 12         0.00166
       3 -> 16        -0.00163
       3 -> 19         0.00407
       3 -> 22        -0.00034
       3 -> 30         0.00302
       3 -> 33         0.00036
       3 -> 36        -0.00201
       3 -> 40        -0.00158
       3 -> 42        -0.00016
       3 -> 49         0.00216
       3 -> 50        -0.00021
       3 -> 53        -0.00026
       4 -> 12        -0.00052
       4 -> 16         0.00289
       4 -> 19         0.00035
       4 -> 22        -0.00342
       4 -> 25         0.00250
       4 -> 30        -0.00129
       4 -> 33         0.00044
       4 -> 36        -0.00047
       4 -> 40         0.00050
       4 -> 49        -0.00030
       5 -> 10         0.00180
       5 -> 11        -0.00526
       5 -> 14        -0.01445
       5 -> 15        -0.00075
       5 -> 17        -0.00132
       5 -> 20        -0.00173
       5 -> 21        -0.00669
       5 -> 24        -0.00188
       5 -> 26         0.00209
       5 -> 29         0.00192
       5 -> 32         0.00095
       5 -> 34         0.00133
       5 -> 35         0.00063
       5 -> 39         0.00088
       5 -> 41        -0.00081
       5 -> 45        -0.00026
       5 -> 47         0.00080
       5 -> 51        -0.00048
       5 -> 54         0.00022
       6 -> 12        -0.00346
       6 -> 16         0.00131
       6 -> 19        -0.00238
       6 -> 22        -0.00023
       6 -> 25         0.00075
       6 -> 30         0.00052
       6 -> 33        -0.00045
       6 -> 36         0.00217
       6 -> 40         0.00165
       6 -> 42         0.00025
       6 -> 49        -0.00137
       6 -> 53         0.00029
       7 -> 27         0.00057
       7 -> 38        -0.00098
       7 -> 46        -0.00324
       8 -> 10         0.63304
       8 -> 11        -0.28514
       8 -> 14        -0.10988
       8 -> 15         0.07523
       8 -> 17         0.00977
       8 -> 20         0.00431
       8 -> 21        -0.00493
       8 -> 24         0.00542
       8 -> 26         0.00547
       8 -> 29         0.00837
       8 -> 32         0.00216
       8 -> 34         0.00145
       8 -> 35         0.00067
       8 -> 39         0.00048
       8 -> 41        -0.00042
       8 -> 43         0.00059
       8 -> 45        -0.00211
       8 -> 47         0.00349
       8 -> 51        -0.00199
       8 -> 54         0.00126
       3 <- 12         0.00056
       3 <- 16        -0.00035
       3 <- 19         0.00191
       3 <- 22        -0.00083
       3 <- 25        -0.00015
       3 <- 30         0.00120
       3 <- 33         0.00032
       3 <- 36        -0.00160
       3 <- 40        -0.00143
       3 <- 42        -0.00015
       3 <- 49         0.00223
       3 <- 50        -0.00018
       3 <- 53        -0.00074
       4 <- 12         0.00039
       4 <- 16         0.00245
       4 <- 19         0.00052
       4 <- 22        -0.00280
       4 <- 25         0.00154
       4 <- 30        -0.00106
       4 <- 33         0.00053
       4 <- 36        -0.00066
       4 <- 40         0.00015
       4 <- 42        -0.00015
       4 <- 49        -0.00023
       5 <- 10         0.00113
       5 <- 11         0.00146
       5 <- 14        -0.00290
       5 <- 15        -0.00359
       5 <- 17        -0.00025
       5 <- 20        -0.00035
       5 <- 21        -0.00204
       5 <- 24        -0.00278
       5 <- 26         0.00076
       5 <- 29         0.00049
       5 <- 32        -0.00033
       5 <- 34         0.00043
       5 <- 39         0.00027
       5 <- 41        -0.00078
       5 <- 43        -0.00014
       5 <- 45        -0.00054
       5 <- 47         0.00058
       5 <- 51        -0.00025
       6 <- 12        -0.00019
       6 <- 16        -0.00436
       6 <- 19         0.00198
       6 <- 22         0.00309
       6 <- 25         0.00035
       6 <- 30         0.00381
       6 <- 33        -0.00068
       6 <- 36         0.00215
       6 <- 40         0.00161
       6 <- 42         0.00030
       6 <- 49        -0.00142
       6 <- 53         0.00084
       7 <- 27         0.00057
       7 <- 38        -0.00076
       7 <- 46        -0.00265
       8 <- 10        -0.00844
       8 <- 11         0.01025
       8 <- 14         0.01026
       8 <- 15        -0.00595
       8 <- 17        -0.00021
       8 <- 20         0.00190
       8 <- 21         0.00234
       8 <- 24        -0.00088
       8 <- 26        -0.00200
       8 <- 29         0.00081
       8 <- 32        -0.00176
       8 <- 34        -0.00132
       8 <- 39        -0.00127
       8 <- 41        -0.00059
       8 <- 43        -0.00010
       8 <- 45        -0.00252
       8 <- 47         0.00241
       8 <- 51        -0.00117
       8 <- 54         0.00030
 
 Excited State   5:      Singlet-B2     7.1042 eV  174.52 nm  f=0.0041  <S**2>=0.000
       3 -> 12         0.00131
       3 -> 16         0.00172
       3 -> 19        -0.00126
       3 -> 22        -0.00040
       3 -> 25         0.00097
       3 -> 30        -0.00273
       3 -> 36         0.00071
       3 -> 40         0.00063
       3 -> 49        -0.00091
       4 -> 12        -0.00144
       4 -> 16         0.00032
       4 -> 19         0.00088
       4 -> 22        -0.00054
       4 -> 25         0.00037
       4 -> 30         0.00146
       4 -> 33        -0.00024
       4 -> 36         0.00044
       4 -> 50        -0.00012
       5 -> 10        -0.00816
       5 -> 11        -0.00087
       5 -> 14         0.00036
       5 -> 15         0.00600
       5 -> 17         0.00137
       5 -> 20         0.00221
       5 -> 21         0.00085
       5 -> 24        -0.00019
       5 -> 26        -0.00061
       5 -> 29        -0.00066
       5 -> 32        -0.00159
       5 -> 34         0.00014
       5 -> 35        -0.00046
       5 -> 39        -0.00069
       5 -> 43        -0.00035
       5 -> 45         0.00039
       5 -> 47        -0.00048
       5 -> 51         0.00034
       6 -> 12        -0.00093
       6 -> 16        -0.00023
       6 -> 19         0.00067
       6 -> 22        -0.00107
       6 -> 30        -0.00094
       6 -> 36        -0.00040
       6 -> 40        -0.00082
       6 -> 42        -0.00023
       6 -> 49         0.00142
       6 -> 50        -0.00012
       6 -> 53        -0.00013
       7 -> 27        -0.00068
       7 -> 46         0.00213
       8 -> 10         0.29694
       8 -> 11         0.63943
       8 -> 14         0.01988
       8 -> 15        -0.04699
       8 -> 17        -0.00626
       8 -> 20         0.01538
       8 -> 21         0.00418
       8 -> 24        -0.00394
       8 -> 26         0.00095
       8 -> 29        -0.00369
       8 -> 32        -0.00059
       8 -> 34        -0.00087
       8 -> 35        -0.00080
       8 -> 39         0.00012
       8 -> 43         0.00015
       8 -> 45         0.00174
       8 -> 47        -0.00222
       8 -> 51         0.00121
       8 -> 54        -0.00041
       3 <- 16         0.00077
       3 <- 19        -0.00087
       3 <- 22        -0.00022
       3 <- 25         0.00043
       3 <- 30        -0.00137
       3 <- 36         0.00056
       3 <- 40         0.00055
       3 <- 49        -0.00090
       3 <- 53         0.00036
       4 <- 12         0.00046
       4 <- 16         0.00027
       4 <- 19         0.00092
       4 <- 25         0.00040
       4 <- 30         0.00101
       4 <- 33        -0.00023
       4 <- 36         0.00034
       4 <- 42        -0.00010
       4 <- 50        -0.00014
       5 <- 10         0.00122
       5 <- 11        -0.00123
       5 <- 14        -0.00108
       5 <- 15         0.00132
       5 <- 20         0.00031
       5 <- 21         0.00062
       5 <- 24        -0.00028
       5 <- 26         0.00045
       5 <- 29        -0.00029
       5 <- 32        -0.00044
       5 <- 34         0.00060
       5 <- 39        -0.00026
       5 <- 43        -0.00021
       5 <- 45         0.00048
       5 <- 47        -0.00044
       5 <- 51         0.00023
       6 <- 12        -0.00024
       6 <- 16         0.00175
       6 <- 19        -0.00074
       6 <- 22        -0.00153
       6 <- 25         0.00010
       6 <- 30        -0.00177
       6 <- 33         0.00015
       6 <- 36        -0.00051
       6 <- 40        -0.00081
       6 <- 42        -0.00024
       6 <- 49         0.00127
       6 <- 50        -0.00011
       6 <- 53        -0.00027
       7 <- 27        -0.00054
       7 <- 46         0.00179
       8 <- 10         0.00359
       8 <- 11        -0.00537
       8 <- 14        -0.00404
       8 <- 15         0.00367
       8 <- 17        -0.00103
       8 <- 20        -0.00274
       8 <- 21        -0.00060
       8 <- 24         0.00115
       8 <- 26         0.00071
       8 <- 29        -0.00097
       8 <- 32         0.00190
       8 <- 34         0.00141
       8 <- 35        -0.00080
       8 <- 39         0.00092
       8 <- 41         0.00042
       8 <- 43         0.00023
       8 <- 45         0.00162
       8 <- 47        -0.00162
       8 <- 51         0.00084
 
 Excited State   6:      Singlet-A2     7.6814 eV  161.41 nm  f=0.0000  <S**2>=0.000
       3 -> 27        -0.00130
       3 -> 38        -0.00049
       3 -> 46         0.00035
       4 -> 27        -0.00588
       4 -> 38         0.00047
       4 -> 46        -0.00040
       5 ->  9         0.70587
       5 -> 13        -0.02796
       5 -> 18         0.00659
       5 -> 23        -0.01525
       5 -> 28         0.00109
       5 -> 31        -0.00105
       5 -> 37        -0.00584
       5 -> 44        -0.00210
       5 -> 48        -0.00021
       5 -> 52         0.00013
       6 -> 27        -0.00113
       6 -> 38         0.00211
       6 -> 46         0.00034
       7 -> 12         0.01475
       7 -> 16         0.01389
       7 -> 19         0.00105
       7 -> 22        -0.00511
       7 -> 25         0.00032
       7 -> 30        -0.00081
       7 -> 33        -0.00040
       7 -> 36        -0.00038
       7 -> 40        -0.00013
       7 -> 42        -0.00026
       7 -> 49        -0.00018
       7 -> 50        -0.00080
       8 ->  9        -0.00883
       8 -> 13         0.01680
       8 -> 18         0.00666
       8 -> 23         0.00281
       8 -> 28         0.00150
       8 -> 31         0.00100
       8 -> 37         0.00205
       8 -> 44         0.00022
       8 -> 48         0.00013
       8 -> 52         0.00038
       3 <- 27        -0.00151
       3 <- 38        -0.00062
       3 <- 46         0.00045
       4 <- 27        -0.00516
       4 <- 38         0.00017
       5 <-  9        -0.01247
       5 <- 13         0.00200
       5 <- 18        -0.00021
       5 <- 28         0.00180
       5 <- 31        -0.00286
       5 <- 37        -0.00340
       5 <- 44        -0.00039
       5 <- 48        -0.00027
       6 <- 27        -0.00148
       6 <- 38         0.00153
       6 <- 46         0.00019
       7 <- 12        -0.00244
       7 <- 16        -0.00097
       7 <- 19        -0.00030
       7 <- 22        -0.00338
       7 <- 25        -0.00309
       7 <- 30         0.00014
       7 <- 33         0.00043
       7 <- 36        -0.00088
       7 <- 40        -0.00061
       7 <- 42        -0.00059
       7 <- 49        -0.00038
       7 <- 50        -0.00089
       7 <- 53         0.00022
       8 <-  9         0.00019
       8 <- 13        -0.00045
       8 <- 18        -0.00147
       8 <- 23        -0.00011
       8 <- 28        -0.00198
       8 <- 31         0.00129
       8 <- 37         0.00098
 
 Excited State   7:      Singlet-B1     7.7838 eV  159.29 nm  f=0.0000  <S**2>=0.000
       3 ->  9         0.01446
       3 -> 13        -0.00066
       3 -> 18         0.00247
       3 -> 23        -0.00120
       3 -> 28         0.00280
       3 -> 31         0.00097
       3 -> 44        -0.00052
       3 -> 48         0.00141
       4 ->  9         0.03448
       4 -> 13        -0.00526
       4 -> 18        -0.00157
       4 -> 23        -0.00431
       4 -> 28        -0.00208
       4 -> 31         0.00070
       4 -> 37        -0.00048
       4 -> 44         0.00025
       4 -> 48        -0.00033
       5 -> 27         0.00656
       5 -> 38         0.00255
       5 -> 46        -0.00068
       6 ->  9         0.02752
       6 -> 13         0.00466
       6 -> 18        -0.00220
       6 -> 23         0.00176
       6 -> 28        -0.00255
       6 -> 31         0.00297
       6 -> 37        -0.00135
       6 -> 44         0.00043
       6 -> 48        -0.00109
       6 -> 52         0.00028
       7 -> 10         0.66717
       7 -> 11        -0.20284
       7 -> 14        -0.09013
       7 -> 15         0.06017
       7 -> 17         0.00527
       7 -> 20         0.00694
       7 -> 21        -0.00033
       7 -> 24         0.00447
       7 -> 26         0.00752
       7 -> 29         0.00491
       7 -> 32         0.00011
       7 -> 34         0.00266
       7 -> 35         0.00218
       7 -> 39         0.00067
       7 -> 41        -0.00013
       7 -> 43        -0.00025
       7 -> 47        -0.00197
       7 -> 51        -0.00100
       7 -> 54         0.00076
       8 -> 27        -0.00153
       8 -> 38        -0.00048
       8 -> 46        -0.00218
       3 <-  9         0.00298
       3 <- 13        -0.00062
       3 <- 18         0.00098
       3 <- 23        -0.00075
       3 <- 28         0.00158
       3 <- 31         0.00012
       3 <- 37         0.00019
       3 <- 44        -0.00021
       3 <- 48         0.00159
       3 <- 52        -0.00037
       4 <-  9         0.00680
       4 <- 13        -0.00142
       4 <- 18        -0.00046
       4 <- 23        -0.00158
       4 <- 28        -0.00170
       4 <- 31         0.00076
       4 <- 37        -0.00051
       4 <- 44         0.00059
       5 <- 27         0.00401
       5 <- 38         0.00184
       5 <- 46        -0.00056
       6 <-  9         0.01445
       6 <- 13         0.00046
       6 <- 18         0.00249
       6 <- 23         0.00047
       6 <- 28         0.00053
       6 <- 31         0.00288
       6 <- 37        -0.00097
       6 <- 44         0.00027
       6 <- 48        -0.00115
       6 <- 52         0.00067
       7 <- 10        -0.00664
       7 <- 11         0.00775
       7 <- 14         0.00890
       7 <- 15        -0.00342
       7 <- 17        -0.00070
       7 <- 20         0.00119
       7 <- 21         0.00226
       7 <- 24         0.00053
       7 <- 26        -0.00109
       7 <- 32        -0.00158
       7 <- 34         0.00073
       7 <- 35         0.00146
       7 <- 39        -0.00030
       7 <- 43        -0.00048
       7 <- 45        -0.00020
       7 <- 47        -0.00156
       7 <- 51        -0.00044
       7 <- 54         0.00028
       8 <- 27        -0.00091
       8 <- 38        -0.00025
       8 <- 46        -0.00159
 
 Excited State   8:      Singlet-A1     8.0501 eV  154.02 nm  f=0.0224  <S**2>=0.000
       3 -> 10         0.00298
       3 -> 11        -0.00041
       3 -> 14        -0.00296
       3 -> 15         0.00159
       3 -> 17        -0.00026
       3 -> 24         0.00014
       3 -> 26         0.00023
       3 -> 29         0.00021
       3 -> 32         0.00018
       3 -> 34         0.00075
       3 -> 35        -0.00060
       3 -> 41        -0.00017
       3 -> 45        -0.00018
       3 -> 47        -0.00010
       3 -> 54        -0.00011
       4 -> 10         0.00145
       4 -> 11        -0.00096
       4 -> 14        -0.00012
       4 -> 15        -0.00171
       4 -> 17         0.00101
       4 -> 20         0.00101
       4 -> 21         0.00104
       4 -> 24        -0.00368
       4 -> 26         0.00168
       4 -> 32        -0.00039
       4 -> 34        -0.00026
       4 -> 35         0.00013
       4 -> 39         0.00014
       4 -> 43         0.00012
       5 -> 12        -0.00130
       5 -> 16         0.00021
       5 -> 19         0.00361
       5 -> 22        -0.00248
       5 -> 25         0.00305
       5 -> 30        -0.00016
       5 -> 36         0.00050
       5 -> 40         0.00012
       6 -> 10         0.00167
       6 -> 11         0.00336
       6 -> 14         0.00133
       6 -> 15        -0.00403
       6 -> 17        -0.00257
       6 -> 20         0.00068
       6 -> 21         0.00153
       6 -> 24        -0.00292
       6 -> 26         0.00011
       6 -> 29        -0.00205
       6 -> 32         0.00031
       6 -> 34         0.00017
       6 -> 35         0.00021
       6 -> 39         0.00046
       6 -> 43         0.00022
       6 -> 45         0.00041
       6 -> 47         0.00019
       6 -> 51         0.00011
       6 -> 54        -0.00015
       7 ->  9         0.00515
       7 -> 13         0.00949
       7 -> 18        -0.00407
       7 -> 23         0.00258
       7 -> 28        -0.00129
       7 -> 31        -0.00118
       7 -> 37         0.00051
       7 -> 44         0.00043
       7 -> 48        -0.00029
       7 -> 52        -0.00015
       8 -> 12         0.70641
       8 -> 16         0.01053
       8 -> 19         0.02432
       8 -> 22         0.00123
       8 -> 25         0.00677
       8 -> 30        -0.00200
       8 -> 33         0.00117
       8 -> 36        -0.00130
       8 -> 42        -0.00011
       8 -> 49        -0.00042
       8 -> 53        -0.00015
       3 <- 10         0.00097
       3 <- 11        -0.00095
       3 <- 14        -0.00099
       3 <- 15         0.00063
       3 <- 20        -0.00039
       3 <- 24        -0.00017
       3 <- 26         0.00032
       3 <- 32         0.00024
       3 <- 34         0.00047
       3 <- 35        -0.00048
[...]
  46        4PY         0.00000   0.00000  -0.02156  -0.05659  -0.08754
  47        4PZ        -0.00425   0.00000   0.01696   0.02455   0.01680
  48        5S         -0.00237   0.00000   0.00769   0.01125   0.00931
  49        5PX         0.00000   0.00000   0.00000   0.00000   0.00000
  50        5PY         0.00000   0.00000  -0.01132  -0.02188  -0.02161
  51        5PZ        -0.00005   0.00000   0.00191   0.00247  -0.00009
  52        6D 0        0.00028   0.00000  -0.00046  -0.00079  -0.00123
  53        6D+1        0.00000   0.00000   0.00000   0.00000   0.00000
  54        6D-1        0.00000   0.00000  -0.00124  -0.00114   0.00152
  55        6D+2        0.00002   0.00000  -0.00005  -0.00003  -0.00000
  56        6D-2        0.00000   0.00000   0.00000   0.00000   0.00000
                          26        27        28        29        30
  26        4PX         0.00027
  27        4PY         0.00000   0.00106
  28        4PZ         0.00000  -0.00048   0.00061
  29 3   H  1S          0.00000  -0.00179  -0.00279   0.07806
  30        2S          0.00000  -0.00167  -0.00438   0.11083   0.16065
  31        3S          0.00000   0.00065  -0.00232   0.03468   0.05773
  32        4PX         0.00027   0.00000   0.00000   0.00000   0.00000
  33        4PY         0.00000  -0.00056  -0.00007   0.00807   0.01071
  34        4PZ         0.00000   0.00007   0.00001   0.00442   0.00619
  35 4   O  1S          0.00000   0.00004  -0.00057   0.00152   0.00052
  36        2S          0.00000   0.00006  -0.00074   0.00246   0.00099
  37        2PX         0.00558   0.00000   0.00000   0.00000   0.00000
  38        2PY         0.00000  -0.00179   0.00104   0.01423   0.04003
  39        2PZ         0.00000  -0.00128  -0.00467   0.01516   0.02224
  40        3S          0.00000  -0.00005   0.00151  -0.00824  -0.00446
  41        3PX         0.00811   0.00000   0.00000   0.00000   0.00000
  42        3PY         0.00000  -0.00260   0.00153   0.01997   0.05674
  43        3PZ         0.00000  -0.00182  -0.00697   0.02213   0.03247
  44        4S          0.00000  -0.00028  -0.00051  -0.00251   0.00271
  45        4PX         0.00721   0.00000   0.00000   0.00000   0.00000
  46        4PY         0.00000  -0.00211   0.00110   0.02156   0.05659
  47        4PZ         0.00000  -0.00156  -0.00465   0.01696   0.02455
  48        5S          0.00000  -0.00050  -0.00281   0.00769   0.01125
  49        5PX         0.00104   0.00000   0.00000   0.00000   0.00000
  50        5PY         0.00000   0.00006  -0.00033   0.01132   0.02188
  51        5PZ         0.00000  -0.00038   0.00024   0.00191   0.00247
  52        6D 0        0.00000  -0.00003   0.00042  -0.00046  -0.00079
  53        6D+1       -0.00036   0.00000   0.00000   0.00000   0.00000
  54        6D-1        0.00000   0.00019  -0.00018   0.00124   0.00114
  55        6D+2        0.00000   0.00000   0.00001  -0.00005  -0.00003
  56        6D-2       -0.00000   0.00000   0.00000   0.00000   0.00000
                          31        32        33        34        35
  31        3S          0.03959
  32        4PX         0.00000   0.00027
  33        4PY         0.00169   0.00000   0.00106
  34        4PZ         0.00100   0.00000   0.00048   0.00061
  35 4   O  1S          0.00008   0.00000  -0.00004  -0.00057   0.64128
  36        2S          0.00002   0.00000  -0.00006  -0.00074   0.57164
  37        2PX         0.00000   0.00558   0.00000   0.00000   0.00000
  38        2PY         0.06612   0.00000  -0.00179  -0.00104   0.00000
  39        2PZ         0.01643   0.00000   0.00128  -0.00467  -0.01062
  40        3S          0.00038   0.00000   0.00005   0.00151  -0.14543
  41        3PX         0.00000   0.00811   0.00000   0.00000   0.00000
  42        3PY         0.09455   0.00000  -0.00260  -0.00153   0.00000
  43        3PZ         0.02433   0.00000   0.00182  -0.00697  -0.01207
  44        4S          0.00600   0.00000   0.00028  -0.00051  -0.13945
  45        4PX         0.00000   0.00721   0.00000   0.00000   0.00000
  46        4PY         0.08754   0.00000  -0.00211  -0.00110   0.00000
  47        4PZ         0.01680   0.00000   0.00156  -0.00465  -0.00933
  48        5S          0.00931   0.00000   0.00050  -0.00281   0.00686
  49        5PX         0.00000   0.00104   0.00000   0.00000   0.00000
  50        5PY         0.02161   0.00000   0.00006   0.00033   0.00000
  51        5PZ        -0.00009   0.00000   0.00038   0.00024  -0.00445
  52        6D 0       -0.00123   0.00000   0.00003   0.00042  -0.00073
  53        6D+1        0.00000  -0.00036   0.00000   0.00000   0.00000
  54        6D-1       -0.00152   0.00000   0.00019   0.00018   0.00000
  55        6D+2       -0.00000   0.00000  -0.00000   0.00001  -0.00082
  56        6D-2        0.00000   0.00000   0.00000   0.00000   0.00000
                          36        37        38        39        40
  36        2S          0.52751
  37        2PX         0.00000   0.11568
  38        2PY         0.00000   0.00000   0.19041
  39        2PZ        -0.01650  -0.00000  -0.00000   0.10582
  40        3S         -0.24413   0.00000   0.00000   0.04832   0.76305
  41        3PX         0.00000   0.16826   0.00000   0.00000   0.00000
  42        3PY         0.00000   0.00000   0.27296   0.00000   0.00000
  43        3PZ        -0.02000  -0.00000  -0.00000   0.15633   0.06328
  44        4S         -0.21759   0.00000   0.00000   0.07603   0.62693
  45        4PX         0.00000   0.14956   0.00000   0.00000   0.00000
  46        4PY         0.00000   0.00000   0.24721   0.00000   0.00000
  47        4PZ        -0.01595  -0.00000  -0.00000   0.10761   0.05182
  48        5S          0.00597   0.00000   0.00000   0.05870  -0.00001
  49        5PX         0.00000   0.02159   0.00000   0.00000   0.00000
  50        5PY         0.00000   0.00000   0.05027   0.00000   0.00000
  51        5PZ        -0.00636  -0.00000  -0.00000  -0.00053   0.01619
  52        6D 0       -0.00108   0.00000   0.00000  -0.00787   0.00277
  53        6D+1       -0.00000  -0.00740   0.00000  -0.00000   0.00000
  54        6D-1       -0.00000   0.00000  -0.00719  -0.00000   0.00000
  55        6D+2       -0.00132   0.00000   0.00000   0.00021   0.00391
  56        6D-2        0.00000   0.00000   0.00000   0.00000   0.00000
                          41        42        43        44        45
  41        3PX         0.24474
  42        3PY         0.00000   0.39130
  43        3PZ        -0.00000  -0.00000   0.23105
  44        4S          0.00000   0.00000   0.10580   0.52861
  45        4PX         0.21754   0.00000   0.00000   0.00000   0.19336
  46        4PY         0.00000   0.35436   0.00000   0.00000   0.00000
  47        4PZ        -0.00000  -0.00000   0.15893   0.07932  -0.00000
  48        5S          0.00000   0.00000   0.08706   0.02055   0.00000
  49        5PX         0.03140   0.00000   0.00000   0.00000   0.02791
  50        5PY         0.00000   0.07200   0.00000   0.00000   0.00000
  51        5PZ        -0.00000  -0.00000  -0.00100   0.01270  -0.00000
  52        6D 0        0.00000   0.00000  -0.01171  -0.00059   0.00000
  53        6D+1       -0.01076   0.00000  -0.00000   0.00000  -0.00957
  54        6D-1        0.00000  -0.01032  -0.00000   0.00000   0.00000
  55        6D+2        0.00000   0.00000   0.00028   0.00320   0.00000
  56        6D-2        0.00000   0.00000   0.00000   0.00000   0.00000
                          46        47        48        49        50
  46        4PY         0.32117
  47        4PZ        -0.00000   0.10954
  48        5S          0.00000   0.05955   0.03371
  49        5PX         0.00000   0.00000   0.00000   0.00403
  50        5PY         0.06578   0.00000   0.00000   0.00000   0.01452
  51        5PZ        -0.00000  -0.00035  -0.00102  -0.00000  -0.00000
  52        6D 0        0.00000  -0.00794  -0.00464   0.00000   0.00000
  53        6D+1        0.00000  -0.00000  -0.00000  -0.00138   0.00000
  54        6D-1       -0.00922  -0.00000  -0.00000   0.00000  -0.00161
  55        6D+2        0.00000   0.00023  -0.00002   0.00000   0.00000
  56        6D-2        0.00000   0.00000   0.00000   0.00000   0.00000
                          51        52        53        54        55
  51        5PZ         0.00057
  52        6D 0        0.00025   0.00066
  53        6D+1        0.00000  -0.00000   0.00047
  54        6D-1        0.00000  -0.00000   0.00000   0.00034
  55        6D+2        0.00008   0.00002   0.00000   0.00000   0.00002
  56        6D-2        0.00000   0.00000   0.00000   0.00000   0.00000
                          56
  56        6D-2        0.00000
          Condensed to atoms (all electrons):
               1          2          3          4
     1  C    5.019601   0.360563   0.360563   0.311650
     2  H    0.360563   0.553834  -0.060444  -0.028612
     3  H    0.360563  -0.060444   0.553834  -0.028612
     4  O    0.311650  -0.028612  -0.028612   8.042512
 Mulliken charges:
               1
     1  C   -0.052378
     2  H    0.174658
     3  H    0.174658
     4  O   -0.296939
 Sum of Mulliken charges =   0.00000
 Mulliken charges with hydrogens summed into heavy atoms:
               1
     1  C    0.296939
     4  O   -0.296939
 Electronic spatial extent (au):  <R**2>=             76.2946
 Charge=              0.0000 electrons
 Dipole moment (field-independent basis, Debye):
    X=             -0.0000    Y=             -0.0000    Z=             -3.6539  Tot=              3.6539
 Quadrupole moment (field-independent basis, Debye-Ang):
   XX=            -12.6472   YY=            -11.8568   ZZ=            -11.4461
   XY=              0.0000   XZ=              0.0000   YZ=              0.0000
 Traceless Quadrupole moment (field-independent basis, Debye-Ang):
   XX=             -0.6638   YY=              0.1266   ZZ=              0.5373
   XY=              0.0000   XZ=              0.0000   YZ=              0.0000
 Octapole moment (field-independent basis, Debye-Ang**2):
  XXX=              0.0000  YYY=             -0.0000  ZZZ=             -2.0405  XYY=             -0.0000
  XXY=             -0.0000  XXZ=              0.5327  XZZ=             -0.0000  YZZ=              0.0000
  YYZ=             -2.0920  XYZ=             -0.0000
 Hexadecapole moment (field-independent basis, Debye-Ang**3):
 XXXX=            -13.0086 YYYY=            -18.3427 ZZZZ=            -62.4931 XXXY=             -0.0000
 XXXZ=             -0.0000 YYYX=             -0.0000 YYYZ=             -0.0000 ZZZX=             -0.0000
 ZZZY=             -0.0000 XXYY=             -5.6510 XXZZ=            -13.1699 YYZZ=            -12.2399
 XXYZ=              0.0000 YYXZ=              0.0000 ZZXY=              0.0000
 N-N= 2.596216858412D+01 E-N=-3.204743175665D+02  KE= 1.134232545627D+02
 Symmetry A1   KE= 1.029758197756D+02
 Symmetry A2   KE= 1.867674353786D-35
 Symmetry B1   KE= 3.614568891884D+00
 Symmetry B2   KE= 6.832865895150D+00
 Leave Link  601 at Fri Sep 17 10:52:58 2021, MaxMem=   268435456 cpu:               0.1 elap:               0.2
 (Enter /software/gaussian/g16-a03/l9999.exe)
 Electronic transition elements 
                 1             2             3             4             5 
      1  -0.114365D+03 -0.114243D+03 -0.114234D+03 -0.114207D+03 -0.114184D+03
      2   0.000000D+00  0.000000D+00  0.102263D+00  0.000000D+00  0.000000D+00
      3   0.000000D+00  0.000000D+00  0.000000D+00  0.336394D+00 -0.153153D+00
      4   0.000000D+00  0.806603D+00  0.000000D+00  0.000000D+00  0.000000D+00
      5   0.000000D+00  0.000000D+00 -0.390292D-01  0.000000D+00  0.000000D+00
      6   0.000000D+00  0.000000D+00  0.000000D+00 -0.810484D-01  0.372309D-01
      7   0.000000D+00 -0.149938D+00  0.000000D+00  0.000000D+00  0.000000D+00
      8   0.000000D+00  0.000000D+00  0.000000D+00 -0.155809D+00 -0.447436D+00
      9   0.000000D+00  0.000000D+00 -0.170590D+01  0.000000D+00  0.000000D+00
     10   0.105391D+01  0.000000D+00  0.000000D+00  0.000000D+00  0.000000D+00
     11   0.000000D+00  0.994477D-01  0.000000D+00  0.000000D+00  0.000000D+00
     12   0.000000D+00 -0.459383D-02  0.000000D+00  0.000000D+00  0.000000D+00
     13   0.000000D+00 -0.581977D-01  0.000000D+00  0.000000D+00  0.000000D+00
     14  -0.413890D-01  0.000000D+00  0.000000D+00  0.000000D+00  0.000000D+00
     15   0.000000D+00  0.000000D+00 -0.171597D+00  0.000000D+00  0.000000D+00
     16   0.000000D+00  0.000000D+00  0.000000D+00  0.115254D+00  0.327579D+00
                 6             7             8             9            10 
      1  -0.114162D+03 -0.114159D+03 -0.114149D+03 -0.114136D+03 -0.114129D+03
      2   0.000000D+00  0.147674D-01  0.000000D+00 -0.721960D+00  0.000000D+00
      3   0.000000D+00  0.000000D+00  0.000000D+00  0.000000D+00  0.000000D+00
      4   0.000000D+00  0.000000D+00 -0.337310D+00  0.000000D+00  0.000000D+00
      5   0.000000D+00  0.360611D-02  0.000000D+00  0.224409D+00  0.000000D+00
      6   0.000000D+00  0.000000D+00  0.000000D+00  0.000000D+00  0.000000D+00
      7   0.000000D+00  0.000000D+00  0.976468D-01  0.000000D+00  0.000000D+00
      8   0.000000D+00  0.000000D+00  0.000000D+00  0.000000D+00  0.000000D+00
      9   0.000000D+00  0.383738D+00  0.000000D+00 -0.303562D+00  0.000000D+00
     10  -0.952364D+00  0.000000D+00  0.000000D+00  0.000000D+00  0.882555D-02
     11   0.000000D+00  0.000000D+00  0.249829D-01  0.000000D+00  0.000000D+00
     12   0.000000D+00  0.000000D+00 -0.226831D-01  0.000000D+00  0.000000D+00
     13   0.000000D+00  0.000000D+00 -0.233649D+00  0.000000D+00  0.000000D+00
     14   0.182749D+00  0.000000D+00  0.000000D+00  0.000000D+00  0.340667D-01
     15   0.000000D+00 -0.265909D+00  0.000000D+00  0.312458D-01  0.000000D+00
     16   0.000000D+00  0.000000D+00  0.000000D+00  0.000000D+00  0.000000D+00
                11            12            13            14            15 
      1  -0.114104D+03 -0.114103D+03 -0.114081D+03 -0.114065D+03 -0.114064D+03
      2   0.000000D+00  0.000000D+00  0.000000D+00  0.000000D+00  0.000000D+00
      3   0.000000D+00  0.177731D+00  0.000000D+00 -0.391282D+00  0.000000D+00
      4   0.000000D+00  0.000000D+00  0.107373D+00  0.000000D+00  0.627077D+00
      5   0.000000D+00  0.000000D+00  0.000000D+00  0.000000D+00  0.000000D+00
      6   0.000000D+00 -0.659028D-01  0.000000D+00  0.151712D+00  0.000000D+00
      7   0.000000D+00  0.000000D+00 -0.357398D-01  0.000000D+00 -0.243341D+00
      8   0.000000D+00  0.575669D+00  0.000000D+00  0.431285D+00  0.000000D+00
      9   0.000000D+00  0.000000D+00  0.000000D+00  0.000000D+00  0.000000D+00
     10   0.281935D-01  0.000000D+00  0.000000D+00  0.000000D+00  0.000000D+00
     11   0.000000D+00  0.000000D+00  0.807531D+00  0.000000D+00 -0.407931D-01
     12   0.000000D+00  0.000000D+00  0.335593D-01  0.000000D+00 -0.598356D-01
     13   0.000000D+00  0.000000D+00 -0.610116D-01  0.000000D+00  0.315496D+00
     14   0.285671D+00  0.000000D+00  0.000000D+00  0.000000D+00  0.000000D+00
     15   0.000000D+00  0.000000D+00  0.000000D+00  0.000000D+00  0.000000D+00
     16   0.000000D+00 -0.189426D+00  0.000000D+00 -0.136492D+00  0.000000D+00
                16            17            18            19            20 
      1  -0.114056D+03 -0.114045D+03 -0.114023D+03 -0.114020D+03 -0.114019D+03
      2   0.500192D-01  0.000000D+00 -0.375956D+00  0.000000D+00  0.000000D+00
      3   0.000000D+00  0.000000D+00  0.000000D+00  0.000000D+00 -0.325536D+00
      4   0.000000D+00 -0.261408D+00  0.000000D+00 -0.108679D+01  0.000000D+00
      5  -0.418729D-01  0.000000D+00  0.147742D+00  0.000000D+00  0.000000D+00
      6   0.000000D+00  0.000000D+00  0.000000D+00  0.000000D+00  0.136854D+00
      7   0.000000D+00  0.116333D+00  0.000000D+00  0.464598D+00  0.000000D+00
      8   0.000000D+00  0.000000D+00  0.000000D+00  0.000000D+00 -0.132614D+00
      9  -0.407551D+00  0.000000D+00  0.342423D+00  0.000000D+00  0.000000D+00
     10   0.000000D+00  0.000000D+00  0.000000D+00  0.000000D+00  0.000000D+00
     11   0.000000D+00  0.268096D+00  0.000000D+00 -0.248121D-01  0.000000D+00
     12   0.000000D+00  0.388341D+00  0.000000D+00 -0.386711D+00  0.000000D+00
     13   0.000000D+00  0.523263D+00  0.000000D+00 -0.255463D+00  0.000000D+00
     14   0.000000D+00  0.000000D+00  0.000000D+00  0.000000D+00  0.000000D+00
     15  -0.263402D+00  0.000000D+00 -0.184726D-02  0.000000D+00  0.000000D+00
     16   0.000000D+00  0.000000D+00  0.000000D+00  0.000000D+00 -0.347554D+00
                21            22            23            24            25 
      1  -0.114016D+03 -0.114009D+03 -0.114006D+03 -0.113999D+03 -0.113994D+03
      2   0.000000D+00  0.000000D+00  0.000000D+00 -0.136090D+00  0.000000D+00
      3  -0.541490D-02  0.000000D+00 -0.454284D+00  0.000000D+00  0.000000D+00
      4   0.000000D+00  0.000000D+00  0.000000D+00  0.000000D+00  0.000000D+00
      5   0.000000D+00  0.000000D+00  0.000000D+00  0.558659D-01  0.000000D+00
      6  -0.905899D-02  0.000000D+00  0.200603D+00  0.000000D+00  0.000000D+00
      7   0.000000D+00  0.000000D+00  0.000000D+00  0.000000D+00  0.000000D+00
      8   0.202046D+00  0.000000D+00 -0.103482D+00  0.000000D+00  0.000000D+00
      9   0.000000D+00  0.000000D+00  0.000000D+00  0.141733D+00  0.000000D+00
     10   0.000000D+00 -0.501141D-01  0.000000D+00  0.000000D+00 -0.337957D-01
     11   0.000000D+00  0.000000D+00  0.000000D+00  0.000000D+00  0.000000D+00
     12   0.000000D+00  0.000000D+00  0.000000D+00  0.000000D+00  0.000000D+00
     13   0.000000D+00  0.000000D+00  0.000000D+00  0.000000D+00  0.000000D+00
     14   0.000000D+00 -0.254056D+00  0.000000D+00  0.000000D+00  0.384396D+00
     15   0.000000D+00  0.000000D+00  0.000000D+00 -0.119035D+00  0.000000D+00
     16   0.437381D+00  0.000000D+00 -0.811894D+00  0.000000D+00  0.000000D+00
                26            27            28            29            30 
      1  -0.113983D+03 -0.113966D+03 -0.113960D+03 -0.113954D+03 -0.113947D+03
      2   0.000000D+00  0.136740D+00  0.000000D+00  0.000000D+00  0.000000D+00
      3  -0.536145D+00  0.000000D+00  0.000000D+00  0.000000D+00  0.000000D+00
      4   0.000000D+00  0.000000D+00 -0.559866D+00 -0.799391D+00  0.567066D-01
      5   0.000000D+00 -0.577870D-01  0.000000D+00  0.000000D+00  0.000000D+00
      6   0.241805D+00  0.000000D+00  0.000000D+00  0.000000D+00  0.000000D+00
      7   0.000000D+00  0.000000D+00  0.258010D+00  0.383234D+00 -0.255727D-01
      8   0.100171D+01  0.000000D+00  0.000000D+00  0.000000D+00  0.000000D+00
      9   0.000000D+00 -0.412314D-01  0.000000D+00  0.000000D+00  0.000000D+00
     10   0.000000D+00  0.000000D+00  0.000000D+00  0.000000D+00  0.000000D+00
     11   0.000000D+00  0.000000D+00 -0.688529D-01  0.190092D+00  0.220540D+00
     12   0.000000D+00  0.000000D+00  0.255867D+00 -0.903853D+00  0.607808D+00
     13   0.000000D+00  0.000000D+00  0.179801D+00 -0.894364D-02  0.398081D+00
     14   0.000000D+00  0.000000D+00  0.000000D+00  0.000000D+00  0.000000D+00
     15   0.000000D+00  0.260209D+00  0.000000D+00  0.000000D+00  0.000000D+00
     16  -0.169940D+00  0.000000D+00  0.000000D+00  0.000000D+00  0.000000D+00

 Test job not archived.
 1\1\GINC-BHD0016\SP\RB3LYP TD-FC\6-311+G(d,p)\C1H2O1\BWEIGHT\17-Sep-20
 21\0\\#p B3LYP/6-311+G** #p TD=(singlets,nstates=30)IOp(6/8=3) IOp(9/4
 0=4)\\Scan Step 211, Bond Length 1.555\\0,1\C,0,0.,0.,-0.52736\H,0,0.,
 0.93726,-1.11871\H,0,0.,-0.93726,-1.11871\O,0,0.,0.,1.02764\\Version=E
 S64L-G16RevA.03\State=1-A1\HF=-114.4447319\RMSD=3.148e-09\PG=C02V [C2(
 C1O1),SGV(H2)]\\@


 A MAN IS NEVER SO BRILLIANT AS WHEN HE TAKES THE WORDS RIGHT OUT
 OF YOUR MOUTH. -- ARNOT SHEPPARD, JR.
 Job cpu time:       0 days  0 hours  0 minutes 26.3 seconds.
 Elapsed time:       0 days  0 hours  0 minutes 27.1 seconds.
 File lengths (MBytes):  RWF=     79 Int=      0 D2E=      0 Chk=     32 Scr=      1
 Normal termination of Gaussian 16 at Fri Sep 17 10:52:58 2021.
