 Entering Gaussian System, Link 0=g16
 Initial command:
 /software/gaussian/g16-a03/l1.exe "/local_scratch/6485011/Gau-30828.inp" -scrdir="/local_scratch/6485011/"
 Entering Link 1 = /software/gaussian/g16-a03/l1.exe PID=     30907.
  
 Copyright (c) 1988,1990,1992,1993,1995,1998,2003,2009,2016,
            Gaussian, Inc.  All Rights Reserved.
  
 This is part of the Gaussian(R) 16 program.  It is based on
 the Gaussian(R) 09 system (copyright 2009, Gaussian, Inc.),
 the Gaussian(R) 03 system (copyright 2003, Gaussian, Inc.),
 the Gaussian(R) 98 system (copyright 1998, Gaussian, Inc.),
 the Gaussian(R) 94 system (copyright 1995, Gaussian, Inc.),
 the Gaussian 92(TM) system (copyright 1992, Gaussian, Inc.),
 the Gaussian 90(TM) system (copyright 1990, Gaussian, Inc.),
 the Gaussian 88(TM) system (copyright 1988, Gaussian, Inc.),
 the Gaussian 86(TM) system (copyright 1986, Carnegie Mellon
 University), and the Gaussian 82(TM) system (copyright 1983,
 Carnegie Mellon University). Gaussian is a federally registered
 trademark of Gaussian, Inc.
  
 This software contains proprietary and confidential information,
 including trade secrets, belonging to Gaussian, Inc.
  
 This software is provided under written license and may be
 used, copied, transmitted, or stored only in accord with that
 written license.
  
 The following legend is applicable only to US Government
 contracts under FAR:
  
                    RESTRICTED RIGHTS LEGEND
  
 Use, reproduction and disclosure by the US Government is
 subject to restrictions as set forth in subparagraphs (a)
 and (c) of the Commercial Computer Software - Restricted
 Rights clause in FAR 52.227-19.
  
 Gaussian, Inc.
 340 Quinnipiac St., Bldg. 40, Wallingford CT 06492
  
  
 ---------------------------------------------------------------
 Warning -- This program may not be used in any manner that
 competes with the business of Gaussian, Inc. or will provide
 assistance to any competitor of Gaussian, Inc.  The licensee
 of this program is prohibited from giving any competitor of
 Gaussian, Inc. access to this program.  By using this program,
 the user acknowledges that Gaussian, Inc. is engaged in the
 business of creating and licensing software in the field of
 computational chemistry and represents and warrants to the
 licensee that it is not a competitor of Gaussian, Inc. and that
 it will not use this program in any manner prohibited above.
 ---------------------------------------------------------------
  

 Cite this work as:
 Gaussian 16, Revision A.03,
 M. J. Frisch, G. W. Trucks, H. B. Schlegel, G. E. Scuseria, 
 M. A. Robb, J. R. Cheeseman, G. Scalmani, V. Barone, 
 G. A. Petersson, H. Nakatsuji, X. Li, M. Caricato, A. V. Marenich, 
 J. Bloino, B. G. Janesko, R. Gomperts, B. Mennucci, H. P. Hratchian, 
 J. V. Ortiz, A. F. Izmaylov, J. L. Sonnenberg, D. Williams-Young, 
 F. Ding, F. Lipparini, F. Egidi, J. Goings, B. Peng, A. Petrone, 
 T. Henderson, D. Ranasinghe, V. G. Zakrzewski, J. Gao, N. Rega, 
 G. Zheng, W. Liang, M. Hada, M. Ehara, K. Toyota, R. Fukuda, 
 J. Hasegawa, M. Ishida, T. Nakajima, Y. Honda, O. Kitao, H. Nakai, 
 T. Vreven, K. Throssell, J. A. Montgomery, Jr., J. E. Peralta, 
 F. Ogliaro, M. J. Bearpark, J. J. Heyd, E. N. Brothers, K. N. Kudin, 
 V. N. Staroverov, T. A. Keith, R. Kobayashi, J. Normand, 
 K. Raghavachari, A. P. Rendell, J. C. Burant, S. S. Iyengar, 
 J. Tomasi, M. Cossi, J. M. Millam, M. Klene, C. Adamo, R. Cammi, 
 J. W. Ochterski, R. L. Martin, K. Morokuma, O. Farkas, 
 J. B. Foresman, and D. J. Fox, Gaussian, Inc., Wallingford CT, 2016.
 
 ******************************************
 Gaussian 16:  ES64L-G16RevA.03 25-Dec-2016
                17-Sep-2021 
 ******************************************
 %chk=geometry.chk
 %mem=2GB
 %nprocshared=1
 Will use up to    1 processors via shared memory.
 --------------------------------------------------------------------
 #p B3LYP/6-311+G** #p TD=(singlets,nstates=30)IOp(6/8=3) IOp(9/40=4)
 --------------------------------------------------------------------
 1/38=1,172=1/1;
 2/12=2,17=6,18=5,40=1/2;
 3/5=4,6=6,7=111,11=9,25=1,30=1,74=-5/1,2,3,8;
 4//1;
 5/5=2,38=5/2;
 8/6=1,10=2,108=30/1;
 9/40=4,41=30,42=1,48=1,70=2/14;
 6/7=2,8=3,9=2,10=2/1;
 99/5=1,9=1/99;
 Leave Link    1 at Fri Sep 17 10:52:46 2021, MaxMem=   268435456 cpu:               0.0 elap:               0.1
 (Enter /software/gaussian/g16-a03/l101.exe)
 ---------------------------------------------
 Scan Step 280, Bond Length 1.9000000000000001
 ---------------------------------------------
 Symbolic Z-matrix:
 Charge =  0 Multiplicity = 1
 C                     0.        0.       -0.52736 
 H                     0.        0.93726  -1.11871 
 H                     0.       -0.93726  -1.11871 
 O                     0.        0.        1.37264 
 
 ITRead=  0  0  0  0
 MicOpt= -1 -1 -1 -1
 NAtoms=      4 NQM=        4 NQMF=       0 NMMI=      0 NMMIF=      0
                NMic=       0 NMicF=      0.
                    Isotopes and Nuclear Properties:
 (Nuclear quadrupole moments (NQMom) in fm**2, nuclear magnetic moments (NMagM)
  in nuclear magnetons)

  Atom         1           2           3           4
 IAtWgt=          12           1           1          16
 AtmWgt=  12.0000000   1.0078250   1.0078250  15.9949146
 NucSpn=           0           1           1           0
 AtZEff=  -0.0000000  -0.0000000  -0.0000000  -0.0000000
 NQMom=    0.0000000   0.0000000   0.0000000   0.0000000
 NMagM=    0.0000000   2.7928460   2.7928460   0.0000000
 AtZNuc=   6.0000000   1.0000000   1.0000000   8.0000000
 Leave Link  101 at Fri Sep 17 10:52:47 2021, MaxMem=   268435456 cpu:               0.1 elap:               0.1
 (Enter /software/gaussian/g16-a03/l202.exe)
                          Input orientation:                          
 ---------------------------------------------------------------------
 Center     Atomic      Atomic             Coordinates (Angstroms)
 Number     Number       Type             X           Y           Z
 ---------------------------------------------------------------------
      1          6           0        0.000000    0.000000   -0.527360
      2          1           0        0.000000    0.937260   -1.118710
      3          1           0        0.000000   -0.937260   -1.118710
      4          8           0        0.000000    0.000000    1.372640
 ---------------------------------------------------------------------
                    Distance matrix (angstroms):
                    1          2          3          4
     1  C    0.000000
     2  H    1.108220   0.000000
     3  H    1.108220   1.874520   0.000000
     4  O    1.900000   2.661819   2.661819   0.000000
 Stoichiometry    CH2O
 Framework group  C2V[C2(CO),SGV(H2)]
 Deg. of freedom     3
 Full point group                 C2V     NOp   4
 Largest Abelian subgroup         C2V     NOp   4
 Largest concise Abelian subgroup C2      NOp   2
                         Standard orientation:                         
 ---------------------------------------------------------------------
 Center     Atomic      Atomic             Coordinates (Angstroms)
 Number     Number       Type             X           Y           Z
 ---------------------------------------------------------------------
      1          6           0        0.000000   -0.000000   -0.876081
      2          1           0        0.000000    0.937260   -1.467431
      3          1           0       -0.000000   -0.937260   -1.467431
      4          8           0        0.000000    0.000000    1.023919
 ---------------------------------------------------------------------
 Rotational constants (GHZ):         285.4183527          16.8244751          15.8879336
 Leave Link  202 at Fri Sep 17 10:52:47 2021, MaxMem=   268435456 cpu:               0.0 elap:               0.0
 (Enter /software/gaussian/g16-a03/l301.exe)
 Standard basis: 6-311+G(d,p) (5D, 7F)
 Ernie: Thresh=  0.10000D-02 Tol=  0.10000D-05 Strict=F.
 There are    29 symmetry adapted cartesian basis functions of A1  symmetry.
 There are     3 symmetry adapted cartesian basis functions of A2  symmetry.
 There are    11 symmetry adapted cartesian basis functions of B1  symmetry.
 There are    15 symmetry adapted cartesian basis functions of B2  symmetry.
 There are    27 symmetry adapted basis functions of A1  symmetry.
 There are     3 symmetry adapted basis functions of A2  symmetry.
 There are    11 symmetry adapted basis functions of B1  symmetry.
 There are    15 symmetry adapted basis functions of B2  symmetry.
    56 basis functions,    88 primitive gaussians,    58 cartesian basis functions
     8 alpha electrons        8 beta electrons
       nuclear repulsion energy        22.5618574486 Hartrees.
 IExCor=  402 DFT=T Ex+Corr=B3LYP ExCW=0 ScaHFX=  0.200000
 ScaDFX=  0.800000  0.720000  1.000000  0.810000 ScalE2=  1.000000  1.000000
 IRadAn=      5 IRanWt=     -1 IRanGd=            0 ICorTp=0 IEmpDi=  4
 NAtoms=    4 NActive=    4 NUniq=    3 SFac= 1.78D+00 NAtFMM=   60 NAOKFM=F Big=F
 Integral buffers will be    131072 words long.
 Regular integral format.
 Two-electron integral symmetry is turned on.
 Leave Link  301 at Fri Sep 17 10:52:47 2021, MaxMem=   268435456 cpu:               0.1 elap:               0.1
 (Enter /software/gaussian/g16-a03/l302.exe)
 NPDir=0 NMtPBC=     1 NCelOv=     1 NCel=       1 NClECP=     1 NCelD=      1
         NCelK=      1 NCelE2=     1 NClLst=     1 CellRange=     0.0.
 One-electron integrals computed using PRISM.
 One-electron integral symmetry used in STVInt
 NBasis=    56 RedAO= T EigKep=  1.40D-02  NBF=    27     3    11    15
 NBsUse=    56 1.00D-06 EigRej= -1.00D+00 NBFU=    27     3    11    15
 Precomputing XC quadrature grid using
 IXCGrd= 4 IRadAn=           5 IRanWt=          -1 IRanGd=           0 AccXCQ= 0.00D+00.
 Generated NRdTot=       0 NPtTot=           0 NUsed=           0 NTot=          32
 NSgBfM=    58    58    58    58    58 MxSgAt=     4 MxSgA2=     4.
 Leave Link  302 at Fri Sep 17 10:52:47 2021, MaxMem=   268435456 cpu:               0.1 elap:               0.2
 (Enter /software/gaussian/g16-a03/l303.exe)
 DipDrv:  MaxL=1.
 Leave Link  303 at Fri Sep 17 10:52:47 2021, MaxMem=   268435456 cpu:               0.0 elap:               0.0
 (Enter /software/gaussian/g16-a03/l308.exe)
 Leave Link  308 at Fri Sep 17 10:52:47 2021, MaxMem=   268435456 cpu:               0.0 elap:               0.0
 (Enter /software/gaussian/g16-a03/l401.exe)
 ExpMin= 4.38D-02 ExpMax= 8.59D+03 ExpMxC= 1.30D+03 IAcc=3 IRadAn=         5 AccDes= 0.00D+00
 Harris functional with IExCor=  402 and IRadAn=       5 diagonalized for initial guess.
 HarFok:  IExCor=  402 AccDes= 0.00D+00 IRadAn=         5 IDoV= 1 UseB2=F ITyADJ=14
 ICtDFT=  3500011 ScaDFX=  1.000000  1.000000  1.000000  1.000000
 FoFCou: FMM=F IPFlag=           0 FMFlag=      100000 FMFlg1=           0
         NFxFlg=           0 DoJE=T BraDBF=F KetDBF=T FulRan=T
         wScrn=  0.000000 ICntrl=       500 IOpCl=  0 I1Cent=   200000004 NGrid=           0
         NMat0=    1 NMatS0=      1 NMatT0=    0 NMatD0=    1 NMtDS0=    0 NMtDT0=    0
 Petite list used in FoFCou.
 Harris En= -114.366997573757    
 JPrj=0 DoOrth=F DoCkMO=F.
 Initial guess orbital symmetries:
       Occupied  (A1) (A1) (A1) (A1) (B2) (A1) (B1) (B2)
       Virtual   (B1) (A1) (A1) (B2) (A1) (B1) (A1) (B2) (A1) (B1)
                 (B2) (A1) (B2) (A1) (B1) (A1) (B2) (A1) (B1) (A2)
                 (B2) (A1) (A1) (B1) (B2) (A1) (A1) (B2) (B1) (A2)
                 (A1) (B2) (A1) (B2) (A1) (B1) (A1) (A2) (A1) (B1)
                 (B2) (A1) (B2) (B1) (B2) (A1) (A1) (A1)
 The electronic state of the initial guess is 1-A1.
 Leave Link  401 at Fri Sep 17 10:52:47 2021, MaxMem=   268435456 cpu:               0.3 elap:               0.3
 (Enter /software/gaussian/g16-a03/l502.exe)
 Keep R1 ints in memory in symmetry-blocked form, NReq=2159901.
 FoFCou: FMM=F IPFlag=           0 FMFlag=           0 FMFlg1=           0
         NFxFlg=           0 DoJE=F BraDBF=F KetDBF=F FulRan=T
         wScrn=  0.000000 ICntrl=       600 IOpCl=  0 I1Cent=           0 NGrid=           0
         NMat0=    1 NMatS0=   1596 NMatT0=    0 NMatD0=    1 NMtDS0=    0 NMtDT0=    0
 Petite list used in FoFCou.
 Closed shell SCF:
 Using DIIS extrapolation, IDIIS=  1040.
 NGot=   268435456 LenX=   268074392 LenY=   268070587
 Requested convergence on RMS density matrix=1.00D-08 within 128 cycles.
 Requested convergence on MAX density matrix=1.00D-06.
 Requested convergence on             energy=1.00D-06.
 No special actions if energy rises.

 Cycle   1  Pass 1  IDiag  1:
 E= -114.140632572290    
 DIIS: error= 7.56D-02 at cycle   1 NSaved=   1.
 NSaved= 1 IEnMin= 1 EnMin= -114.140632572290     IErMin= 1 ErrMin= 7.56D-02
 ErrMax= 7.56D-02  0.00D+00 EMaxC= 1.00D-01 BMatC= 1.82D-01 BMatP= 1.82D-01
 IDIUse=3 WtCom= 2.44D-01 WtEn= 7.56D-01
 Coeff-Com:  0.100D+01
 Coeff-En:   0.100D+01
 Coeff:      0.100D+01
 Gap=     0.021 Goal=   None    Shift=    0.000
 GapD=    0.021 DampG=0.250 DampE=0.500 DampFc=0.2500 IDamp=-1.
 Damping current iteration by 2.50D-01
 RMSDP=4.05D-02 MaxDP=7.37D-01              OVMax= 9.49D-01

 Cycle   2  Pass 1  IDiag  1:
 E= -114.010840056092     Delta-E=        0.129792516198 Rises=F Damp=T
 DIIS: error= 3.78D-02 at cycle   2 NSaved=   2.
 NSaved= 2 IEnMin= 1 EnMin= -114.140632572290     IErMin= 2 ErrMin= 3.78D-02
 ErrMax= 3.78D-02  0.00D+00 EMaxC= 1.00D-01 BMatC= 5.00D-02 BMatP= 1.82D-01
 IDIUse=3 WtCom= 6.22D-01 WtEn= 3.78D-01
 Coeff-Com:  0.326D+00 0.674D+00
 Coeff-En:   0.649D+00 0.351D+00
 Coeff:      0.448D+00 0.552D+00
 Gap=     0.048 Goal=   None    Shift=    0.000
 RMSDP=9.81D-03 MaxDP=1.69D-01 DE= 1.30D-01 OVMax= 4.14D-01

 Cycle   3  Pass 1  IDiag  1:
 E= -114.293205670352     Delta-E=       -0.282365614261 Rises=F Damp=F
 DIIS: error= 4.07D-02 at cycle   3 NSaved=   3.
 NSaved= 3 IEnMin= 3 EnMin= -114.293205670352     IErMin= 2 ErrMin= 3.78D-02
 ErrMax= 4.07D-02  0.00D+00 EMaxC= 1.00D-01 BMatC= 4.09D-02 BMatP= 5.00D-02
 IDIUse=3 WtCom= 5.93D-01 WtEn= 4.07D-01
 Coeff-Com:  0.315D+00 0.452D-01 0.639D+00
 Coeff-En:   0.246D+00 0.000D+00 0.754D+00
 Coeff:      0.287D+00 0.268D-01 0.686D+00
 Gap=     0.106 Goal=   None    Shift=    0.000
 RMSDP=1.82D-03 MaxDP=2.08D-02 DE=-2.82D-01 OVMax= 8.56D-02

 Cycle   4  Pass 1  IDiag  1:
 E= -114.323420166196     Delta-E=       -0.030214495844 Rises=F Damp=F
 DIIS: error= 7.50D-03 at cycle   4 NSaved=   4.
 NSaved= 4 IEnMin= 4 EnMin= -114.323420166196     IErMin= 4 ErrMin= 7.50D-03
 ErrMax= 7.50D-03  0.00D+00 EMaxC= 1.00D-01 BMatC= 1.62D-03 BMatP= 4.09D-02
 IDIUse=3 WtCom= 9.25D-01 WtEn= 7.50D-02
 Coeff-Com:  0.495D-01 0.113D-01 0.221D+00 0.718D+00
 Coeff-En:   0.000D+00 0.000D+00 0.930D-01 0.907D+00
 Coeff:      0.458D-01 0.104D-01 0.211D+00 0.732D+00
 Gap=     0.104 Goal=   None    Shift=    0.000
 RMSDP=5.91D-04 MaxDP=1.13D-02 DE=-3.02D-02 OVMax= 3.34D-02

 Cycle   5  Pass 1  IDiag  1:
 E= -114.324108124621     Delta-E=       -0.000687958425 Rises=F Damp=F
 DIIS: error= 6.53D-03 at cycle   5 NSaved=   5.
 NSaved= 5 IEnMin= 5 EnMin= -114.324108124621     IErMin= 5 ErrMin= 6.53D-03
 ErrMax= 6.53D-03  0.00D+00 EMaxC= 1.00D-01 BMatC= 8.41D-04 BMatP= 1.62D-03
 IDIUse=3 WtCom= 9.35D-01 WtEn= 6.53D-02
 Coeff-Com:  0.755D-02-0.228D-01 0.213D-01 0.374D+00 0.620D+00
 Coeff-En:   0.000D+00 0.000D+00 0.000D+00 0.402D+00 0.598D+00
 Coeff:      0.706D-02-0.213D-01 0.199D-01 0.376D+00 0.618D+00
 Gap=     0.108 Goal=   None    Shift=    0.000
 RMSDP=1.91D-04 MaxDP=3.88D-03 DE=-6.88D-04 OVMax= 8.66D-03

 Cycle   6  Pass 1  IDiag  1:
 E= -114.324839382328     Delta-E=       -0.000731257707 Rises=F Damp=F
 DIIS: error= 2.36D-03 at cycle   6 NSaved=   6.
 NSaved= 6 IEnMin= 6 EnMin= -114.324839382328     IErMin= 6 ErrMin= 2.36D-03
 ErrMax= 2.36D-03  0.00D+00 EMaxC= 1.00D-01 BMatC= 9.75D-05 BMatP= 8.41D-04
 IDIUse=3 WtCom= 9.76D-01 WtEn= 2.36D-02
 Coeff-Com:  0.121D-01-0.102D-01-0.173D-01-0.624D-01-0.130D+00 0.121D+01
 Coeff-En:   0.000D+00 0.000D+00 0.000D+00 0.889D-01 0.000D+00 0.911D+00
 Coeff:      0.118D-01-0.993D-02-0.169D-01-0.588D-01-0.127D+00 0.120D+01
 Gap=     0.108 Goal=   None    Shift=    0.000
 RMSDP=3.98D-05 MaxDP=3.95D-04 DE=-7.31D-04 OVMax= 1.77D-03

 Cycle   7  Pass 1  IDiag  1:
 E= -114.324901731517     Delta-E=       -0.000062349189 Rises=F Damp=F
 DIIS: error= 1.35D-03 at cycle   7 NSaved=   7.
 NSaved= 7 IEnMin= 7 EnMin= -114.324901731517     IErMin= 7 ErrMin= 1.35D-03
 ErrMax= 1.35D-03  0.00D+00 EMaxC= 1.00D-01 BMatC= 2.97D-05 BMatP= 9.75D-05
 IDIUse=3 WtCom= 9.87D-01 WtEn= 1.35D-02
 Coeff-Com:  0.130D-02-0.165D-03-0.976D-03-0.152D-02-0.855D-01-0.644D+00
 Coeff-Com:  0.173D+01
 Coeff-En:   0.000D+00 0.000D+00 0.000D+00 0.000D+00 0.000D+00 0.000D+00
 Coeff-En:   0.100D+01
 Coeff:      0.129D-02-0.162D-03-0.963D-03-0.150D-02-0.843D-01-0.635D+00
 Coeff:      0.172D+01
 Gap=     0.109 Goal=   None    Shift=    0.000
 RMSDP=6.00D-05 MaxDP=8.07D-04 DE=-6.23D-05 OVMax= 4.03D-03

 Cycle   8  Pass 1  IDiag  1:
 E= -114.324928738193     Delta-E=       -0.000027006676 Rises=F Damp=F
 DIIS: error= 3.33D-04 at cycle   8 NSaved=   8.
 NSaved= 8 IEnMin= 8 EnMin= -114.324928738193     IErMin= 8 ErrMin= 3.33D-04
 ErrMax= 3.33D-04  0.00D+00 EMaxC= 1.00D-01 BMatC= 2.16D-06 BMatP= 2.97D-05
 IDIUse=3 WtCom= 9.97D-01 WtEn= 3.33D-03
 Coeff-Com: -0.556D-03 0.191D-03 0.133D-02 0.134D-01 0.122D-01-0.875D-01
 Coeff-Com:  0.293D+00 0.768D+00
 Coeff-En:   0.000D+00 0.000D+00 0.000D+00 0.000D+00 0.000D+00 0.000D+00
 Coeff-En:   0.160D+00 0.840D+00
 Coeff:     -0.554D-03 0.190D-03 0.132D-02 0.133D-01 0.122D-01-0.872D-01
 Coeff:      0.293D+00 0.768D+00
 Gap=     0.108 Goal=   None    Shift=    0.000
 RMSDP=1.06D-05 MaxDP=1.03D-04 DE=-2.70D-05 OVMax= 4.78D-04

 Cycle   9  Pass 1  IDiag  1:
 E= -114.324930564159     Delta-E=       -0.000001825965 Rises=F Damp=F
 DIIS: error= 1.12D-04 at cycle   9 NSaved=   9.
 NSaved= 9 IEnMin= 9 EnMin= -114.324930564159     IErMin= 9 ErrMin= 1.12D-04
 ErrMax= 1.12D-04  0.00D+00 EMaxC= 1.00D-01 BMatC= 2.50D-07 BMatP= 2.16D-06
 IDIUse=3 WtCom= 9.99D-01 WtEn= 1.12D-03
 Coeff-Com: -0.984D-04 0.636D-04-0.858D-05 0.117D-02 0.681D-02 0.648D-01
 Coeff-Com: -0.835D-01-0.128D+00 0.114D+01
 Coeff-En:   0.000D+00 0.000D+00 0.000D+00 0.000D+00 0.000D+00 0.000D+00
 Coeff-En:   0.126D-01 0.000D+00 0.987D+00
 Coeff:     -0.983D-04 0.635D-04-0.857D-05 0.117D-02 0.680D-02 0.647D-01
 Coeff:     -0.833D-01-0.128D+00 0.114D+01
 Gap=     0.108 Goal=   None    Shift=    0.000
 RMSDP=3.98D-06 MaxDP=4.64D-05 DE=-1.83D-06 OVMax= 2.06D-04

 Cycle  10  Pass 1  IDiag  1:
 E= -114.324930789886     Delta-E=       -0.000000225727 Rises=F Damp=F
 DIIS: error= 2.06D-05 at cycle  10 NSaved=  10.
 NSaved=10 IEnMin=10 EnMin= -114.324930789886     IErMin=10 ErrMin= 2.06D-05
 ErrMax= 2.06D-05  0.00D+00 EMaxC= 1.00D-01 BMatC= 7.86D-09 BMatP= 2.50D-07
 IDIUse=1 WtCom= 1.00D+00 WtEn= 0.00D+00
 Coeff-Com: -0.807D-05 0.275D-05 0.124D-04 0.112D-03-0.504D-03 0.120D-02
 Coeff-Com:  0.776D-02-0.939D-02-0.782D-01 0.108D+01
 Coeff:     -0.807D-05 0.275D-05 0.124D-04 0.112D-03-0.504D-03 0.120D-02
 Coeff:      0.776D-02-0.939D-02-0.782D-01 0.108D+01
 Gap=     0.108 Goal=   None    Shift=    0.000
 RMSDP=7.45D-07 MaxDP=7.80D-06 DE=-2.26D-07 OVMax= 3.52D-05

 Cycle  11  Pass 1  IDiag  1:
 E= -114.324930797239     Delta-E=       -0.000000007353 Rises=F Damp=F
 DIIS: error= 1.14D-06 at cycle  11 NSaved=  11.
 NSaved=11 IEnMin=11 EnMin= -114.324930797239     IErMin=11 ErrMin= 1.14D-06
 ErrMax= 1.14D-06  0.00D+00 EMaxC= 1.00D-01 BMatC= 2.48D-11 BMatP= 7.86D-09
 IDIUse=1 WtCom= 1.00D+00 WtEn= 0.00D+00
 Coeff-Com:  0.366D-06 0.847D-06-0.410D-05-0.153D-04-0.536D-04-0.454D-03
 Coeff-Com:  0.834D-03 0.975D-03-0.155D-01-0.414D-02 0.102D+01
 Coeff:      0.366D-06 0.847D-06-0.410D-05-0.153D-04-0.536D-04-0.454D-03
 Coeff:      0.834D-03 0.975D-03-0.155D-01-0.414D-02 0.102D+01
 Gap=     0.108 Goal=   None    Shift=    0.000
 RMSDP=3.96D-08 MaxDP=4.84D-07 DE=-7.35D-09 OVMax= 2.13D-06

 Cycle  12  Pass 1  IDiag  1:
 E= -114.324930797261     Delta-E=       -0.000000000023 Rises=F Damp=F
 DIIS: error= 1.92D-07 at cycle  12 NSaved=  12.
 NSaved=12 IEnMin=12 EnMin= -114.324930797261     IErMin=12 ErrMin= 1.92D-07
 ErrMax= 1.92D-07  0.00D+00 EMaxC= 1.00D-01 BMatC= 6.27D-13 BMatP= 2.48D-11
 IDIUse=1 WtCom= 1.00D+00 WtEn= 0.00D+00
 Coeff-Com:  0.295D-07 0.169D-07 0.338D-06 0.273D-05-0.107D-05-0.315D-04
 Coeff-Com:  0.119D-03 0.322D-03-0.106D-02-0.659D-02 0.285D-01 0.979D+00
 Coeff:      0.295D-07 0.169D-07 0.338D-06 0.273D-05-0.107D-05-0.315D-04
 Coeff:      0.119D-03 0.322D-03-0.106D-02-0.659D-02 0.285D-01 0.979D+00
 Gap=     0.108 Goal=   None    Shift=    0.000
 RMSDP=7.02D-09 MaxDP=9.96D-08 DE=-2.26D-11 OVMax= 4.64D-07

 SCF Done:  E(RB3LYP) =  -114.324930797     A.U. after   12 cycles
            NFock= 12  Conv=0.70D-08     -V/T= 2.0090
 KE= 1.133086622110D+02 PE=-3.135172554348D+02 EE= 6.332180497795D+01
 Leave Link  502 at Fri Sep 17 10:52:50 2021, MaxMem=   268435456 cpu:               2.1 elap:               2.4
 (Enter /software/gaussian/g16-a03/l801.exe)
 DoSCS=F DFT=T ScalE2(SS,OS)=  1.000000  1.000000
 ExpMin= 4.38D-02 ExpMax= 8.59D+03 ExpMxC= 1.30D+03 IAcc=3 IRadAn=         5 AccDes= 0.00D+00
 HarFok:  IExCor=  205 AccDes= 0.00D+00 IRadAn=         5 IDoV=-2 UseB2=F ITyADJ=14
 ICtDFT= 12500011 ScaDFX=  1.000000  1.000000  1.000000  1.000000
 Largest valence mixing into a core orbital is  5.43D-05
 Largest core mixing into a valence orbital is  1.28D-05
 Range of M.O.s used for correlation:     3    56
 NBasis=    56 NAE=     8 NBE=     8 NFC=     2 NFV=     0
 NROrb=     54 NOA=     6 NOB=     6 NVA=    48 NVB=    48
 Leave Link  801 at Fri Sep 17 10:52:50 2021, MaxMem=   268435456 cpu:               0.2 elap:               0.2
 (Enter /software/gaussian/g16-a03/l914.exe)
 RHF ground state
 Keep R1, R2, and R3 ints in memory in symmetry-blocked form, NReq=6042840.
 FoFCou: FMM=F IPFlag=           0 FMFlag=           0 FMFlg1=           0
         NFxFlg=           0 DoJE=F BraDBF=F KetDBF=F FulRan=T
         wScrn=  0.000000 ICntrl=       600 IOpCl=  0 I1Cent=           0 NGrid=           0
         NMat0=    1 NMatS0=   1596 NMatT0=    0 NMatD0=    1 NMtDS0=    0 NMtDT0=    0
 Petite list used in FoFCou.
 MDV=   268435456 DFT=T DoStab=F Mixed=T DoRPA=T DoScal=F NonHer=T
 Making orbital integer symmetry assigments:
 Orbital symmetries:
       Occupied  (A1) (A1) (A1) (A1) (B2) (A1) (B1) (B2)
       Virtual   (B1) (A1) (A1) (B2) (B1) (A1) (A1) (B2) (A1) (B1)
                 (B2) (A1) (A1) (B2) (B1) (A1) (B2) (A1) (A2) (B1)
                 (B2) (A1) (B1) (A1) (B2) (A1) (B2) (A1) (B1) (A2)
                 (A1) (B2) (A1) (B2) (A1) (B1) (A1) (B1) (A2) (A1)
                 (B2) (A1) (B2) (B1) (B2) (A1) (A1) (A1)
   120 initial guesses have been made.
 Convergence on wavefunction:    0.001000000000000
 Davidson Disk Diagonalization:  ConvIn= 1.00D-03 SkipCon=T Conv= 1.00D-03.
 Max sub-space:  1728 roots to seek:   120 dimension of matrix:          576
 Iteration     1 Dimension   120 NMult     0 NNew    120
 CISAX will form   120 AO SS matrices at one time.
 NMat=   120 NSing=   120 JSym2X=-1.
 New state      6 was old state      9
 New state      7 was old state      6
 New state      9 was old state     10
 New state     10 was old state     11
 New state     11 was old state     13
 New state     13 was old state      7
 New state     14 was old state     15
 New state     15 was old state     14
 New state     16 was old state     18
 New state     17 was old state     16
 New state     18 was old state     17
 New state     19 was old state     20
 New state     20 was old state     21
 New state     21 was old state     22
 New state     22 was old state     19
 New state     24 was old state     25
 New state     25 was old state     24
 New state     26 was old state     28
 New state     27 was old state     26
 New state     28 was old state     27
 New state     30 was old state     32
 Excitation Energies [eV] at current iteration:
 Root      1 :     1.153593771381463
 Root      2 :     3.027271662099865
 Root      3 :     3.166924918491326
 Root      4 :     3.414998023692243
 Root      5 :     3.948434538499977
 Root      6 :     6.798207745823030
 Root      7 :     6.841717350564421
 Root      8 :     7.189289076543978
 Root      9 :     7.980449013912567
 Root     10 :     8.326649627726679
 Root     11 :     8.433990760622985
 Root     12 :     8.550675186680033
 Root     13 :     8.778323971981139
 Root     14 :     8.852306549690931
 Root     15 :     8.989888411614125
 Root     16 :     9.510611683265401
 Root     17 :     9.520307363328884
 Root     18 :     9.966783286777016
 Root     19 :    10.279335297725880
 Root     20 :    10.473105046834450
 Root     21 :    10.494539544900190
 Root     22 :    10.701319433454190
 Root     23 :    11.024669453307760
 Root     24 :    11.432100238714470
 Root     25 :    11.662371794785880
 Root     26 :    11.961730939133240
 Root     27 :    11.980062548068590
 Root     28 :    12.204251821073970
 Root     29 :    12.443807069361470
 Root     30 :    12.762150263838220
 Root     31 :    12.827034713631570
 Root     32 :    13.431354813100480
 Root     33 :    13.679392820454180
 Root     34 :    13.954365410554880
 Root     35 :    14.028439844220490
 Root     36 :    14.102240593945940
 Root     37 :    14.367463651731350
 Root     38 :    14.758898004427820
 Root     39 :    14.794714534049160
 Root     40 :    15.289851705852190
 Root     41 :    15.411167773917970
 Root     42 :    15.595564445573140
 Root     43 :    15.635280731460280
 Root     44 :    15.989895518377200
 Root     45 :    16.930974542073460
 Root     46 :    17.312143390645410
 Root     47 :    17.335170063548980
 Root     48 :    17.562545318484360
 Root     49 :    17.600906387114700
 Root     50 :    17.652695782532940
 Root     51 :    17.801941185554000
 Root     52 :    18.170116461414600
 Root     53 :    18.730808546310130
 Root     54 :    18.794148143613360
 Root     55 :    19.154412352036180
 Root     56 :    19.606865885437060
 Root     57 :    19.821901461239920
 Root     58 :    20.042914584129760
 Root     59 :    20.208383734880880
 Root     60 :    20.264845806353630
 Root     61 :    20.284476751618030
 Root     62 :    20.679185022829180
 Root     63 :    20.903103205154710
 Root     64 :    21.131238083953370
 Root     65 :    21.375728244545240
 Root     66 :    21.639415974740550
 Root     67 :    21.984109703138540
 Root     68 :    22.013754660485810
 Root     69 :    22.246175412195130
 Root     70 :    22.300453277641340
 Root     71 :    22.478702009122860
 Root     72 :    23.218793724675310
 Root     73 :    23.221998143653580
 Root     74 :    23.750205395814190
 Root     75 :    23.769533022710150
 Root     76 :    24.098408187999460
 Root     77 :    24.277276757224530
 Root     78 :    24.312452820265430
 Root     79 :    24.403771962437410
 Root     80 :    24.869586897583190
 Root     81 :    24.883607068408330
 Root     82 :    25.105417683821290
 Root     83 :    25.172980431989580
 Root     84 :    25.228374636897960
 Root     85 :    25.451099878349700
 Root     86 :    26.262448632896480
 Root     87 :    26.557488914862450
 Root     88 :    26.641229015398420
 Root     89 :    26.761510290511660
 Root     90 :    27.570685565268940
 Root     91 :    28.013516078117120
 Root     92 :    28.652138631854470
 Root     93 :    28.850160886592920
 Root     94 :    29.262411379700380
 Root     95 :    29.476313555368160
 Root     96 :    29.496484992738340
 Root     97 :    30.534725478415480
 Root     98 :    31.181663733288400
 Root     99 :    31.593044359192100
 Root    100 :    32.814484219969110
 Root    101 :    33.097243574791970
 Root    102 :    33.240636293647260
 Root    103 :    33.580497842868200
 Root    104 :    33.587227064525480
 Root    105 :    33.615906967588020
 Root    106 :    33.832810114209270
 Root    107 :    33.851896407905330
 Root    108 :    34.506820209976890
 Root    109 :    35.071680383081800
 Root    110 :    35.105149538055590
 Root    111 :    35.162749496156220
 Root    112 :    35.889713905751500
 Root    113 :    36.484029172174090
 Root    114 :    36.544342501424510
 Root    115 :    37.404983047146990
 Root    116 :    37.438392709391530
 Root    117 :    38.184204227195660
 Root    118 :    38.376151733269450
 Root    119 :    39.730503880252170
 Root    120 :    42.745300856223390
 Iteration     2 Dimension   180 NMult   120 NNew     60
 CISAX will form    60 AO SS matrices at one time.
 NMat=    60 NSing=    60 JSym2X=-1.
 Root      1 not converged, maximum delta is    0.006666094334594
 Root      2 not converged, maximum delta is    0.009167838947331
 Root      3 not converged, maximum delta is    0.008045620463026
 Root      4 not converged, maximum delta is    0.007502140347593
 Root      5 not converged, maximum delta is    0.009055673828865
 Root      6 not converged, maximum delta is    0.011658333838180
 Root      7 not converged, maximum delta is    0.002360446890461
 Root      8 not converged, maximum delta is    0.002468556460654
 Root      9 not converged, maximum delta is    0.001706326432350
 Root     10 not converged, maximum delta is    0.001356625768794
 Root     11 not converged, maximum delta is    0.002936613760746
 Root     12 not converged, maximum delta is    0.001901715626683
 Root     13 not converged, maximum delta is    0.014827403181348
 Root     14 not converged, maximum delta is    0.002564127600294
 Root     15 not converged, maximum delta is    0.009285354634766
 Root     16 not converged, maximum delta is    0.009746438879253
 Root     17 not converged, maximum delta is    0.007051478359061
 Root     18 not converged, maximum delta is    0.003373826931650
 Root     19 not converged, maximum delta is    0.005445127541511
 Root     20 not converged, maximum delta is    0.004728227534520
 Root     21 not converged, maximum delta is    0.003752956277225
 Root     22 not converged, maximum delta is    0.010090898712782
 Root     23 not converged, maximum delta is    0.001724997486612
 Root     24 not converged, maximum delta is    0.004562917619112
 Root     25 not converged, maximum delta is    0.009316248172218
 Root     26 not converged, maximum delta is    0.007270384463461
 Root     27 not converged, maximum delta is    0.003095964296037
 Root     28 not converged, maximum delta is    0.005123502839223
 Root     29 not converged, maximum delta is    0.006963853148119
 Root     30 not converged, maximum delta is    0.009080643597997
 Excitation Energies [eV] at current iteration:
 Root      1 :     1.146505179200781   Change is   -0.007088592180683
 Root      2 :     3.009042302457720   Change is   -0.018229359642145
 Root      3 :     3.144723251496753   Change is   -0.022201666994573
 Root      4 :     3.399387805948352   Change is   -0.015610217743892
 Root      5 :     3.929178045501037   Change is   -0.019256492998940
 Root      6 :     6.781856616970992   Change is   -0.016351128852038
 Root      7 :     6.840007488037098   Change is   -0.001709862527323
 Root      8 :     7.188336372270839   Change is   -0.000952704273139
 Root      9 :     7.979503047737885   Change is   -0.000945966174683
 Root     10 :     8.326182149904604   Change is   -0.000467477822076
 Root     11 :     8.432007539055068   Change is   -0.001983221567916
 Root     12 :     8.550300189267256   Change is   -0.000374997412778
 Root     13 :     8.760092190346960   Change is   -0.018231781634180
 Root     14 :     8.851067238019670   Change is   -0.001239311671260
 Root     15 :     8.986154801819493   Change is   -0.003733609794632
 Root     16 :     9.488190715104313   Change is   -0.022420968161087
 Root     17 :     9.511546978268465   Change is   -0.008760385060420
 Root     18 :     9.965669568102033   Change is   -0.001113718674982
 Root     19 :    10.276487396101330   Change is   -0.002847901624554
 Root     20 :    10.469919783645550   Change is   -0.003185263188903
 Root     21 :    10.492376482465830   Change is   -0.002163062434356
 Root     22 :    10.687139801556860   Change is   -0.014179631897331
 Root     23 :    11.023903812708250   Change is   -0.000765640599517
 Root     24 :    11.424083560187980   Change is   -0.008016678526497
 Root     25 :    11.639587739405740   Change is   -0.022784055380139
 Root     26 :    11.957463720242950   Change is   -0.004267218890295
 Root     27 :    11.976164558094490   Change is   -0.003897989974092
 Root     28 :    12.198876129007100   Change is   -0.005375692066867
 Root     29 :    12.435758817684540   Change is   -0.008048251676922
 Root     30 :    12.756021066481560   Change is   -0.006129197356661
 Iteration     3 Dimension   240 NMult   180 NNew     60
 CISAX will form    60 AO SS matrices at one time.
 NMat=    60 NSing=    60 JSym2X=-1.
 Root      1 has converged.
 Root      2 has converged.
 Root      3 has converged.
 Root      4 has converged.
 Root      5 has converged.
 Root      6 has converged.
 Root      7 has converged.
 Root      8 has converged.
 Root      9 has converged.
 Root     10 has converged.
 Root     11 has converged.
 Root     12 has converged.
 Root     13 has converged.
 Root     14 has converged.
 Root     15 has converged.
 Root     16 has converged.
 Root     17 has converged.
 Root     18 has converged.
 Root     19 has converged.
 Root     20 has converged.
 Root     21 has converged.
 Root     22 has converged.
 Root     23 has converged.
 Root     24 has converged.
 Root     25 has converged.
 Root     26 has converged.
 Root     27 has converged.
 Root     28 has converged.
 Root     29 has converged.
 Root     30 has converged.
 Excitation Energies [eV] at current iteration:
 Root      1 :     1.146504219456095   Change is   -0.000000959744685
 Root      2 :     3.009026090568526   Change is   -0.000016211889194
 Root      3 :     3.144717573205612   Change is   -0.000005678291141
 Root      4 :     3.399384563137853   Change is   -0.000003242810499
 Root      5 :     3.929172734114947   Change is   -0.000005311386090
 Root      6 :     6.781852250431212   Change is   -0.000004366539780
 Root      7 :     6.840006852952663   Change is   -0.000000635084436
 Root      8 :     7.188336093396556   Change is   -0.000000278874283
 Root      9 :     7.979501476468565   Change is   -0.000001571269320
 Root     10 :     8.326181950888785   Change is   -0.000000199015819
 Root     11 :     8.432006710336532   Change is   -0.000000828718535
 Root     12 :     8.550300110426928   Change is   -0.000000078840327
 Root     13 :     8.760065381468683   Change is   -0.000026808878275
 Root     14 :     8.851066781808228   Change is   -0.000000456211442
 Root     15 :     8.986146756603242   Change is   -0.000008045216252
 Root     16 :     9.488166115641162   Change is   -0.000024599463151
 Root     17 :     9.511533090896046   Change is   -0.000013887372418
 Root     18 :     9.965668608399804   Change is   -0.000000959702229
 Root     19 :    10.276484405013550   Change is   -0.000002991087775
 Root     20 :    10.469916121618330   Change is   -0.000003662027220
 Root     21 :    10.492373862326100   Change is   -0.000002620139730
 Root     22 :    10.687105144705640   Change is   -0.000034656851219
 Root     23 :    11.023903497834490   Change is   -0.000000314873756
 Root     24 :    11.424078297386500   Change is   -0.000005262801479
 Root     25 :    11.639540035857160   Change is   -0.000047703548586
 Root     26 :    11.957461934116980   Change is   -0.000001786125970
 Root     27 :    11.976160616947110   Change is   -0.000003941147380
 Root     28 :    12.198868075192610   Change is   -0.000008053814495
 Root     29 :    12.435736987141600   Change is   -0.000021830542940
 Root     30 :    12.756007460893870   Change is   -0.000013605587693
 Convergence achieved on expansion vectors.
 ***********************************************************************
 Excited states from <AA,BB:AA,BB> singles matrix:
 ***********************************************************************
 
 1PDM for each excited state written to RWF  633
 Ground to excited state transition densities written to RWF  633
 Ground to excited state transition electric dipole moments (Au):
       state          X           Y           Z        Dip. S.      Osc.
         1        -0.0000     -0.0000     -0.0000      0.0000      0.0000
         2        -0.0000      0.0000      0.5695      0.3243      0.0239
         3         0.0000     -0.1478      0.0000      0.0219      0.0017
         4        -0.0037     -0.0000     -0.0000      0.0000      0.0000
         5        -0.2505     -0.0000      0.0000      0.0628      0.0060
         6         0.0000      0.0000      0.0000      0.0000      0.0000
         7         0.0000     -0.1189      0.0000      0.0141      0.0024
         8        -0.5995     -0.0000     -0.0000      0.3594      0.0633
         9        -0.0000      0.0000     -0.3776      0.1426      0.0279
        10         0.0000      0.0000      0.0000      0.0000      0.0000
        11         0.0000     -0.4350     -0.0000      0.1892      0.0391
        12         0.0000     -0.0000     -0.0000      0.0000      0.0000
        13        -0.0000      0.0000     -1.4524      2.1094      0.4527
        14        -0.4577      0.0000      0.0000      0.2095      0.0454
        15        -0.0000      0.0000     -0.5728      0.3281      0.0722
        16        -0.0000      0.0724      0.0000      0.0052      0.0012
        17         0.0000      0.0000     -0.5379      0.2893      0.0674
        18         0.0000     -0.2380      0.0000      0.0566      0.0138
        19        -0.4500     -0.0000     -0.0000      0.2025      0.0510
        20         0.0000     -0.2283     -0.0000      0.0521      0.0134
        21        -0.0000     -0.0000     -0.0000      0.0000      0.0000
        22         0.0000      0.0000     -0.8192      0.6711      0.1757
        23        -0.0597     -0.0000     -0.0000      0.0036      0.0010
        24        -0.0000     -0.1267      0.0000      0.0161      0.0045
        25         0.0000      0.0000      1.0915      1.1914      0.3397
        26         0.0000     -0.0000      0.0000      0.0000      0.0000
        27         0.0583      0.0000      0.0000      0.0034      0.0010
        28        -0.0000     -0.6555      0.0000      0.4296      0.1284
        29        -0.0000     -0.0000      0.4108      0.1688      0.0514
        30         0.0000     -0.0000     -0.4489      0.2015      0.0630
 Ground to excited state transition velocity dipole moments (Au):
       state          X           Y           Z        Dip. S.      Osc.
         1         0.0000     -0.0000     -0.0000      0.0000      0.0000
         2        -0.0000      0.0000     -0.0536      0.0029      0.0173
         3        -0.0000      0.0143      0.0000      0.0002      0.0012
         4        -0.0215      0.0000      0.0000      0.0005      0.0025
         5         0.0394      0.0000     -0.0000      0.0016      0.0072
         6        -0.0000     -0.0000      0.0000      0.0000      0.0000
         7        -0.0000      0.0250      0.0000      0.0006      0.0017
         8         0.1612      0.0000      0.0000      0.0260      0.0656
         9         0.0000     -0.0000      0.1079      0.0116      0.0265
        10        -0.0000     -0.0000      0.0000      0.0000      0.0000
        11        -0.0000      0.1364      0.0000      0.0186      0.0400
        12        -0.0000      0.0000     -0.0000      0.0000      0.0000
        13         0.0000      0.0000      0.4669      0.2180      0.4515
        14         0.1559     -0.0000     -0.0000      0.0243      0.0498
        15         0.0000     -0.0000      0.1915      0.0367      0.0740
        16         0.0000     -0.0306     -0.0000      0.0009      0.0018
        17        -0.0000      0.0000      0.1945      0.0378      0.0722
        18        -0.0000      0.0924     -0.0000      0.0085      0.0155
        19         0.1527      0.0000      0.0000      0.0233      0.0412
        20        -0.0000      0.0872      0.0000      0.0076      0.0132
        21         0.0000      0.0000      0.0000      0.0000      0.0000
        22        -0.0000     -0.0000      0.3227      0.1041      0.1768
        23         0.0178     -0.0000      0.0000      0.0003      0.0005
        24         0.0000      0.0483     -0.0000      0.0023      0.0037
        25         0.0000     -0.0000     -0.4459      0.1989      0.3099
        26        -0.0000     -0.0000     -0.0000      0.0000      0.0000
        27        -0.0153     -0.0000     -0.0000      0.0002      0.0004
        28         0.0000      0.2908     -0.0000      0.0846      0.1257
        29         0.0000      0.0000     -0.1777      0.0316      0.0460
        30        -0.0000      0.0000      0.1989      0.0396      0.0563
 Ground to excited state transition magnetic dipole moments (Au):
       state          X           Y           Z
         1        -0.0000      0.0000      0.9328
         2        -0.0000     -0.0000     -0.0000
         3         0.6386      0.0000     -0.0000
         4         0.0000     -2.0005      0.0000
         5         0.0000      0.2449      0.0000
         6         0.0000      0.0000     -1.1022
         7        -0.2878     -0.0000     -0.0000
         8         0.0000     -0.1387     -0.0000
         9         0.0000      0.0000      0.0000
        10        -0.0000      0.0000      0.0237
        11        -0.5196      0.0000     -0.0000
        12         0.0000     -0.0000     -0.0016
        13        -0.0000      0.0000     -0.0000
        14        -0.0000      0.2448     -0.0000
        15        -0.0000      0.0000      0.0000
        16         0.8139      0.0000     -0.0000
        17         0.0000     -0.0000     -0.0000
        18         0.1698      0.0000     -0.0000
        19         0.0000      0.1652      0.0000
        20         0.0773     -0.0000      0.0000
        21         0.0000      0.0000     -0.0775
        22        -0.0000     -0.0000      0.0000
        23         0.0000      0.0628     -0.0000
        24        -0.0118     -0.0000      0.0000
        25        -0.0000      0.0000      0.0000
        26        -0.0000      0.0000     -0.0262
        27        -0.0000      0.1206      0.0000
        28         0.7663     -0.0000     -0.0000
        29        -0.0000      0.0000     -0.0000
        30        -0.0000     -0.0000      0.0000
 Ground to excited state transition velocity quadrupole moments (Au):
       state          XX          YY          ZZ          XY          XZ          YZ
         1        -0.0000     -0.0000      0.0000     -0.0230     -0.0000      0.0000
         2         0.0396     -0.0073     -0.0255      0.0000     -0.0000      0.0000
         3         0.0000     -0.0000     -0.0000     -0.0000     -0.0000      0.0261
         4        -0.0000      0.0000     -0.0000     -0.0000     -0.0035      0.0000
         5         0.0000     -0.0000      0.0000      0.0000      0.1212     -0.0000
         6         0.0000      0.0000     -0.0000      0.1719      0.0000     -0.0000
         7         0.0000      0.0000      0.0000      0.0000      0.0000      0.2120
         8        -0.0000      0.0000     -0.0000      0.0000     -0.1897     -0.0000
         9         0.0301      0.1262     -0.1960      0.0000      0.0000     -0.0000
        10        -0.0000      0.0000      0.0000      0.2811      0.0000      0.0000
        11        -0.0000      0.0000      0.0000      0.0000      0.0000      0.2551
        12         0.0000     -0.0000     -0.0000      0.0755     -0.0000     -0.0000
        13        -0.3853     -0.0537     -0.0773     -0.0000      0.0000      0.0000
        14        -0.0000      0.0000      0.0000      0.0000      0.3367      0.0000
        15         0.6795      0.0514     -0.3474      0.0000      0.0000      0.0000
        16        -0.0000     -0.0000     -0.0000      0.0000      0.0000      0.3727
        17         0.3090      0.1926      0.6597     -0.0000     -0.0000      0.0000
        18         0.0000      0.0000     -0.0000      0.0000      0.0000     -0.0197
        19        -0.0000     -0.0000      0.0000     -0.0000     -0.0675     -0.0000
        20        -0.0000     -0.0000      0.0000      0.0000     -0.0000     -0.3481
        21        -0.0000     -0.0000      0.0000     -0.2774     -0.0000     -0.0000
        22        -0.1161     -0.4201     -0.0679      0.0000      0.0000      0.0000
        23        -0.0000     -0.0000     -0.0000      0.0000     -0.1670     -0.0000
        24        -0.0000      0.0000     -0.0000     -0.0000     -0.0000      0.4763
        25        -0.2774      0.3932     -0.3046      0.0000      0.0000     -0.0000
        26        -0.0000     -0.0000      0.0000      0.3709      0.0000     -0.0000
        27        -0.0000     -0.0000      0.0000     -0.0000      0.4112      0.0000
        28        -0.0000     -0.0000      0.0000      0.0000      0.0000     -0.8479
        29        -0.2170      0.0211      0.1551     -0.0000      0.0000      0.0000
        30        -0.3678      0.1843      0.2002      0.0000     -0.0000      0.0000
 <0|del|b> * <b|rxdel|0> + <0|del|b> * <b|delr+rdel|0>
 Rotatory Strengths (R) in cgs (10**-40 erg-esu-cm/Gauss)
       state          XX          YY          ZZ    R(velocity)    E-M Angle
         1        -0.0000     -0.0000     -0.0000     -0.0000       90.00
         2        -0.0000      0.0000      0.0000      0.0000       90.00
         3         0.0000     -0.0000      0.0000      0.0000       90.00
         4        -0.0000     -0.0000     -0.0000     -0.0000       90.00
         5         0.0000      0.0000      0.0000      0.0000       90.00
         6        -0.0000     -0.0000     -0.0000     -0.0000       90.00
         7        -0.0000      0.0000      0.0000      0.0000       90.00
         8         0.0000     -0.0000      0.0000     -0.0000       90.00
         9         0.0000     -0.0000      0.0000      0.0000       90.00
        10         0.0000     -0.0000     -0.0000      0.0000       90.00
        11        -0.0000      0.0000      0.0000      0.0000       90.00
        12        -0.0000      0.0000     -0.0000      0.0000       90.00
        13        -0.0000      0.0000     -0.0000     -0.0000       90.00
        14         0.0000     -0.0000     -0.0000     -0.0000       90.00
        15         0.0000     -0.0000     -0.0000      0.0000       90.00
        16         0.0000      0.0000      0.0000      0.0000       90.00
        17        -0.0000      0.0000     -0.0000     -0.0000       90.00
        18        -0.0000     -0.0000      0.0000     -0.0000       90.00
        19         0.0000     -0.0000      0.0000      0.0000       90.00
        20        -0.0000      0.0000     -0.0000     -0.0000       90.00
        21        -0.0000      0.0000      0.0000     -0.0000       90.00
        22         0.0000     -0.0000      0.0000      0.0000       90.00
        23        -0.0000      0.0000      0.0000     -0.0000       90.00
        24         0.0000      0.0000     -0.0000     -0.0000       90.00
        25        -0.0000      0.0000     -0.0000     -0.0000       90.00
        26        -0.0000      0.0000     -0.0000      0.0000       90.00
        27         0.0000     -0.0000     -0.0000     -0.0000       90.00
        28        -0.0000     -0.0000      0.0000     -0.0000       90.00
        29         0.0000      0.0000      0.0000      0.0000       90.00
        30         0.0000      0.0000      0.0000      0.0000       90.00
 1/2[<0|r|b>*<b|rxdel|0> + (<0|rxdel|b>*<b|r|0>)*]
 Rotatory Strengths (R) in cgs (10**-40 erg-esu-cm/Gauss)
       state          XX          YY          ZZ     R(length)
         1        -0.0000      0.0000      0.0000      0.0000
         2        -0.0000      0.0000      0.0000      0.0000
         3        -0.0000      0.0000      0.0000      0.0000
         4         0.0000     -0.0000      0.0000     -0.0000
         5         0.0000      0.0000     -0.0000      0.0000
         6        -0.0000     -0.0000      0.0000      0.0000
         7         0.0000     -0.0000      0.0000      0.0000
         8         0.0000     -0.0000     -0.0000      0.0000
         9         0.0000     -0.0000      0.0000      0.0000
        10         0.0000     -0.0000     -0.0000     -0.0000
        11         0.0000      0.0000     -0.0000      0.0000
        12        -0.0000     -0.0000     -0.0000     -0.0000
        13        -0.0000     -0.0000     -0.0000     -0.0000
        14        -0.0000     -0.0000      0.0000     -0.0000
        15        -0.0000     -0.0000      0.0000      0.0000
        16         0.0000     -0.0000      0.0000      0.0000
        17        -0.0000      0.0000     -0.0000     -0.0000
        18        -0.0000      0.0000      0.0000     -0.0000
        19         0.0000      0.0000      0.0000      0.0000
        20        -0.0000     -0.0000      0.0000     -0.0000
        21         0.0000      0.0000     -0.0000     -0.0000
        22         0.0000      0.0000      0.0000      0.0000
        23         0.0000      0.0000     -0.0000      0.0000
        24        -0.0000     -0.0000     -0.0000     -0.0000
        25         0.0000     -0.0000     -0.0000     -0.0000
        26         0.0000      0.0000      0.0000      0.0000
        27         0.0000     -0.0000     -0.0000     -0.0000
        28         0.0000     -0.0000      0.0000     -0.0000
        29        -0.0000      0.0000      0.0000      0.0000
        30         0.0000     -0.0000      0.0000      0.0000
  1/2[<0|del|b>*<b|r|0> + (<0|r|b>*<b|del|0>)*] (Au)
       state          X           Y           Z        Dip. S.   Osc.(frdel)
         1        -0.0000      0.0000      0.0000      0.0000      0.0000
         2         0.0000      0.0000     -0.0305      0.0305      0.0203
         3        -0.0000     -0.0021      0.0000      0.0021      0.0014
         4         0.0001     -0.0000     -0.0000     -0.0001     -0.0001
         5        -0.0099     -0.0000     -0.0000      0.0099      0.0066
         6        -0.0000     -0.0000      0.0000      0.0000      0.0000
         7        -0.0000     -0.0030      0.0000      0.0030      0.0020
         8        -0.0966     -0.0000     -0.0000      0.0966      0.0644
         9        -0.0000     -0.0000     -0.0407      0.0407      0.0272
        10        -0.0000     -0.0000      0.0000      0.0000      0.0000
        11        -0.0000     -0.0593     -0.0000      0.0593      0.0395
        12        -0.0000     -0.0000      0.0000     -0.0000     -0.0000
        13        -0.0000      0.0000     -0.6782      0.6782      0.4521
        14        -0.0714     -0.0000     -0.0000      0.0714      0.0476
        15        -0.0000     -0.0000     -0.1097      0.1097      0.0731
        16        -0.0000     -0.0022     -0.0000      0.0022      0.0015
        17        -0.0000      0.0000     -0.1046      0.1046      0.0698
        18        -0.0000     -0.0220     -0.0000      0.0220      0.0147
        19        -0.0687     -0.0000     -0.0000      0.0687      0.0458
        20        -0.0000     -0.0199     -0.0000      0.0199      0.0133
        21        -0.0000     -0.0000     -0.0000      0.0000      0.0000
        22        -0.0000     -0.0000     -0.2644      0.2644      0.1762
        23        -0.0011      0.0000     -0.0000      0.0011      0.0007
        24        -0.0000     -0.0061     -0.0000      0.0061      0.0041
        25         0.0000     -0.0000     -0.4868      0.4868      0.3245
        26        -0.0000      0.0000     -0.0000      0.0000      0.0000
        27        -0.0009     -0.0000     -0.0000      0.0009      0.0006
        28        -0.0000     -0.1906     -0.0000      0.1906      0.1271
        29        -0.0000     -0.0000     -0.0730      0.0730      0.0487
        30        -0.0000     -0.0000     -0.0893      0.0893      0.0595

 Excitation energies and oscillator strengths:
 
 Excited State   1:      Singlet-A2     1.1465 eV 1081.41 nm  f=0.0000  <S**2>=0.000
       3 -> 27         0.00063
       3 -> 38         0.00037
       3 -> 47         0.00331
       4 -> 27         0.00032
       4 -> 47        -0.00086
       5 ->  9         0.00068
       5 -> 13         0.00107
       5 -> 18         0.00146
       5 -> 23         0.00126
       5 -> 28         0.00108
       5 -> 37         0.00063
       5 -> 44         0.00018
       5 -> 52         0.00015
       6 -> 27        -0.00054
       6 -> 38        -0.00051
       6 -> 47         0.00084
       7 -> 12        -0.00138
       7 -> 16         0.00537
       7 -> 19        -0.00485
       7 -> 22        -0.00114
       7 -> 25        -0.00048
       7 -> 29        -0.00200
       7 -> 33         0.00026
       7 -> 49         0.00013
       7 -> 53         0.00036
       8 ->  9         0.71158
       8 -> 13        -0.00565
       8 -> 18         0.02050
       8 -> 23        -0.00055
       8 -> 28         0.00997
       8 -> 31         0.00161
       8 -> 37         0.00046
       8 -> 46        -0.00028
       8 -> 52         0.00182
       3 <- 27         0.00014
       3 <- 38         0.00016
       3 <- 47         0.00333
       4 <- 27         0.00062
       4 <- 38         0.00017
       4 <- 47        -0.00066
       5 <-  9         0.00052
       5 <- 13        -0.00029
       5 <- 18        -0.00031
       5 <- 23         0.00014
       5 <- 28        -0.00024
       5 <- 31         0.00020
       5 <- 37         0.00037
       6 <- 38        -0.00038
       6 <- 47         0.00061
       7 <- 12         0.00209
       7 <- 16        -0.01051
       7 <- 19         0.00600
       7 <- 22         0.00533
       7 <- 25        -0.00064
       7 <- 29         0.00565
       7 <- 33        -0.00034
       7 <- 49        -0.00047
       7 <- 53         0.00144
       8 <-  9        -0.08179
       8 <- 13        -0.00063
       8 <- 18        -0.00794
       8 <- 23        -0.00042
       8 <- 28        -0.00280
       8 <- 31        -0.00085
       8 <- 37        -0.00016
       8 <- 46         0.00013
       8 <- 52         0.00042
 This state for optimization and/or second-order correction.
 Total Energy, E(TD-HF/TD-DFT) =  -114.282797542    
 Copying the excited state density for this state as the 1-particle RhoCI density.
 
 Excited State   2:      Singlet-A1     3.0090 eV  412.04 nm  f=0.0239  <S**2>=0.000
       3 -> 10        -0.01268
       3 -> 11        -0.00230
       3 -> 14         0.00044
       3 -> 15         0.00015
       3 -> 17        -0.00292
       3 -> 20        -0.00327
       3 -> 21         0.00063
       3 -> 24         0.00021
       3 -> 26         0.00088
       3 -> 32         0.00266
       3 -> 34         0.00096
       3 -> 36        -0.00090
       3 -> 39        -0.00033
       3 -> 43         0.00047
       3 -> 45        -0.00118
       3 -> 48         0.00231
       3 -> 50         0.00163
       3 -> 54        -0.00012
       4 -> 10        -0.00047
       4 -> 11         0.00939
       4 -> 14         0.00144
       4 -> 15        -0.00715
       4 -> 17         0.00199
       4 -> 20         0.00162
       4 -> 21         0.00021
       4 -> 24        -0.00361
       4 -> 26         0.00285
       4 -> 30         0.00012
       4 -> 32        -0.00108
       4 -> 34        -0.00067
       4 -> 39        -0.00026
       4 -> 43        -0.00042
       4 -> 45         0.00075
       4 -> 48        -0.00069
       4 -> 50        -0.00024
       4 -> 54         0.00014
       5 -> 12         0.00827
       5 -> 16         0.00155
       5 -> 19         0.00102
       5 -> 22         0.00636
       5 -> 25        -0.00386
       5 -> 29         0.00033
       5 -> 33        -0.00227
       5 -> 35         0.00270
       5 -> 40        -0.00089
       5 -> 42        -0.00099
       5 -> 51        -0.00089
       6 -> 10         0.26077
       6 -> 11         0.03038
       6 -> 14        -0.03319
       6 -> 15        -0.01935
       6 -> 17        -0.01468
       6 -> 20        -0.00045
       6 -> 21         0.00416
       6 -> 24        -0.00683
       6 -> 26        -0.00253
       6 -> 30        -0.00261
       6 -> 32         0.00467
       6 -> 34         0.00136
       6 -> 36         0.00068
       6 -> 39        -0.00148
       6 -> 43         0.00078
       6 -> 45        -0.00094
       6 -> 48         0.00071
       6 -> 50         0.00047
       6 -> 54        -0.00099
       7 ->  9         0.67385
       7 -> 13        -0.00780
       7 -> 18        -0.00885
       7 -> 23        -0.00296
       7 -> 28         0.00162
       7 -> 31        -0.00329
       7 -> 37         0.00135
       7 -> 44        -0.00095
       7 -> 52         0.00105
       8 -> 12        -0.00711
       8 -> 16         0.03115
       8 -> 19        -0.01708
       8 -> 22        -0.01025
       8 -> 29        -0.00716
       8 -> 33         0.00081
       8 -> 35        -0.00049
       8 -> 40         0.00016
       8 -> 42         0.00018
       8 -> 51         0.00013
       8 -> 53        -0.00048
       3 <- 10        -0.01037
       3 <- 11        -0.00222
       3 <- 14         0.00035
       3 <- 15        -0.00029
       3 <- 17        -0.00172
       3 <- 20        -0.00294
       3 <- 21         0.00019
       3 <- 24        -0.00023
       3 <- 30         0.00026
       3 <- 32         0.00226
       3 <- 34         0.00049
       3 <- 36        -0.00096
       3 <- 39        -0.00026
       3 <- 43         0.00050
       3 <- 45        -0.00129
       3 <- 48         0.00231
       3 <- 50         0.00164
       4 <- 10         0.00083
       4 <- 11         0.00716
       4 <- 14         0.00127
       4 <- 15        -0.00509
       4 <- 17         0.00125
       4 <- 20         0.00221
       4 <- 24        -0.00283
       4 <- 26         0.00259
       4 <- 30        -0.00040
       4 <- 32        -0.00106
       4 <- 34        -0.00057
       4 <- 36         0.00028
       4 <- 39        -0.00030
       4 <- 43        -0.00037
       4 <- 45         0.00067
       4 <- 48        -0.00041
       4 <- 50        -0.00011
       4 <- 54         0.00011
       5 <- 12         0.00529
       5 <- 16         0.00112
       5 <- 19         0.00086
       5 <- 22         0.00474
       5 <- 25        -0.00311
       5 <- 29         0.00034
       5 <- 33        -0.00193
       5 <- 35         0.00237
       5 <- 40        -0.00082
       5 <- 42        -0.00089
       5 <- 51        -0.00084
       6 <- 10         0.09134
       6 <- 11         0.01352
       6 <- 14        -0.01704
       6 <- 15        -0.01093
       6 <- 17        -0.00931
       6 <- 20        -0.00161
       6 <- 21         0.00308
       6 <- 24        -0.00462
       6 <- 26        -0.00117
       6 <- 30        -0.00143
       6 <- 32         0.00438
       6 <- 34         0.00152
       6 <- 36         0.00019
       6 <- 39        -0.00133
       6 <- 43         0.00066
       6 <- 45        -0.00068
       6 <- 48         0.00040
       6 <- 50         0.00033
       6 <- 54        -0.00092
       7 <-  9        -0.13015
       7 <- 13         0.00249
       7 <- 18        -0.01062
       7 <- 23         0.00026
       7 <- 28        -0.00128
       7 <- 31        -0.00158
       7 <- 37         0.00065
       7 <- 44        -0.00083
       7 <- 46        -0.00045
       7 <- 52         0.00098
       8 <- 12        -0.00327
       8 <- 16         0.01686
       8 <- 19        -0.01052
       8 <- 22        -0.00710
       8 <- 25         0.00013
       8 <- 29        -0.00588
       8 <- 33         0.00066
       8 <- 35        -0.00037
       8 <- 40         0.00012
       8 <- 42         0.00014
       8 <- 49        -0.00013
       8 <- 51         0.00011
       8 <- 53        -0.00045
 
 Excited State   3:      Singlet-B2     3.1447 eV  394.26 nm  f=0.0017  <S**2>=0.000
       3 -> 12        -0.00110
       3 -> 16         0.00103
       3 -> 19        -0.00360
       3 -> 22         0.00111
       3 -> 25        -0.00088
       3 -> 29        -0.00235
       3 -> 33         0.00030
       3 -> 35         0.00118
       3 -> 40        -0.00115
       3 -> 42        -0.00040
       3 -> 49        -0.00399
       3 -> 51         0.00015
       3 -> 53         0.00025
       4 -> 12         0.00034
       4 -> 16        -0.00127
       4 -> 19         0.00031
       4 -> 22         0.00156
       4 -> 25         0.00050
       4 -> 29         0.00075
       4 -> 33        -0.00029
       4 -> 35         0.00040
       4 -> 40         0.00023
       4 -> 49         0.00073
       5 -> 10         0.00933
       5 -> 11         0.00099
       5 -> 14        -0.00259
       5 -> 15         0.00274
       5 -> 17        -0.00053
       5 -> 20         0.00187
       5 -> 21         0.00260
       5 -> 24         0.00131
       5 -> 26        -0.00034
       5 -> 30        -0.00210
       5 -> 32        -0.00086
       5 -> 34        -0.00016
       5 -> 39         0.00057
       5 -> 41         0.00036
       5 -> 48        -0.00032
       5 -> 50         0.00021
       5 -> 54        -0.00017
       6 -> 12         0.00239
       6 -> 16        -0.00284
       6 -> 19         0.00426
       6 -> 22        -0.00067
       6 -> 25         0.00115
       6 -> 29         0.00033
       6 -> 33        -0.00019
       6 -> 35        -0.00109
       6 -> 40         0.00068
       6 -> 42         0.00058
       6 -> 49         0.00107
       6 -> 53        -0.00045
       7 -> 27        -0.00048
       7 -> 38         0.00028
       7 -> 47         0.00281
       8 -> 10         0.70531
       8 -> 11         0.04786
       8 -> 14        -0.04555
       8 -> 15        -0.01917
       8 -> 17        -0.01646
       8 -> 20         0.00612
       8 -> 21         0.00522
       8 -> 24        -0.00530
       8 -> 26        -0.00398
       8 -> 30        -0.01348
       8 -> 32         0.00053
       8 -> 34        -0.00101
       8 -> 36         0.00168
       8 -> 39         0.00036
       8 -> 41        -0.00017
       8 -> 45        -0.00077
       8 -> 48        -0.00345
       8 -> 50         0.00122
       8 -> 54        -0.00249
       3 <- 12        -0.00038
       3 <- 16         0.00038
       3 <- 19        -0.00181
       3 <- 22         0.00090
       3 <- 25        -0.00079
       3 <- 29        -0.00096
       3 <- 33         0.00029
       3 <- 35         0.00075
       3 <- 40        -0.00099
       3 <- 42        -0.00024
       3 <- 49        -0.00404
       3 <- 51         0.00015
       3 <- 53         0.00068
       4 <- 12         0.00012
       4 <- 16        -0.00157
       4 <- 19         0.00019
       4 <- 22         0.00193
       4 <- 25         0.00025
       4 <- 29         0.00103
       4 <- 33        -0.00030
       4 <- 35         0.00058
       4 <- 49         0.00051
       5 <- 10        -0.00095
       5 <- 11        -0.00052
       5 <- 14        -0.00040
       5 <- 15         0.00221
       5 <- 17         0.00019
       5 <- 20         0.00076
       5 <- 21         0.00149
       5 <- 24         0.00145
       5 <- 30        -0.00046
       5 <- 32        -0.00024
       5 <- 39         0.00028
       5 <- 41         0.00039
       5 <- 45        -0.00019
       5 <- 48        -0.00034
       5 <- 50         0.00011
       6 <- 12        -0.00098
       6 <- 16         0.00810
       6 <- 19        -0.00457
       6 <- 22        -0.00521
       6 <- 25         0.00132
       6 <- 29        -0.00621
       6 <- 33         0.00017
       6 <- 35        -0.00088
       6 <- 40         0.00066
       6 <- 42         0.00057
       6 <- 49         0.00159
       6 <- 53        -0.00144
       7 <- 27        -0.00049
       7 <- 38         0.00023
       7 <- 47         0.00244
       8 <- 10        -0.05130
       8 <- 11        -0.00706
       8 <- 14         0.00702
       8 <- 15         0.00220
       8 <- 17         0.00244
       8 <- 20        -0.00348
       8 <- 21        -0.00110
       8 <- 24         0.00144
       8 <- 26         0.00101
       8 <- 30         0.00248
       8 <- 32         0.00237
       8 <- 34         0.00078
       8 <- 36        -0.00088
       8 <- 39        -0.00090
       8 <- 41         0.00017
       8 <- 43         0.00034
       8 <- 45        -0.00146
       8 <- 48        -0.00289
       8 <- 50         0.00111
       8 <- 54        -0.00066
 
 Excited State   4:      Singlet-B1     3.3994 eV  364.73 nm  f=0.0000  <S**2>=0.000
       3 ->  9        -0.02030
       3 -> 13         0.00065
       3 -> 18        -0.00359
       3 -> 23         0.00114
       3 -> 28        -0.00130
       3 -> 31        -0.00102
       3 -> 37         0.00018
       3 -> 44         0.00029
       3 -> 46        -0.00072
       3 -> 52         0.00057
       4 ->  9        -0.00030
       4 -> 13        -0.00020
       4 -> 18         0.00023
       4 -> 23        -0.00025
       4 -> 28         0.00066
       4 -> 31        -0.00095
       4 -> 37        -0.00012
       4 -> 46        -0.00011
       4 -> 52        -0.00019
       5 -> 27        -0.00142
       5 -> 38         0.00056
       5 -> 47         0.00036
       6 ->  9         0.55023
       6 -> 13        -0.01426
       6 -> 18         0.01259
       6 -> 23        -0.00870
       6 -> 28         0.00379
       6 -> 31         0.00100
       6 -> 37        -0.00067
       6 -> 44        -0.00120
       6 -> 46         0.00269
       6 -> 52         0.00057
       7 -> 10         0.44871
       7 -> 11         0.03214
       7 -> 14        -0.03177
       7 -> 15        -0.01394
       7 -> 17        -0.01208
       7 -> 20         0.00423
       7 -> 21         0.00244
       7 -> 24        -0.00515
       7 -> 26        -0.00412
       7 -> 30        -0.00713
       7 -> 32         0.00110
       7 -> 34        -0.00036
       7 -> 36         0.00110
       7 -> 41        -0.00014
       7 -> 43         0.00048
       7 -> 45        -0.00096
       7 -> 48         0.00323
       7 -> 50         0.00107
       7 -> 54        -0.00082
       8 -> 27         0.00013
       8 -> 47         0.00392
       3 <-  9        -0.00674
       3 <- 13        -0.00062
       3 <- 18        -0.00233
       3 <- 23        -0.00028
       3 <- 28        -0.00080
       3 <- 31        -0.00073
       3 <- 37         0.00010
       3 <- 46        -0.00066
       3 <- 52         0.00066
       4 <-  9         0.00079
       4 <- 13         0.00035
       4 <- 18         0.00121
       4 <- 23         0.00010
       4 <- 28         0.00144
       4 <- 31        -0.00071
       4 <- 44        -0.00030
       4 <- 46        -0.00017
       5 <- 27        -0.00150
       5 <- 38         0.00054
       5 <- 47         0.00033
       6 <-  9        -0.05554
       6 <- 13         0.00233
       6 <- 18        -0.00624
       6 <- 23         0.00063
       6 <- 28        -0.00421
       6 <- 31        -0.00146
       6 <- 37        -0.00037
       6 <- 46         0.00255
       6 <- 52        -0.00050
       7 <- 10        -0.06308
       7 <- 11        -0.00882
       7 <- 14         0.01196
       7 <- 15         0.00647
       7 <- 17         0.00363
       7 <- 20         0.00071
       7 <- 21        -0.00302
       7 <- 24         0.00324
       7 <- 26         0.00174
       7 <- 30         0.00236
       7 <- 32         0.00011
       7 <- 34         0.00034
       7 <- 36         0.00031
       7 <- 39        -0.00049
       7 <- 41         0.00024
       7 <- 43         0.00026
       7 <- 45        -0.00066
       7 <- 48         0.00297
       7 <- 50         0.00129
       7 <- 54         0.00045
       8 <- 27         0.00048
       8 <- 47         0.00361
 
 Excited State   5:      Singlet-B1     3.9292 eV  315.55 nm  f=0.0060  <S**2>=0.000
       3 ->  9         0.00308
       3 -> 13        -0.00018
       3 -> 18        -0.00075
       3 -> 28        -0.00194
       3 -> 31        -0.00104
       3 -> 44        -0.00020
       3 -> 46        -0.00328
       3 -> 52        -0.00037
       4 ->  9        -0.02939
       4 -> 13         0.00592
       4 -> 18         0.00066
       4 -> 23         0.00470
       4 -> 28         0.00057
       4 -> 31         0.00070
       4 -> 37         0.00036
       4 -> 44        -0.00039
       4 -> 46         0.00094
       4 -> 52         0.00021
       5 -> 27        -0.00582
       5 -> 38        -0.00373
       6 ->  9        -0.44686
       6 -> 13         0.00759
       6 -> 18        -0.00331
       6 -> 23         0.00506
       6 -> 28         0.00175
       6 -> 31        -0.00431
       6 -> 37         0.00274
       6 -> 44         0.00125
       6 -> 46        -0.00143
       6 -> 52        -0.00103
       7 -> 10         0.54533
       7 -> 11         0.03044
       7 -> 14        -0.03129
       7 -> 15        -0.02169
       7 -> 17        -0.00579
       7 -> 20        -0.00217
       7 -> 21         0.00194
       7 -> 24        -0.00722
       7 -> 26        -0.00392
       7 -> 30        -0.00624
       7 -> 32        -0.00034
       7 -> 34        -0.00334
       7 -> 36        -0.00143
       7 -> 39         0.00062
       7 -> 43         0.00032
       7 -> 45        -0.00066
       7 -> 48        -0.00037
       7 -> 50        -0.00021
       7 -> 54        -0.00159
       8 -> 27         0.00046
       8 -> 38         0.00017
       8 -> 47        -0.00042
       3 <-  9         0.00129
       3 <- 13         0.00090
       3 <- 23         0.00067
       3 <- 28        -0.00144
       3 <- 31         0.00012
       3 <- 37        -0.00030
       3 <- 44        -0.00026
       3 <- 46        -0.00338
       4 <-  9        -0.01503
       4 <- 13         0.00296
       4 <- 18        -0.00019
       4 <- 23         0.00299
       4 <- 28         0.00041
       4 <- 31         0.00049
       4 <- 37         0.00034
       4 <- 44        -0.00051
       4 <- 46         0.00057
       4 <- 52         0.00015
       5 <- 27        -0.00425
       5 <- 38        -0.00316
       6 <-  9        -0.01717
       6 <- 13        -0.00098
       6 <- 18        -0.00190
       6 <- 23         0.00053
       6 <- 28         0.00100
       6 <- 31        -0.00472
       6 <- 37         0.00261
       6 <- 44         0.00095
       6 <- 46        -0.00072
       6 <- 52        -0.00123
       7 <- 10        -0.00249
       7 <- 11         0.00028
       7 <- 14        -0.00201
       7 <- 15        -0.00664
       7 <- 17        -0.00023
       7 <- 20        -0.00502
       7 <- 21        -0.00017
       7 <- 24        -0.00336
       7 <- 26        -0.00067
       7 <- 30        -0.00056
       7 <- 32         0.00114
       7 <- 34        -0.00215
       7 <- 36        -0.00242
       7 <- 39         0.00016
       7 <- 43         0.00039
       7 <- 45        -0.00072
       7 <- 48        -0.00051
       7 <- 50        -0.00048
       7 <- 54        -0.00106
       8 <- 27         0.00010
       8 <- 47        -0.00067
 
 Excited State   6:      Singlet-A2     6.7819 eV  182.82 nm  f=0.0000  <S**2>=0.000
       3 -> 27        -0.00100
       3 -> 38        -0.00027
       3 -> 47         0.00012
       4 -> 27        -0.00602
       4 -> 38         0.00043
       4 -> 47        -0.00018
       5 ->  9         0.70636
       5 -> 13        -0.02541
       5 -> 18         0.00343
       5 -> 23        -0.01580
       5 -> 28         0.00140
       5 -> 31        -0.00229
       5 -> 37        -0.00565
       5 -> 44        -0.00213
       5 -> 46         0.00042
       6 -> 27        -0.00065
       6 -> 38         0.00246
       6 -> 47         0.00014
       7 -> 12         0.01325
       7 -> 16         0.01267
       7 -> 19         0.00102
       7 -> 22        -0.00403
       7 -> 25        -0.00025
       7 -> 29        -0.00043
       7 -> 33        -0.00050
       7 -> 35        -0.00012
       7 -> 40        -0.00017
       7 -> 42         0.00026
       7 -> 51        -0.00077
       8 ->  9        -0.00079
       8 -> 13         0.00644
       8 -> 18         0.00176
       8 -> 23         0.00136
       8 -> 28         0.00026
       8 -> 31         0.00059
       8 -> 37         0.00093
       8 -> 44         0.00015
       8 -> 52         0.00016
       3 <- 27        -0.00110
       3 <- 38        -0.00037
       3 <- 47         0.00015
       4 <- 27        -0.00561
       5 <-  9        -0.01491
       5 <- 13         0.00210
       5 <- 18         0.00029
       5 <- 23         0.00013
       5 <- 28         0.00214
       5 <- 31        -0.00331
       5 <- 37        -0.00356
       5 <- 44        -0.00050
       6 <- 27        -0.00134
       6 <- 38         0.00183
       7 <- 12        -0.00351
       7 <- 16        -0.00036
       7 <- 19        -0.00089
       7 <- 22        -0.00408
       7 <- 25         0.00343
       7 <- 33         0.00031
       7 <- 35        -0.00069
       7 <- 42         0.00089
       7 <- 51        -0.00089
       8 <-  9         0.00043
       8 <- 13        -0.00043
       8 <- 18        -0.00105
       8 <- 23        -0.00037
       8 <- 28        -0.00105
       8 <- 31         0.00065
       8 <- 37         0.00051
 
 Excited State   7:      Singlet-B2     6.8400 eV  181.26 nm  f=0.0024  <S**2>=0.000
       3 -> 12         0.00151
       3 -> 16         0.00069
       3 -> 19        -0.00033
       3 -> 22        -0.00015
       3 -> 25        -0.00052
       3 -> 29        -0.00150
       3 -> 33         0.00018
       3 -> 40        -0.00013
       3 -> 49        -0.00020
       4 -> 12        -0.00045
       4 -> 16         0.00087
       4 -> 19         0.00061
       4 -> 22        -0.00106
       4 -> 25        -0.00068
       4 -> 29         0.00050
       5 -> 10        -0.00327
       5 -> 11        -0.00662
       5 -> 14         0.00294
       5 -> 15         0.00282
       5 -> 20         0.00039
       5 -> 21        -0.00040
       5 -> 24        -0.00033
       5 -> 26        -0.00017
       5 -> 30        -0.00050
       5 -> 32        -0.00065
       5 -> 34         0.00060
       5 -> 39         0.00019
       5 -> 41        -0.00023
       5 -> 43        -0.00021
       6 -> 12        -0.00403
       6 -> 16        -0.00176
       6 -> 19        -0.00060
       6 -> 22         0.00024
       6 -> 29        -0.00017
       6 -> 35         0.00049
       6 -> 49         0.00059
       7 -> 27        -0.00044
       7 -> 38        -0.00031
       7 -> 47         0.00076
       8 -> 10        -0.04451
       8 -> 11         0.70312
       8 -> 14         0.05543
       8 -> 15        -0.01856
       8 -> 17        -0.00235
       8 -> 20         0.01107
       8 -> 21         0.00212
       8 -> 24        -0.00196
       8 -> 26         0.00262
       8 -> 30        -0.00147
       8 -> 34        -0.00021
       8 -> 36        -0.00039
       8 -> 41        -0.00024
       8 -> 43         0.00022
       8 -> 45        -0.00052
       8 -> 48        -0.00096
       8 -> 50         0.00038
       8 -> 54        -0.00020
       3 <- 16         0.00045
       3 <- 19        -0.00036
       3 <- 22        -0.00031
       3 <- 25        -0.00017
       3 <- 29        -0.00086
       3 <- 33         0.00010
       3 <- 49        -0.00020
       4 <- 12         0.00039
       4 <- 16         0.00068
       4 <- 19         0.00060
       4 <- 22        -0.00068
       4 <- 25        -0.00044
       4 <- 29         0.00035
       4 <- 42         0.00012
       5 <- 10        -0.00139
       5 <- 14         0.00049
       5 <- 20         0.00016
       5 <- 21         0.00017
       5 <- 24        -0.00067
       5 <- 26         0.00019
       5 <- 30        -0.00018
       5 <- 32        -0.00024
       5 <- 34         0.00053
       5 <- 41        -0.00016
       5 <- 43        -0.00015
       5 <- 48        -0.00013
       6 <- 12        -0.00054
       6 <- 19        -0.00043
       6 <- 29        -0.00043
       6 <- 35         0.00035
       6 <- 49         0.00054
       7 <- 27        -0.00030
       7 <- 38        -0.00023
       7 <- 47         0.00066
       8 <- 10        -0.00330
       8 <- 11        -0.00087
       8 <- 14        -0.00010
       8 <- 15         0.00018
       8 <- 17        -0.00107
       8 <- 20        -0.00193
       8 <- 21         0.00034
       8 <- 24         0.00018
       8 <- 30         0.00014
       8 <- 32         0.00123
       8 <- 34         0.00036
       8 <- 36        -0.00093
       8 <- 45        -0.00031
       8 <- 48        -0.00077
       8 <- 50         0.00041
 
 Excited State   8:      Singlet-B1     7.1883 eV  172.48 nm  f=0.0633  <S**2>=0.000
       3 ->  9        -0.00060
       3 -> 13         0.00151
       3 -> 18        -0.00070
       3 -> 23        -0.00024
       3 -> 28        -0.00148
       3 -> 31        -0.00078
       3 -> 44        -0.00018
       3 -> 52        -0.00016
       4 ->  9         0.00170
       4 -> 13         0.00152
       4 -> 23        -0.00150
       4 -> 28         0.00011
       4 -> 31         0.00051
       4 -> 37        -0.00037
       4 -> 44        -0.00042
       5 -> 27        -0.00017
       5 -> 38         0.00040
       6 ->  9        -0.00503
       6 -> 13        -0.00183
       6 -> 23         0.00062
       6 -> 28         0.00035
       6 -> 31        -0.00026
       6 -> 37        -0.00010
       6 -> 44         0.00039
       6 -> 46         0.00010
       7 -> 10        -0.04299
       7 -> 11         0.70456
       7 -> 14         0.02560
       7 -> 15        -0.03216
       7 -> 17        -0.00346
       7 -> 20         0.00359
       7 -> 21         0.00365
       7 -> 24        -0.00580
       7 -> 26         0.00197
       7 -> 30        -0.00054
       7 -> 34        -0.00024
       7 -> 36        -0.00071
       7 -> 41        -0.00031
       7 -> 43         0.00026
       7 -> 45        -0.00041
       7 -> 48         0.00021
       7 -> 54        -0.00019
       8 -> 38        -0.00017
       8 -> 47         0.00032
       3 <-  9         0.00041
       3 <- 18        -0.00047
       3 <- 23        -0.00042
       3 <- 28        -0.00098
       3 <- 31        -0.00038
       4 <-  9        -0.00349
       4 <- 13         0.00070
       4 <- 23        -0.00050
       4 <- 31         0.00051
       4 <- 37        -0.00030
       5 <- 38         0.00034
       6 <-  9        -0.00376
       6 <- 13         0.00092
       6 <- 18        -0.00029
       6 <- 23         0.00140
       6 <- 31        -0.00036
       6 <- 44         0.00044
       6 <- 46         0.00016
       6 <- 52        -0.00012
       7 <- 10        -0.00233
       7 <- 11        -0.00141
       7 <- 14        -0.00135
       7 <- 15         0.00042
       7 <- 17        -0.00056
       7 <- 20        -0.00340
       7 <- 26        -0.00130
       7 <- 30         0.00049
       7 <- 32         0.00083
       7 <- 34         0.00027
       7 <- 36        -0.00080
       7 <- 45        -0.00019
       7 <- 48         0.00019
       8 <- 38        -0.00011
       8 <- 47         0.00023
 
 Excited State   9:      Singlet-A1     7.9795 eV  155.38 nm  f=0.0279  <S**2>=0.000
       3 -> 10        -0.00216
       3 -> 11         0.00146
       3 -> 14         0.00173
       3 -> 15        -0.00017
       3 -> 20         0.00016
       3 -> 21         0.00016
       3 -> 26        -0.00059
       3 -> 30        -0.00032
       3 -> 34         0.00020
       3 -> 36        -0.00025
       3 -> 39         0.00013
       3 -> 41        -0.00018
       3 -> 48        -0.00027
       3 -> 50         0.00012
       3 -> 54        -0.00020
       4 -> 10         0.00226
       4 -> 11        -0.00307
       4 -> 14        -0.00160
       4 -> 15         0.00070
       4 -> 17         0.00051
[...]
  46        4PY         0.00000   0.00000  -0.01189  -0.03501  -0.05659
  47        4PZ        -0.00378   0.00000   0.02032   0.03137   0.02004
  48        5S         -0.00176   0.00000   0.00862   0.01346   0.00939
  49        5PX         0.00000   0.00000   0.00000   0.00000   0.00000
  50        5PY         0.00000   0.00000  -0.00616  -0.01306  -0.01443
  51        5PZ        -0.00006   0.00000   0.00165   0.00202  -0.00029
  52        6D 0        0.00015   0.00000  -0.00046  -0.00086  -0.00101
  53        6D+1        0.00000   0.00000   0.00000   0.00000   0.00000
  54        6D-1        0.00000   0.00000  -0.00057  -0.00059   0.00045
  55        6D+2        0.00001   0.00000  -0.00001   0.00001   0.00001
  56        6D-2        0.00000   0.00000   0.00000   0.00000   0.00000
                          26        27        28        29        30
  26        4PX         0.00026
  27        4PY         0.00000   0.00107
  28        4PZ         0.00000  -0.00042   0.00064
  29 3   H  1S          0.00000  -0.00189  -0.00306   0.07700
  30        2S          0.00000  -0.00168  -0.00501   0.10870   0.15577
  31        3S          0.00000   0.00097  -0.00271   0.02981   0.04748
  32        4PX         0.00026   0.00000   0.00000   0.00000   0.00000
  33        4PY         0.00000  -0.00062  -0.00011   0.00824   0.01113
  34        4PZ         0.00000   0.00011   0.00000   0.00452   0.00629
  35 4   O  1S          0.00000   0.00005   0.00000   0.00060  -0.00001
  36        2S          0.00000   0.00014   0.00003   0.00094  -0.00012
  37        2PX         0.00581   0.00000   0.00000   0.00000   0.00000
  38        2PY         0.00000  -0.00026   0.00033   0.00854   0.02621
  39        2PZ         0.00000  -0.00236  -0.00425   0.01715   0.02651
  40        3S          0.00000  -0.00055  -0.00037  -0.00277   0.00083
  41        3PX         0.00836   0.00000   0.00000   0.00000   0.00000
  42        3PY         0.00000  -0.00037   0.00047   0.01207   0.03716
  43        3PZ         0.00000  -0.00346  -0.00632   0.02528   0.03911
  44        4S          0.00000  -0.00075  -0.00065  -0.00010   0.00376
  45        4PX         0.00755   0.00000   0.00000   0.00000   0.00000
  46        4PY         0.00000  -0.00026   0.00034   0.01189   0.03501
  47        4PZ         0.00000  -0.00278  -0.00505   0.02032   0.03137
  48        5S          0.00000  -0.00110  -0.00246   0.00862   0.01346
  49        5PX         0.00151   0.00000   0.00000   0.00000   0.00000
  50        5PY         0.00000   0.00018  -0.00022   0.00616   0.01306
  51        5PZ         0.00000  -0.00033   0.00023   0.00165   0.00202
  52        6D 0        0.00000   0.00004   0.00030  -0.00046  -0.00086
  53        6D+1       -0.00018   0.00000   0.00000   0.00000   0.00000
  54        6D-1        0.00000   0.00006  -0.00007   0.00057   0.00059
  55        6D+2        0.00000  -0.00000   0.00000  -0.00001   0.00001
  56        6D-2        0.00000   0.00000   0.00000   0.00000   0.00000
                          31        32        33        34        35
  31        3S          0.02536
  32        4PX         0.00000   0.00026
  33        4PY         0.00219   0.00000   0.00107
  34        4PZ         0.00106   0.00000   0.00042   0.00064
  35 4   O  1S         -0.00038   0.00000  -0.00005   0.00000   0.64201
  36        2S         -0.00070   0.00000  -0.00014   0.00003   0.57288
  37        2PX         0.00000   0.00581   0.00000   0.00000   0.00000
  38        2PY         0.04377   0.00000  -0.00026  -0.00033   0.00000
  39        2PZ         0.01691   0.00000   0.00236  -0.00425  -0.00748
  40        3S          0.00308   0.00000   0.00055  -0.00037  -0.15007
  41        3PX         0.00000   0.00836   0.00000   0.00000   0.00000
  42        3PY         0.06221   0.00000  -0.00037  -0.00047   0.00000
  43        3PZ         0.02508   0.00000   0.00346  -0.00632  -0.00921
  44        4S          0.00400   0.00000   0.00075  -0.00065  -0.13974
  45        4PX         0.00000   0.00755   0.00000   0.00000   0.00000
  46        4PY         0.05659   0.00000  -0.00026  -0.00034   0.00000
  47        4PZ         0.02004   0.00000   0.00278  -0.00505  -0.00561
  48        5S          0.00939   0.00000   0.00110  -0.00246   0.00913
  49        5PX         0.00000   0.00151   0.00000   0.00000   0.00000
  50        5PY         0.01443   0.00000   0.00018   0.00022   0.00000
  51        5PZ        -0.00029   0.00000   0.00033   0.00023  -0.00600
  52        6D 0       -0.00101   0.00000  -0.00004   0.00030  -0.00105
  53        6D+1        0.00000  -0.00018   0.00000   0.00000   0.00000
  54        6D-1       -0.00045   0.00000   0.00006   0.00007   0.00000
  55        6D+2        0.00001   0.00000   0.00000   0.00000  -0.00077
  56        6D-2        0.00000  -0.00000   0.00000   0.00000   0.00000
                          36        37        38        39        40
  36        2S          0.52954
  37        2PX         0.00000   0.12915
  38        2PY         0.00000   0.00000   0.19569
  39        2PZ        -0.01175  -0.00000  -0.00000   0.08366
  40        3S         -0.25144   0.00000   0.00000   0.03756   0.78824
  41        3PX         0.00000   0.18568   0.00000   0.00000   0.00000
  42        3PY         0.00000   0.00000   0.27830   0.00000   0.00000
  43        3PZ        -0.01528  -0.00000  -0.00000   0.12399   0.05231
  44        4S         -0.21858   0.00000   0.00000   0.03763   0.63455
  45        4PX         0.00000   0.16763   0.00000   0.00000   0.00000
  46        4PY         0.00000   0.00000   0.25082   0.00000   0.00000
  47        4PZ        -0.00989  -0.00000  -0.00000   0.09895   0.03655
  48        5S          0.00992   0.00000   0.00000   0.04563  -0.01162
  49        5PX         0.00000   0.03346   0.00000   0.00000   0.00000
  50        5PY         0.00000   0.00000   0.05596   0.00000   0.00000
  51        5PZ        -0.00863  -0.00000  -0.00000  -0.00109   0.02219
  52        6D 0       -0.00162   0.00000   0.00000  -0.00490   0.00438
  53        6D+1       -0.00000  -0.00402   0.00000  -0.00000   0.00000
  54        6D-1       -0.00000   0.00000  -0.00369  -0.00000   0.00000
  55        6D+2       -0.00124   0.00000   0.00000   0.00013   0.00369
  56        6D-2        0.00000   0.00000   0.00000   0.00000   0.00000
                          41        42        43        44        45
  41        3PX         0.26697
  42        3PY         0.00000   0.39579
  43        3PZ        -0.00000  -0.00000   0.18378
  44        4S          0.00000   0.00000   0.05304   0.51210
  45        4PX         0.24101   0.00000   0.00000   0.00000   0.21758
  46        4PY         0.00000   0.35671   0.00000   0.00000   0.00000
  47        4PZ        -0.00000  -0.00000   0.14669   0.03815  -0.00000
  48        5S          0.00000   0.00000   0.06779  -0.00542   0.00000
  49        5PX         0.04811   0.00000   0.00000   0.00000   0.04343
  50        5PY         0.00000   0.07958   0.00000   0.00000   0.00000
  51        5PZ        -0.00000  -0.00000  -0.00173   0.01777  -0.00000
  52        6D 0        0.00000   0.00000  -0.00729   0.00309   0.00000
  53        6D+1       -0.00579   0.00000  -0.00000   0.00000  -0.00522
  54        6D-1        0.00000  -0.00525  -0.00000   0.00000   0.00000
  55        6D+2        0.00000   0.00000   0.00018   0.00297   0.00000
  56        6D-2        0.00000   0.00000   0.00000   0.00000   0.00000
                          46        47        48        49        50
  46        4PY         0.32151
  47        4PZ        -0.00000   0.11712
  48        5S          0.00000   0.05432   0.02636
  49        5PX         0.00000   0.00000   0.00000   0.00867
  50        5PY         0.07181   0.00000   0.00000   0.00000   0.01631
  51        5PZ        -0.00000  -0.00153  -0.00165  -0.00000  -0.00000
  52        6D 0        0.00000  -0.00586  -0.00298   0.00000   0.00000
  53        6D+1        0.00000  -0.00000  -0.00000  -0.00104   0.00000
  54        6D-1       -0.00472  -0.00000  -0.00000   0.00000  -0.00100
  55        6D+2        0.00000   0.00012  -0.00008   0.00000   0.00000
  56        6D-2        0.00000   0.00000   0.00000   0.00000   0.00000
                          51        52        53        54        55
  51        5PZ         0.00086
  52        6D 0        0.00031   0.00036
  53        6D+1        0.00000  -0.00000   0.00013
  54        6D-1        0.00000  -0.00000   0.00000   0.00008
  55        6D+2        0.00011   0.00002   0.00000   0.00000   0.00002
  56        6D-2        0.00000   0.00000   0.00000   0.00000   0.00000
                          56
  56        6D-2        0.00000
          Condensed to atoms (all electrons):
               1          2          3          4
     1  C    5.162053   0.351211   0.351211   0.241469
     2  H    0.351211   0.510851  -0.043712  -0.012491
     3  H    0.351211  -0.043712   0.510851  -0.012491
     4  O    0.241469  -0.012491  -0.012491   8.065850
 Mulliken charges:
               1
     1  C   -0.105944
     2  H    0.194140
     3  H    0.194140
     4  O   -0.282336
 Sum of Mulliken charges =  -0.00000
 Mulliken charges with hydrogens summed into heavy atoms:
               1
     1  C    0.282336
     4  O   -0.282336
 Electronic spatial extent (au):  <R**2>=             94.5260
 Charge=             -0.0000 electrons
 Dipole moment (field-independent basis, Debye):
    X=             -0.0000    Y=              0.0000    Z=             -4.2929  Tot=              4.2929
 Quadrupole moment (field-independent basis, Debye-Ang):
   XX=            -13.0960   YY=            -12.0838   ZZ=            -10.4311
   XY=              0.0000   XZ=              0.0000   YZ=              0.0000
 Traceless Quadrupole moment (field-independent basis, Debye-Ang):
   XX=             -1.2257   YY=             -0.2135   ZZ=              1.4392
   XY=              0.0000   XZ=              0.0000   YZ=              0.0000
 Octapole moment (field-independent basis, Debye-Ang**2):
  XXX=              0.0000  YYY=              0.0000  ZZZ=             -3.1400  XYY=             -0.0000
  XXY=              0.0000  XXZ=              0.3947  XZZ=             -0.0000  YZZ=             -0.0000
  YYZ=             -2.7817  XYZ=             -0.0000
 Hexadecapole moment (field-independent basis, Debye-Ang**3):
 XXXX=            -14.3565 YYYY=            -18.6603 ZZZZ=            -81.9895 XXXY=             -0.0000
 XXXZ=             -0.0000 YYYX=             -0.0000 YYYZ=             -0.0000 ZZZX=              0.0000
 ZZZY=             -0.0000 XXYY=             -5.9592 XXZZ=            -17.4072 YYZZ=            -15.2003
 XXYZ=              0.0000 YYXZ=              0.0000 ZZXY=              0.0000
 N-N= 2.256185744859D+01 E-N=-3.135172520838D+02  KE= 1.133086622110D+02
 Symmetry A1   KE= 1.026179650999D+02
 Symmetry A2   KE= 1.268370653413D-35
 Symmetry B1   KE= 3.791191754520D+00
 Symmetry B2   KE= 6.899505356577D+00
 Leave Link  601 at Fri Sep 17 10:53:13 2021, MaxMem=   268435456 cpu:               0.0 elap:               0.0
 (Enter /software/gaussian/g16-a03/l9999.exe)
 Electronic transition elements 
                 1             2             3             4             5 
      1  -0.114283D+03 -0.114214D+03 -0.114209D+03 -0.114200D+03 -0.114181D+03
      2   0.000000D+00  0.000000D+00  0.000000D+00 -0.368874D-02 -0.250539D+00
      3   0.000000D+00  0.000000D+00 -0.147843D+00  0.000000D+00  0.000000D+00
      4   0.000000D+00  0.569453D+00  0.000000D+00  0.000000D+00  0.000000D+00
      5   0.000000D+00  0.000000D+00  0.000000D+00 -0.214857D-01  0.393752D-01
      6   0.000000D+00  0.000000D+00  0.142841D-01  0.000000D+00  0.000000D+00
      7   0.000000D+00 -0.535853D-01  0.000000D+00  0.000000D+00  0.000000D+00
      8   0.000000D+00  0.000000D+00  0.638570D+00  0.000000D+00  0.000000D+00
      9   0.000000D+00  0.000000D+00  0.000000D+00 -0.200047D+01  0.244918D+00
     10   0.932782D+00  0.000000D+00  0.000000D+00  0.000000D+00  0.000000D+00
     11   0.000000D+00  0.396417D-01  0.000000D+00  0.000000D+00  0.000000D+00
     12   0.000000D+00 -0.725124D-02  0.000000D+00  0.000000D+00  0.000000D+00
     13   0.000000D+00 -0.255019D-01  0.000000D+00  0.000000D+00  0.000000D+00
     14  -0.230112D-01  0.000000D+00  0.000000D+00  0.000000D+00  0.000000D+00
     15   0.000000D+00  0.000000D+00  0.000000D+00 -0.352551D-02  0.121166D+00
     16   0.000000D+00  0.000000D+00  0.260707D-01  0.000000D+00  0.000000D+00
                 6             7             8             9            10 
      1  -0.114076D+03 -0.114074D+03 -0.114061D+03 -0.114032D+03 -0.114019D+03
      2   0.000000D+00  0.000000D+00 -0.599537D+00  0.000000D+00  0.000000D+00
      3   0.000000D+00 -0.118862D+00  0.000000D+00  0.000000D+00  0.000000D+00
      4   0.000000D+00  0.000000D+00  0.000000D+00 -0.377632D+00  0.000000D+00
      5   0.000000D+00  0.000000D+00  0.161202D+00  0.000000D+00  0.000000D+00
      6   0.000000D+00  0.250190D-01  0.000000D+00  0.000000D+00  0.000000D+00
      7   0.000000D+00  0.000000D+00  0.000000D+00  0.107883D+00  0.000000D+00
      8   0.000000D+00 -0.287817D+00  0.000000D+00  0.000000D+00  0.000000D+00
      9   0.000000D+00  0.000000D+00 -0.138675D+00  0.000000D+00  0.000000D+00
     10  -0.110224D+01  0.000000D+00  0.000000D+00  0.000000D+00  0.237080D-01
     11   0.000000D+00  0.000000D+00  0.000000D+00  0.301192D-01  0.000000D+00
     12   0.000000D+00  0.000000D+00  0.000000D+00  0.126207D+00  0.000000D+00
     13   0.000000D+00  0.000000D+00  0.000000D+00 -0.195981D+00  0.000000D+00
     14   0.171934D+00  0.000000D+00  0.000000D+00  0.000000D+00  0.281111D+00
     15   0.000000D+00  0.000000D+00 -0.189654D+00  0.000000D+00  0.000000D+00
     16   0.000000D+00  0.211976D+00  0.000000D+00  0.000000D+00  0.000000D+00
                11            12            13            14            15 
      1  -0.114015D+03 -0.114011D+03 -0.114003D+03 -0.114000D+03 -0.113995D+03
      2   0.000000D+00  0.000000D+00  0.000000D+00 -0.457692D+00  0.000000D+00
      3  -0.434951D+00  0.000000D+00  0.000000D+00  0.000000D+00  0.000000D+00
      4   0.000000D+00  0.000000D+00 -0.145239D+01  0.000000D+00 -0.572830D+00
      5   0.000000D+00  0.000000D+00  0.000000D+00  0.155940D+00  0.000000D+00
      6   0.136392D+00  0.000000D+00  0.000000D+00  0.000000D+00  0.000000D+00
      7   0.000000D+00  0.000000D+00  0.466929D+00  0.000000D+00  0.191463D+00
      8  -0.519634D+00  0.000000D+00  0.000000D+00  0.000000D+00  0.000000D+00
      9   0.000000D+00  0.000000D+00  0.000000D+00  0.244848D+00  0.000000D+00
     10   0.000000D+00 -0.156438D-02  0.000000D+00  0.000000D+00  0.000000D+00
     11   0.000000D+00  0.000000D+00 -0.385331D+00  0.000000D+00  0.679517D+00
     12   0.000000D+00  0.000000D+00 -0.537349D-01  0.000000D+00  0.513825D-01
     13   0.000000D+00  0.000000D+00 -0.773082D-01  0.000000D+00 -0.347369D+00
     14   0.000000D+00  0.755352D-01  0.000000D+00  0.000000D+00  0.000000D+00
     15   0.000000D+00  0.000000D+00  0.000000D+00  0.336732D+00  0.000000D+00
     16   0.255108D+00  0.000000D+00  0.000000D+00  0.000000D+00  0.000000D+00
                16            17            18            19            20 
      1  -0.113976D+03 -0.113975D+03 -0.113959D+03 -0.113947D+03 -0.113940D+03
      2   0.000000D+00  0.000000D+00  0.000000D+00 -0.450022D+00  0.000000D+00
      3   0.724198D-01  0.000000D+00 -0.237997D+00  0.000000D+00 -0.228268D+00
      4   0.000000D+00 -0.537878D+00  0.000000D+00  0.000000D+00  0.000000D+00
      5   0.000000D+00  0.000000D+00  0.000000D+00  0.152728D+00  0.000000D+00
      6  -0.305860D-01  0.000000D+00  0.924113D-01  0.000000D+00  0.871546D-01
      7   0.000000D+00  0.194541D+00  0.000000D+00  0.000000D+00  0.000000D+00
      8   0.813886D+00  0.000000D+00  0.169838D+00  0.000000D+00  0.772892D-01
      9   0.000000D+00  0.000000D+00  0.000000D+00  0.165178D+00  0.000000D+00
     10   0.000000D+00  0.000000D+00  0.000000D+00  0.000000D+00  0.000000D+00
     11   0.000000D+00  0.309019D+00  0.000000D+00  0.000000D+00  0.000000D+00
     12   0.000000D+00  0.192622D+00  0.000000D+00  0.000000D+00  0.000000D+00
     13   0.000000D+00  0.659721D+00  0.000000D+00  0.000000D+00  0.000000D+00
     14   0.000000D+00  0.000000D+00  0.000000D+00  0.000000D+00  0.000000D+00
     15   0.000000D+00  0.000000D+00  0.000000D+00 -0.674643D-01  0.000000D+00
     16   0.372705D+00  0.000000D+00 -0.197189D-01  0.000000D+00 -0.348117D+00
                21            22            23            24            25 
      1  -0.113939D+03 -0.113932D+03 -0.113920D+03 -0.113905D+03 -0.113897D+03
      2   0.000000D+00  0.000000D+00 -0.596688D-01  0.000000D+00  0.000000D+00
      3   0.000000D+00  0.000000D+00  0.000000D+00 -0.126726D+00  0.000000D+00
      4   0.000000D+00 -0.819232D+00  0.000000D+00  0.000000D+00  0.109151D+01
      5   0.000000D+00  0.000000D+00  0.177503D-01  0.000000D+00  0.000000D+00
      6   0.000000D+00  0.000000D+00  0.000000D+00  0.483380D-01  0.000000D+00
      7   0.000000D+00  0.322690D+00  0.000000D+00  0.000000D+00 -0.445943D+00
      8   0.000000D+00  0.000000D+00  0.000000D+00 -0.117599D-01  0.000000D+00
      9   0.000000D+00  0.000000D+00  0.627742D-01  0.000000D+00  0.000000D+00
     10  -0.775334D-01  0.000000D+00  0.000000D+00  0.000000D+00  0.000000D+00
     11   0.000000D+00 -0.116076D+00  0.000000D+00  0.000000D+00 -0.277448D+00
     12   0.000000D+00 -0.420122D+00  0.000000D+00  0.000000D+00  0.393247D+00
     13   0.000000D+00 -0.679485D-01  0.000000D+00  0.000000D+00 -0.304611D+00
     14  -0.277360D+00  0.000000D+00  0.000000D+00  0.000000D+00  0.000000D+00
     15   0.000000D+00  0.000000D+00 -0.167024D+00  0.000000D+00  0.000000D+00
     16   0.000000D+00  0.000000D+00  0.000000D+00  0.476255D+00  0.000000D+00
                26            27            28            29            30 
      1  -0.113886D+03 -0.113885D+03 -0.113877D+03 -0.113868D+03 -0.113856D+03
      2   0.000000D+00  0.583046D-01  0.000000D+00  0.000000D+00  0.000000D+00
      3   0.000000D+00  0.000000D+00 -0.655453D+00  0.000000D+00  0.000000D+00
      4   0.000000D+00  0.000000D+00  0.000000D+00  0.410828D+00 -0.448907D+00
      5   0.000000D+00 -0.152780D-01  0.000000D+00  0.000000D+00  0.000000D+00
      6   0.000000D+00  0.000000D+00  0.290779D+00  0.000000D+00  0.000000D+00
      7   0.000000D+00  0.000000D+00  0.000000D+00 -0.177656D+00  0.198880D+00
      8   0.000000D+00  0.000000D+00  0.766335D+00  0.000000D+00  0.000000D+00
      9   0.000000D+00  0.120585D+00  0.000000D+00  0.000000D+00  0.000000D+00
     10  -0.261641D-01  0.000000D+00  0.000000D+00  0.000000D+00  0.000000D+00
     11   0.000000D+00  0.000000D+00  0.000000D+00 -0.216963D+00 -0.367760D+00
     12   0.000000D+00  0.000000D+00  0.000000D+00  0.210789D-01  0.184277D+00
     13   0.000000D+00  0.000000D+00  0.000000D+00  0.155088D+00  0.200153D+00
     14   0.370909D+00  0.000000D+00  0.000000D+00  0.000000D+00  0.000000D+00
     15   0.000000D+00  0.411200D+00  0.000000D+00  0.000000D+00  0.000000D+00
     16   0.000000D+00  0.000000D+00 -0.847860D+00  0.000000D+00  0.000000D+00

 Test job not archived.
 1\1\GINC-BHD0008\SP\RB3LYP TD-FC\6-311+G(d,p)\C1H2O1\BWEIGHT\17-Sep-20
 21\0\\#p B3LYP/6-311+G** #p TD=(singlets,nstates=30)IOp(6/8=3) IOp(9/4
 0=4)\\Scan Step 280, Bond Length 1.9000000000000001\\0,1\C,0,0.,0.,-0.
 52736\H,0,0.,0.93726,-1.11871\H,0,0.,-0.93726,-1.11871\O,0,0.,0.,1.372
 64\\Version=ES64L-G16RevA.03\State=1-A1\HF=-114.3249308\RMSD=7.016e-09
 \PG=C02V [C2(C1O1),SGV(H2)]\\@


 Sometimes the fool who rushes in gets the job done.
                                    -- Al Bernstein
 Job cpu time:       0 days  0 hours  0 minutes 25.7 seconds.
 Elapsed time:       0 days  0 hours  0 minutes 26.2 seconds.
 File lengths (MBytes):  RWF=     79 Int=      0 D2E=      0 Chk=     32 Scr=      1
 Normal termination of Gaussian 16 at Fri Sep 17 10:53:13 2021.
