 Entering Gaussian System, Link 0=g16
 Initial command:
 /software/gaussian/g16-c01/sse4/g16/l1.exe "/local_scratch/24665313/Gau-8960.inp" -scrdir="/local_scratch/24665313/"
 Entering Link 1 = /software/gaussian/g16-c01/sse4/g16/l1.exe PID=      8962.
  
 Copyright (c) 1988-2019, Gaussian, Inc.  All Rights Reserved.
  
 This is part of the Gaussian(R) 16 program.  It is based on
 the Gaussian(R) 09 system (copyright 2009, Gaussian, Inc.),
 the Gaussian(R) 03 system (copyright 2003, Gaussian, Inc.),
 the Gaussian(R) 98 system (copyright 1998, Gaussian, Inc.),
 the Gaussian(R) 94 system (copyright 1995, Gaussian, Inc.),
 the Gaussian 92(TM) system (copyright 1992, Gaussian, Inc.),
 the Gaussian 90(TM) system (copyright 1990, Gaussian, Inc.),
 the Gaussian 88(TM) system (copyright 1988, Gaussian, Inc.),
 the Gaussian 86(TM) system (copyright 1986, Carnegie Mellon
 University), and the Gaussian 82(TM) system (copyright 1983,
 Carnegie Mellon University). Gaussian is a federally registered
 trademark of Gaussian, Inc.
  
 This software contains proprietary and confidential information,
 including trade secrets, belonging to Gaussian, Inc.
  
 This software is provided under written license and may be
 used, copied, transmitted, or stored only in accord with that
 written license.
  
 The following legend is applicable only to US Government
 contracts under FAR:
  
                    RESTRICTED RIGHTS LEGEND
  
 Use, reproduction and disclosure by the US Government is
 subject to restrictions as set forth in subparagraphs (a)
 and (c) of the Commercial Computer Software - Restricted
 Rights clause in FAR 52.227-19.
  
 Gaussian, Inc.
 340 Quinnipiac St., Bldg. 40, Wallingford CT 06492
  
  
 ---------------------------------------------------------------
 Warning -- This program may not be used in any manner that
 competes with the business of Gaussian, Inc. or will provide
 assistance to any competitor of Gaussian, Inc.  The licensee
 of this program is prohibited from giving any competitor of
 Gaussian, Inc. access to this program.  By using this program,
 the user acknowledges that Gaussian, Inc. is engaged in the
 business of creating and licensing software in the field of
 computational chemistry and represents and warrants to the
 licensee that it is not a competitor of Gaussian, Inc. and that
 it will not use this program in any manner prohibited above.
 ---------------------------------------------------------------
  

 Cite this work as:
 Gaussian 16, Revision C.01,
 M. J. Frisch, G. W. Trucks, H. B. Schlegel, G. E. Scuseria, 
 M. A. Robb, J. R. Cheeseman, G. Scalmani, V. Barone, 
 G. A. Petersson, H. Nakatsuji, X. Li, M. Caricato, A. V. Marenich, 
 J. Bloino, B. G. Janesko, R. Gomperts, B. Mennucci, H. P. Hratchian, 
 J. V. Ortiz, A. F. Izmaylov, J. L. Sonnenberg, D. Williams-Young, 
 F. Ding, F. Lipparini, F. Egidi, J. Goings, B. Peng, A. Petrone, 
 T. Henderson, D. Ranasinghe, V. G. Zakrzewski, J. Gao, N. Rega, 
 G. Zheng, W. Liang, M. Hada, M. Ehara, K. Toyota, R. Fukuda, 
 J. Hasegawa, M. Ishida, T. Nakajima, Y. Honda, O. Kitao, H. Nakai, 
 T. Vreven, K. Throssell, J. A. Montgomery, Jr., J. E. Peralta, 
 F. Ogliaro, M. J. Bearpark, J. J. Heyd, E. N. Brothers, K. N. Kudin, 
 V. N. Staroverov, T. A. Keith, R. Kobayashi, J. Normand, 
 K. Raghavachari, A. P. Rendell, J. C. Burant, S. S. Iyengar, 
 J. Tomasi, M. Cossi, J. M. Millam, M. Klene, C. Adamo, R. Cammi, 
 J. W. Ochterski, R. L. Martin, K. Morokuma, O. Farkas, 
 J. B. Foresman, and D. J. Fox, Gaussian, Inc., Wallingford CT, 2019.
 
 ******************************************
 Gaussian 16:  ES64L-G16RevC.01  3-Jul-2019
                 2-May-2024 
 ******************************************
 %chk=geometry.chk
 %mem=1GB
 %nprocshared=12
 Will use up to   12 processors via shared memory.
 ---------------------------------------
 #P wB97XD/6-311+G* NoSymm #P Field=Y-97
 ---------------------------------------
 1/38=1,172=1/1;
 2/12=2,15=1,17=6,18=5,40=1/2;
 3/5=4,6=6,7=11,11=2,14=2,15=-97,25=1,30=1,74=-58/1,2,3;
 4//1;
 5/5=2,38=5/2;
 6/7=2,8=2,9=2,10=2,28=1/1;
 99/5=1,9=1/99;
 Leave Link    1 at Thu May  2 13:57:40 2024, MaxMem=   134217728 cpu:               1.3 elap:               1.3
 (Enter /software/gaussian/g16-c01/sse4/g16/l101.exe)
 -------
 TitleMe
 -------
 Symbolic Z-matrix:
 Charge =  1 Multiplicity = 1
 C                     0.5193    1.233    -0.0319 
 C                     1.9445    1.2692   -0.0367 
 C                     2.6204    0.0928   -0.025 
 C                    -0.196     0.0301    0.001 
 H                    -0.0207    2.1742   -0.0434 
 H                     2.4828    2.2089   -0.0361 
 H                    -1.2777    0.0399    0.0117 
 N                     4.0921    0.0959    0.0366 
 O                     4.6393   -1.0217    0.1446 
 O                     4.6649    1.1984   -0.0233 
 C                     0.4943   -1.1671    0.021 
 H                    -0.0325   -2.1149    0.0545 
 C                     1.9629   -1.2165   -0.0211 
 H                     2.4436   -1.9631    0.6151 
 Br                    2.173    -1.9491   -1.9062 
 
 ITRead=  0  0  0  0  0  0  0  0  0  0  0  0  0  0  0
 MicOpt= -1 -1 -1 -1 -1 -1 -1 -1 -1 -1 -1 -1 -1 -1 -1
 NAtoms=     15 NQM=       15 NQMF=       0 NMMI=      0 NMMIF=      0
                NMic=       0 NMicF=      0.
                    Isotopes and Nuclear Properties:
 (Nuclear quadrupole moments (NQMom) in fm**2, nuclear magnetic moments (NMagM)
  in nuclear magnetons)

  Atom         1           2           3           4           5           6           7           8           9          10
 IAtWgt=          12          12          12          12           1           1           1          14          16          16
 AtmWgt=  12.0000000  12.0000000  12.0000000  12.0000000   1.0078250   1.0078250   1.0078250  14.0030740  15.9949146  15.9949146
 NucSpn=           0           0           0           0           1           1           1           2           0           0
 AtZEff=  -0.0000000  -0.0000000  -0.0000000  -0.0000000  -0.0000000  -0.0000000  -0.0000000  -0.0000000  -0.0000000  -0.0000000
 NQMom=    0.0000000   0.0000000   0.0000000   0.0000000   0.0000000   0.0000000   0.0000000   2.0440000   0.0000000   0.0000000
 NMagM=    0.0000000   0.0000000   0.0000000   0.0000000   2.7928460   2.7928460   2.7928460   0.4037610   0.0000000   0.0000000
 AtZNuc=   6.0000000   6.0000000   6.0000000   6.0000000   1.0000000   1.0000000   1.0000000   7.0000000   8.0000000   8.0000000

  Atom        11          12          13          14          15
 IAtWgt=          12           1          12           1          79
 AtmWgt=  12.0000000   1.0078250  12.0000000   1.0078250  78.9183361
 NucSpn=           0           1           0           1           3
 AtZEff=  -0.0000000  -0.0000000  -0.0000000  -0.0000000  -0.0000000
 NQMom=    0.0000000   0.0000000   0.0000000   0.0000000  31.3000000
 NMagM=    0.0000000   2.7928460   0.0000000   2.7928460   2.1063990
 AtZNuc=   6.0000000   1.0000000   6.0000000   1.0000000  35.0000000
 Leave Link  101 at Thu May  2 13:57:42 2024, MaxMem=   134217728 cpu:               1.5 elap:               1.6
 (Enter /software/gaussian/g16-c01/sse4/g16/l202.exe)
                          Input orientation:                          
 ---------------------------------------------------------------------
 Center     Atomic      Atomic             Coordinates (Angstroms)
 Number     Number       Type             X           Y           Z
 ---------------------------------------------------------------------
      1          6           0        0.519300    1.233000   -0.031900
      2          6           0        1.944500    1.269200   -0.036700
      3          6           0        2.620400    0.092800   -0.025000
      4          6           0       -0.196000    0.030100    0.001000
      5          1           0       -0.020700    2.174200   -0.043400
      6          1           0        2.482800    2.208900   -0.036100
      7          1           0       -1.277700    0.039900    0.011700
      8          7           0        4.092100    0.095900    0.036600
      9          8           0        4.639300   -1.021700    0.144600
     10          8           0        4.664900    1.198400   -0.023300
     11          6           0        0.494300   -1.167100    0.021000
     12          1           0       -0.032500   -2.114900    0.054500
     13          6           0        1.962900   -1.216500   -0.021100
     14          1           0        2.443600   -1.963100    0.615100
     15         35           0        2.173000   -1.949100   -1.906200
 ---------------------------------------------------------------------
                    Distance matrix (angstroms):
                    1          2          3          4          5
     1  C    0.000000
     2  C    1.425668   0.000000
     3  C    2.390549   1.356796   0.000000
     4  C    1.399895   2.473566   2.817218   0.000000
     5  H    1.085168   2.163581   3.362733   2.151712   0.000000
     6  H    2.192654   1.082960   2.120598   3.453189   2.503751
     7  H    2.157452   3.449071   3.898632   1.081797   2.477564
     8  N    3.750012   2.448304   1.472992   4.288753   4.608780
     9  O    4.699917   3.541615   2.312322   4.950458   5.653735
    10  O    4.145753   2.721354   2.324292   4.999386   4.786171
    11  C    2.400813   2.835836   2.471794   1.382101   3.381369
    12  H    3.394169   3.920329   3.452266   2.151887   4.290233
    13  C    2.843264   2.485817   1.465124   2.493060   3.928360
    14  H    3.786370   3.334922   2.160489   3.364142   4.860416
    15  Br   4.046416   3.728900   2.812194   3.628609   5.028314
                    6          7          8          9         10
     6  H    0.000000
     7  H    4.341452   0.000000
     8  N    2.657047   5.370150   0.000000
     9  O    3.888434   6.012948   1.249048   0.000000
    10  O    2.404752   6.054572   1.243863   2.226587   0.000000
    11  C    3.918516   2.144043   3.813080   4.149391   4.794941
    12  H    5.003018   2.489080   4.679774   4.798846   5.748876
    13  C    3.464662   3.475788   2.501842   2.688591   3.623886
    14  H    4.222698   4.268978   2.700314   2.434893   3.916224
    15  Br   4.569706   4.420610   3.411663   3.338935   4.434144
                   11         12         13         14         15
    11  C    0.000000
    12  H    1.084880   0.000000
    13  C    1.470034   2.189625   0.000000
    14  H    2.187771   2.543302   1.092353   0.000000
    15  Br   2.672762   2.955683   2.033334   2.535818   0.000000
 Symmetry turned off by external request.
 Stoichiometry    C6H5BrNO2(1+)
 Framework group  C1[X(C6H5BrNO2)]
 Deg. of freedom    39
 Full point group                 C1      NOp   1
 Rotational constants (GHZ):           1.1632986           0.9594224           0.5957624
 Leave Link  202 at Thu May  2 13:57:43 2024, MaxMem=   134217728 cpu:               1.2 elap:               1.2
 (Enter /software/gaussian/g16-c01/sse4/g16/l301.exe)
 Standard basis: 6-311+G(d) (5D, 7F)
 Ernie: Thresh=  0.10000D-02 Tol=  0.10000D-05 Strict=F.
 The following finite field(s) will be applied:
 An electric field of              0.0000 -0.0097  0.0000
   261 basis functions,   443 primitive gaussians,   273 cartesian basis functions
    49 alpha electrons       49 beta electrons
       nuclear repulsion energy       772.8945969580 Hartrees.
 IExCor= 4639 DFT=T Ex+Corr=wB97XD ExCW=0 ScaHFX=  1.000000
 ScaDFX=  1.000000  1.000000  1.000000  1.000000 ScalE2=  1.000000  1.000000
 IRadAn=      5 IRanWt=     -1 IRanGd=            0 ICorTp=0 IEmpDi=121
 HFx  wShort=  0.000000 wLong=  0.200000 cFull=  0.222036 cShort=  0.000000 cLong=  0.777964
 DFx  wShort=  0.000000 wLong=  0.200000 cFull=  0.000000 cShort=  0.000000 cLong=  1.000000
 NAtoms=   15 NActive=   15 NUniq=   15 SFac= 1.00D+00 NAtFMM=   60 NAOKFM=F Big=F
 Integral buffers will be    131072 words long.
 Raffenetti 2 integral format.
 Two-electron integral symmetry is turned off.
 R6Disp:  Grimme-D2 Dispersion energy=       -0.0080346408 Hartrees.
 Nuclear repulsion after empirical dispersion term =      772.8865623173 Hartrees.
 Leave Link  301 at Thu May  2 13:57:44 2024, MaxMem=   134217728 cpu:               1.1 elap:               1.1
 (Enter /software/gaussian/g16-c01/sse4/g16/l302.exe)
 NPDir=0 NMtPBC=     1 NCelOv=     1 NCel=       1 NClECP=     1 NCelD=      1
         NCelK=      1 NCelE2=     1 NClLst=     1 CellRange=     0.0.
 One-electron integrals computed using PRISM.
 NBasis=   261 RedAO= T EigKep=  2.52D-06  NBF=   261
 NBsUse=   261 1.00D-06 EigRej= -1.00D+00 NBFU=   261
 Precomputing XC quadrature grid using
 IXCGrd= 4 IRadAn=           5 IRanWt=          -1 IRanGd=           0 AccXCQ= 0.00D+00.
 Generated NRdTot=       0 NPtTot=           0 NUsed=           0 NTot=          32
 NSgBfM=   273   273   273   273   273 MxSgAt=    15 MxSgA2=    15.
 Leave Link  302 at Thu May  2 13:58:06 2024, MaxMem=   134217728 cpu:              21.7 elap:              21.7
 (Enter /software/gaussian/g16-c01/sse4/g16/l303.exe)
 DipDrv:  MaxL=1.
 The nuclear repulsion energy is now       774.0659292800 hartrees.
 Leave Link  303 at Thu May  2 13:58:09 2024, MaxMem=   134217728 cpu:               3.4 elap:               3.4
 (Enter /software/gaussian/g16-c01/sse4/g16/l401.exe)
 ExpMin= 3.50D-02 ExpMax= 4.40D+05 ExpMxC= 1.51D+04 IAcc=3 IRadAn=         5 AccDes= 0.00D+00
 Harris functional with IExCor= 4639 and IRadAn=       5 diagonalized for initial guess.
 HarFok:  IExCor= 4639 AccDes= 0.00D+00 IRadAn=         5 IDoV= 1 UseB2=F ITyADJ=14
 ICtDFT=  3500011 ScaDFX=  1.000000  1.000000  1.000000  1.000000
 FoFCou: FMM=F IPFlag=           0 FMFlag=      100000 FMFlg1=           0
         NFxFlg=           0 DoJE=T BraDBF=F KetDBF=T FulRan=T
         wScrn=  0.000000 ICntrl=       500 IOpCl=  0 I1Cent=   200000004 NGrid=           0
         NMat0=    1 NMatS0=      1 NMatT0=    0 NMatD0=    1 NMtDS0=    0 NMtDT0=    0
 Symmetry not used in FoFCou.
 Harris En= -2970.61099118550    
 JPrj=0 DoOrth=F DoCkMO=F.
 Leave Link  401 at Thu May  2 13:58:41 2024, MaxMem=   134217728 cpu:              31.3 elap:              31.3
 (Enter /software/gaussian/g16-c01/sse4/g16/l502.exe)
 Two-electron integral symmetry not used.
 Closed shell SCF:
 Using DIIS extrapolation, IDIIS=  1040.
 NGot=   134217728 LenX=   134063053 LenY=   133988083
 Requested convergence on RMS density matrix=1.00D-08 within 128 cycles.
 Requested convergence on MAX density matrix=1.00D-06.
 Requested convergence on             energy=1.00D-06.
 No special actions if energy rises.
 Fock matrices will be formed incrementally for  20 cycles.

 Cycle   1  Pass 1  IDiag  1:
 FoFJK:  IHMeth= 1 ICntrl=       0 DoSepK=T KAlg= 0 I1Cent=           0 FoldK=F
 IRaf=         1 NMat=       1 IRICut=       1 DoRegI=T DoRafI=F ISym2E= 0 IDoP0=0 IntGTp=1.
 FoFCou: FMM=F IPFlag=           0 FMFlag=      100000 FMFlg1=           0
         NFxFlg=           0 DoJE=T BraDBF=F KetDBF=F FulRan=T
         wScrn=  0.000000 ICntrl=       500 IOpCl=  0 I1Cent=           0 NGrid=           0
         NMat0=    1 NMatS0=      1 NMatT0=    0 NMatD0=    1 NMtDS0=    0 NMtDT0=    0
 Symmetry not used in FoFCou.
 E= -3009.68714522143    
 DIIS: error= 2.90D-01 at cycle   1 NSaved=   1.
 NSaved= 1 IEnMin= 1 EnMin= -3009.68714522143     IErMin= 1 ErrMin= 2.90D-01
 ErrMax= 2.90D-01  0.00D+00 EMaxC= 1.00D-01 BMatC= 1.19D+01 BMatP= 1.19D+01
 IDIUse=3 WtCom= 0.00D+00 WtEn= 1.00D+00
 Coeff-Com:  0.100D+01
 Coeff-En:   0.100D+01
 Coeff:      0.100D+01
 Gap=     0.372 Goal=   None    Shift=    0.000
 GapD=    0.372 DampG=1.000 DampE=0.250 DampFc=0.2500 IDamp=-1.
 Damping current iteration by 2.50D-01
 RMSDP=6.87D-02 MaxDP=8.57D+00              OVMax= 2.49D-01

 Cycle   2  Pass 1  IDiag  1:
 RMSU=  6.26D-03    CP:  8.82D-01
 E= -3009.98042861067     Delta-E=       -0.293283389241 Rises=F Damp=T
 DIIS: error= 2.19D-01 at cycle   2 NSaved=   2.
 NSaved= 2 IEnMin= 2 EnMin= -3009.98042861067     IErMin= 2 ErrMin= 2.19D-01
 ErrMax= 2.19D-01  0.00D+00 EMaxC= 1.00D-01 BMatC= 5.46D+00 BMatP= 1.19D+01
 IDIUse=3 WtCom= 0.00D+00 WtEn= 1.00D+00
 Coeff-Com: -0.183D+01 0.283D+01
 Coeff-En:   0.000D+00 0.100D+01
 Coeff:      0.000D+00 0.100D+01
 Gap=     0.258 Goal=   None    Shift=    0.000
 RMSDP=4.89D-02 MaxDP=6.13D+00 DE=-2.93D-01 OVMax= 9.72D-02

 Cycle   3  Pass 1  IDiag  1:
 RMSU=  6.21D-03    CP:  5.36D-01  3.00D+00
 E= -3010.38141994884     Delta-E=       -0.400991338173 Rises=F Damp=F
 DIIS: error= 6.55D-02 at cycle   3 NSaved=   3.
 NSaved= 3 IEnMin= 3 EnMin= -3010.38141994884     IErMin= 3 ErrMin= 6.55D-02
 ErrMax= 6.55D-02  0.00D+00 EMaxC= 1.00D-01 BMatC= 7.24D-01 BMatP= 5.46D+00
 IDIUse=3 WtCom= 3.45D-01 WtEn= 6.55D-01
 Coeff-Com:  0.229D+01-0.298D+01 0.169D+01
 Coeff-En:   0.185D-01 0.000D+00 0.982D+00
 Coeff:      0.804D+00-0.103D+01 0.122D+01
 Gap=     0.267 Goal=   None    Shift=    0.000
 RMSDP=1.23D-02 MaxDP=7.04D-01 DE=-4.01D-01 OVMax= 7.53D-02

 Cycle   4  Pass 1  IDiag  1:
 RMSU=  6.59D-03    CP:  5.68D-01  1.98D+00  2.04D+00
 E= -3010.47252983981     Delta-E=       -0.091109890970 Rises=F Damp=F
 DIIS: error= 4.01D-02 at cycle   4 NSaved=   4.
 NSaved= 4 IEnMin= 4 EnMin= -3010.47252983981     IErMin= 4 ErrMin= 4.01D-02
 ErrMax= 4.01D-02  0.00D+00 EMaxC= 1.00D-01 BMatC= 2.64D-01 BMatP= 7.24D-01
 IDIUse=3 WtCom= 5.99D-01 WtEn= 4.01D-01
 Coeff-Com:  0.422D+00-0.545D+00 0.602D+00 0.521D+00
 Coeff-En:   0.000D+00 0.000D+00 0.253D+00 0.747D+00
 Coeff:      0.253D+00-0.326D+00 0.462D+00 0.612D+00
 Gap=     0.277 Goal=   None    Shift=    0.000
 RMSDP=4.25D-03 MaxDP=2.06D-01 DE=-9.11D-02 OVMax= 7.07D-02

 Cycle   5  Pass 1  IDiag  1:
 RMSU=  2.03D-03    CP:  5.61D-01  2.16D+00  2.04D+00  4.84D-01
 E= -3010.52189702733     Delta-E=       -0.049367187524 Rises=F Damp=F
 DIIS: error= 1.55D-02 at cycle   5 NSaved=   5.
 NSaved= 5 IEnMin= 5 EnMin= -3010.52189702733     IErMin= 5 ErrMin= 1.55D-02
 ErrMax= 1.55D-02  0.00D+00 EMaxC= 1.00D-01 BMatC= 1.90D-02 BMatP= 2.64D-01
 IDIUse=3 WtCom= 8.45D-01 WtEn= 1.55D-01
 Coeff-Com:  0.666D-02-0.231D-02 0.207D+00 0.380D+00 0.408D+00
 Coeff-En:   0.000D+00 0.000D+00 0.000D+00 0.956D-01 0.904D+00
 Coeff:      0.563D-02-0.195D-02 0.175D+00 0.336D+00 0.485D+00
 Gap=     0.263 Goal=   None    Shift=    0.000
 RMSDP=4.32D-03 MaxDP=5.96D-01 DE=-4.94D-02 OVMax= 4.39D-02

 Cycle   6  Pass 1  IDiag  1:
 RMSU=  8.78D-04    CP:  5.34D-01  2.24D+00  1.97D+00  7.40D-01  3.35D-01
 E= -3010.53243047862     Delta-E=       -0.010533451289 Rises=F Damp=F
 DIIS: error= 4.68D-03 at cycle   6 NSaved=   6.
 NSaved= 6 IEnMin= 6 EnMin= -3010.53243047862     IErMin= 6 ErrMin= 4.68D-03
 ErrMax= 4.68D-03  0.00D+00 EMaxC= 1.00D-01 BMatC= 1.99D-03 BMatP= 1.90D-02
 IDIUse=3 WtCom= 9.53D-01 WtEn= 4.68D-02
 Coeff-Com: -0.562D-01 0.758D-01 0.962D-02 0.113D+00 0.316D+00 0.541D+00
 Coeff-En:   0.000D+00 0.000D+00 0.000D+00 0.000D+00 0.117D+00 0.883D+00
 Coeff:     -0.536D-01 0.723D-01 0.917D-02 0.108D+00 0.307D+00 0.557D+00
 Gap=     0.247 Goal=   None    Shift=    0.000
 RMSDP=9.84D-04 MaxDP=1.32D-01 DE=-1.05D-02 OVMax= 1.05D-02

 Cycle   7  Pass 1  IDiag  1:
 RMSU=  2.37D-04    CP:  5.40D-01  2.23D+00  2.01D+00  6.97D-01  5.35D-01
                    CP:  7.00D-01
 E= -3010.53382766401     Delta-E=       -0.001397185387 Rises=F Damp=F
 DIIS: error= 3.95D-04 at cycle   7 NSaved=   7.
 NSaved= 7 IEnMin= 7 EnMin= -3010.53382766401     IErMin= 7 ErrMin= 3.95D-04
 ErrMax= 3.95D-04  0.00D+00 EMaxC= 1.00D-01 BMatC= 2.37D-05 BMatP= 1.99D-03
 IDIUse=3 WtCom= 9.96D-01 WtEn= 3.95D-03
 Coeff-Com: -0.248D-01 0.329D-01-0.124D-01 0.158D-01 0.785D-01 0.202D+00
 Coeff-Com:  0.707D+00
 Coeff-En:   0.000D+00 0.000D+00 0.000D+00 0.000D+00 0.000D+00 0.000D+00
 Coeff-En:   0.100D+01
 Coeff:     -0.247D-01 0.328D-01-0.123D-01 0.157D-01 0.782D-01 0.202D+00
 Coeff:      0.709D+00
 Gap=     0.247 Goal=   None    Shift=    0.000
 RMSDP=4.03D-04 MaxDP=5.47D-02 DE=-1.40D-03 OVMax= 3.49D-03

 Cycle   8  Pass 1  IDiag  1:
 RMSU=  1.04D-04    CP:  5.37D-01  2.22D+00  2.01D+00  7.11D-01  5.39D-01
                    CP:  8.38D-01  9.60D-01
 E= -3010.53386479899     Delta-E=       -0.000037134981 Rises=F Damp=F
 DIIS: error= 1.13D-04 at cycle   8 NSaved=   8.
 NSaved= 8 IEnMin= 8 EnMin= -3010.53386479899     IErMin= 8 ErrMin= 1.13D-04
 ErrMax= 1.13D-04  0.00D+00 EMaxC= 1.00D-01 BMatC= 2.92D-06 BMatP= 2.37D-05
 IDIUse=3 WtCom= 9.99D-01 WtEn= 1.13D-03
 Coeff-Com:  0.547D-02-0.752D-02-0.377D-02-0.148D-01-0.370D-01-0.579D-01
 Coeff-Com:  0.140D+00 0.975D+00
 Coeff-En:   0.000D+00 0.000D+00 0.000D+00 0.000D+00 0.000D+00 0.000D+00
 Coeff-En:   0.000D+00 0.100D+01
 Coeff:      0.546D-02-0.751D-02-0.376D-02-0.148D-01-0.370D-01-0.578D-01
 Coeff:      0.140D+00 0.976D+00
 Gap=     0.247 Goal=   None    Shift=    0.000
 RMSDP=1.08D-04 MaxDP=9.01D-03 DE=-3.71D-05 OVMax= 3.20D-03

 Cycle   9  Pass 1  IDiag  1:
 RMSU=  3.74D-05    CP:  5.37D-01  2.23D+00  2.01D+00  7.17D-01  5.45D-01
                    CP:  8.63D-01  1.14D+00  1.35D+00
 E= -3010.53387654878     Delta-E=       -0.000011749783 Rises=F Damp=F
 DIIS: error= 5.97D-05 at cycle   9 NSaved=   9.
 NSaved= 9 IEnMin= 9 EnMin= -3010.53387654878     IErMin= 9 ErrMin= 5.97D-05
 ErrMax= 5.97D-05  0.00D+00 EMaxC= 1.00D-01 BMatC= 5.92D-07 BMatP= 2.92D-06
 IDIUse=1 WtCom= 1.00D+00 WtEn= 0.00D+00
 Coeff-Com:  0.690D-02-0.925D-02 0.113D-02-0.778D-02-0.211D-01-0.440D-01
 Coeff-Com: -0.713D-01 0.255D+00 0.891D+00
 Coeff:      0.690D-02-0.925D-02 0.113D-02-0.778D-02-0.211D-01-0.440D-01
 Coeff:     -0.713D-01 0.255D+00 0.891D+00
 Gap=     0.247 Goal=   None    Shift=    0.000
 RMSDP=9.02D-05 MaxDP=1.16D-02 DE=-1.17D-05 OVMax= 1.73D-03

 Cycle  10  Pass 1  IDiag  1:
 RMSU=  1.81D-05    CP:  5.36D-01  2.22D+00  2.01D+00  7.18D-01  5.43D-01
                    CP:  8.82D-01  1.18D+00  1.63D+00  1.18D+00
 E= -3010.53387938073     Delta-E=       -0.000002831952 Rises=F Damp=F
 DIIS: error= 3.12D-05 at cycle  10 NSaved=  10.
 NSaved=10 IEnMin=10 EnMin= -3010.53387938073     IErMin=10 ErrMin= 3.12D-05
 ErrMax= 3.12D-05  0.00D+00 EMaxC= 1.00D-01 BMatC= 1.76D-07 BMatP= 5.92D-07
 IDIUse=1 WtCom= 1.00D+00 WtEn= 0.00D+00
 Coeff-Com:  0.227D-03-0.271D-03 0.772D-03 0.130D-02 0.803D-02 0.144D-01
 Coeff-Com: -0.420D-01-0.233D+00 0.171D+00 0.108D+01
 Coeff:      0.227D-03-0.271D-03 0.772D-03 0.130D-02 0.803D-02 0.144D-01
 Coeff:     -0.420D-01-0.233D+00 0.171D+00 0.108D+01
 Gap=     0.247 Goal=   None    Shift=    0.000
 RMSDP=2.90D-05 MaxDP=2.55D-03 DE=-2.83D-06 OVMax= 1.12D-03

 Cycle  11  Pass 1  IDiag  1:
 RMSU=  1.44D-05    CP:  5.36D-01  2.22D+00  2.01D+00  7.17D-01  5.42D-01
                    CP:  8.89D-01  1.19D+00  1.79D+00  1.46D+00  1.26D+00
 E= -3010.53388020829     Delta-E=       -0.000000827559 Rises=F Damp=F
 DIIS: error= 1.09D-05 at cycle  11 NSaved=  11.
 NSaved=11 IEnMin=11 EnMin= -3010.53388020829     IErMin=11 ErrMin= 1.09D-05
 ErrMax= 1.09D-05  0.00D+00 EMaxC= 1.00D-01 BMatC= 2.04D-08 BMatP= 1.76D-07
 IDIUse=1 WtCom= 1.00D+00 WtEn= 0.00D+00
 Coeff-Com: -0.393D-03 0.537D-03 0.227D-03 0.113D-02 0.437D-02 0.910D-02
 Coeff-Com: -0.173D-02-0.903D-01-0.469D-01 0.271D+00 0.853D+00
 Coeff:     -0.393D-03 0.537D-03 0.227D-03 0.113D-02 0.437D-02 0.910D-02
 Coeff:     -0.173D-02-0.903D-01-0.469D-01 0.271D+00 0.853D+00
 Gap=     0.247 Goal=   None    Shift=    0.000
 RMSDP=1.34D-05 MaxDP=1.34D-03 DE=-8.28D-07 OVMax= 2.93D-04

 Cycle  12  Pass 1  IDiag  1:
 RMSU=  2.79D-06    CP:  5.36D-01  2.22D+00  2.01D+00  7.16D-01  5.41D-01
                    CP:  8.90D-01  1.18D+00  1.84D+00  1.49D+00  1.40D+00
                    CP:  1.37D+00
 E= -3010.53388030781     Delta-E=       -0.000000099520 Rises=F Damp=F
 DIIS: error= 7.38D-06 at cycle  12 NSaved=  12.
 NSaved=12 IEnMin=12 EnMin= -3010.53388030781     IErMin=12 ErrMin= 7.38D-06
 ErrMax= 7.38D-06  0.00D+00 EMaxC= 1.00D-01 BMatC= 7.81D-09 BMatP= 2.04D-08
 IDIUse=1 WtCom= 1.00D+00 WtEn= 0.00D+00
 Coeff-Com: -0.133D-03 0.173D-03-0.789D-04 0.672D-04-0.109D-02-0.137D-02
 Coeff-Com:  0.141D-01 0.383D-01-0.843D-01-0.275D+00 0.413D+00 0.896D+00
 Coeff:     -0.133D-03 0.173D-03-0.789D-04 0.672D-04-0.109D-02-0.137D-02
 Coeff:      0.141D-01 0.383D-01-0.843D-01-0.275D+00 0.413D+00 0.896D+00
 Gap=     0.247 Goal=   None    Shift=    0.000
 RMSDP=7.84D-06 MaxDP=7.37D-04 DE=-9.95D-08 OVMax= 2.29D-04

 Cycle  13  Pass 1  IDiag  1:
 RMSU=  1.43D-06    CP:  5.36D-01  2.22D+00  2.01D+00  7.15D-01  5.40D-01
                    CP:  8.90D-01  1.18D+00  1.86D+00  1.52D+00  1.47D+00
                    CP:  1.70D+00  1.35D+00
 E= -3010.53388034541     Delta-E=       -0.000000037603 Rises=F Damp=F
 DIIS: error= 2.88D-06 at cycle  13 NSaved=  13.
 NSaved=13 IEnMin=13 EnMin= -3010.53388034541     IErMin=13 ErrMin= 2.88D-06
 ErrMax= 2.88D-06  0.00D+00 EMaxC= 1.00D-01 BMatC= 5.96D-10 BMatP= 7.81D-09
 IDIUse=1 WtCom= 1.00D+00 WtEn= 0.00D+00
 Coeff-Com:  0.131D-04-0.186D-04-0.320D-04-0.109D-03-0.608D-03-0.126D-02
 Coeff-Com:  0.359D-03 0.108D-01 0.490D-02-0.389D-01-0.922D-01 0.486D-01
 Coeff-Com:  0.107D+01
 Coeff:      0.131D-04-0.186D-04-0.320D-04-0.109D-03-0.608D-03-0.126D-02
 Coeff:      0.359D-03 0.108D-01 0.490D-02-0.389D-01-0.922D-01 0.486D-01
 Coeff:      0.107D+01
 Gap=     0.247 Goal=   None    Shift=    0.000
 RMSDP=1.61D-06 MaxDP=1.06D-04 DE=-3.76D-08 OVMax= 5.63D-05

 Cycle  14  Pass 1  IDiag  1:
 RMSU=  4.55D-07    CP:  5.36D-01  2.22D+00  2.01D+00  7.15D-01  5.40D-01
                    CP:  8.90D-01  1.18D+00  1.87D+00  1.52D+00  1.48D+00
                    CP:  1.76D+00  1.55D+00  1.55D+00
 E= -3010.53388034897     Delta-E=       -0.000000003559 Rises=F Damp=F
 DIIS: error= 1.19D-06 at cycle  14 NSaved=  14.
 NSaved=14 IEnMin=14 EnMin= -3010.53388034897     IErMin=14 ErrMin= 1.19D-06
 ErrMax= 1.19D-06  0.00D+00 EMaxC= 1.00D-01 BMatC= 1.81D-10 BMatP= 5.96D-10
 IDIUse=1 WtCom= 1.00D+00 WtEn= 0.00D+00
 Coeff-Com:  0.427D-05-0.515D-05-0.847D-05-0.466D-04 0.192D-04-0.139D-03
 Coeff-Com: -0.283D-02-0.365D-02 0.208D-01 0.436D-01-0.125D+00-0.173D+00
 Coeff-Com:  0.413D+00 0.827D+00
 Coeff:      0.427D-05-0.515D-05-0.847D-05-0.466D-04 0.192D-04-0.139D-03
 Coeff:     -0.283D-02-0.365D-02 0.208D-01 0.436D-01-0.125D+00-0.173D+00
 Coeff:      0.413D+00 0.827D+00
 Gap=     0.247 Goal=   None    Shift=    0.000
 RMSDP=6.79D-07 MaxDP=3.78D-05 DE=-3.56D-09 OVMax= 1.99D-05

 Cycle  15  Pass 1  IDiag  1:
 RMSU=  2.20D-07    CP:  5.36D-01  2.22D+00  2.01D+00  7.15D-01  5.40D-01
                    CP:  8.90D-01  1.18D+00  1.87D+00  1.52D+00  1.48D+00
                    CP:  1.77D+00  1.65D+00  1.80D+00  1.43D+00
 E= -3010.53388034966     Delta-E=       -0.000000000694 Rises=F Damp=F
 DIIS: error= 4.50D-07 at cycle  15 NSaved=  15.
 NSaved=15 IEnMin=15 EnMin= -3010.53388034966     IErMin=15 ErrMin= 4.50D-07
 ErrMax= 4.50D-07  0.00D+00 EMaxC= 1.00D-01 BMatC= 1.61D-11 BMatP= 1.81D-10
 IDIUse=1 WtCom= 1.00D+00 WtEn= 0.00D+00
 Coeff-Com: -0.109D-05 0.174D-05 0.337D-05 0.478D-05 0.532D-04 0.958D-04
 Coeff-Com: -0.606D-03-0.138D-02 0.240D-02 0.961D-02-0.483D-02-0.337D-01
 Coeff-Com: -0.940D-01 0.117D+00 0.101D+01
 Coeff:     -0.109D-05 0.174D-05 0.337D-05 0.478D-05 0.532D-04 0.958D-04
 Coeff:     -0.606D-03-0.138D-02 0.240D-02 0.961D-02-0.483D-02-0.337D-01
 Coeff:     -0.940D-01 0.117D+00 0.101D+01
 Gap=     0.247 Goal=   None    Shift=    0.000
 RMSDP=4.66D-07 MaxDP=4.67D-05 DE=-6.94D-10 OVMax= 7.85D-06

 Cycle  16  Pass 1  IDiag  1:
 RMSU=  8.81D-08    CP:  5.36D-01  2.22D+00  2.01D+00  7.15D-01  5.40D-01
                    CP:  8.90D-01  1.18D+00  1.87D+00  1.52D+00  1.48D+00
                    CP:  1.77D+00  1.69D+00  1.86D+00  1.57D+00  1.57D+00
 E= -3010.53388034980     Delta-E=       -0.000000000134 Rises=F Damp=F
 DIIS: error= 1.29D-07 at cycle  16 NSaved=  16.
 NSaved=16 IEnMin=16 EnMin= -3010.53388034980     IErMin=16 ErrMin= 1.29D-07
 ErrMax= 1.29D-07  0.00D+00 EMaxC= 1.00D-01 BMatC= 2.61D-12 BMatP= 1.61D-11
 IDIUse=1 WtCom= 1.00D+00 WtEn= 0.00D+00
 Coeff-Com: -0.983D-06 0.134D-05 0.230D-05 0.774D-05 0.828D-05 0.358D-04
 Coeff-Com:  0.135D-03 0.167D-03-0.166D-02-0.216D-02 0.136D-01 0.965D-02
 Coeff-Com: -0.643D-01-0.653D-01 0.228D+00 0.882D+00
 Coeff:     -0.983D-06 0.134D-05 0.230D-05 0.774D-05 0.828D-05 0.358D-04
 Coeff:      0.135D-03 0.167D-03-0.166D-02-0.216D-02 0.136D-01 0.965D-02
 Coeff:     -0.643D-01-0.653D-01 0.228D+00 0.882D+00
 Gap=     0.247 Goal=   None    Shift=    0.000
 RMSDP=8.88D-08 MaxDP=5.08D-06 DE=-1.34D-10 OVMax= 1.77D-06

 Cycle  17  Pass 1  IDiag  1:
 RMSU=  2.50D-08    CP:  5.36D-01  2.22D+00  2.01D+00  7.15D-01  5.40D-01
                    CP:  8.90D-01  1.18D+00  1.87D+00  1.52D+00  1.48D+00
                    CP:  1.78D+00  1.70D+00  1.86D+00  1.63D+00  1.81D+00
                    CP:  1.26D+00
 E= -3010.53388034979     Delta-E=        0.000000000010 Rises=F Damp=F
 DIIS: error= 4.77D-08 at cycle  17 NSaved=  17.
 NSaved=17 IEnMin=16 EnMin= -3010.53388034980     IErMin=17 ErrMin= 4.77D-08
 ErrMax= 4.77D-08  0.00D+00 EMaxC= 1.00D-01 BMatC= 4.27D-13 BMatP= 2.61D-12
 IDIUse=1 WtCom= 1.00D+00 WtEn= 0.00D+00
 Coeff-Com: -0.118D-05 0.155D-05 0.204D-06 0.275D-05-0.399D-05-0.533D-06
 Coeff-Com:  0.108D-03 0.240D-03-0.986D-03-0.201D-02 0.507D-02 0.649D-02
 Coeff-Com: -0.654D-02-0.370D-01-0.693D-01 0.249D+00 0.855D+00
 Coeff:     -0.118D-05 0.155D-05 0.204D-06 0.275D-05-0.399D-05-0.533D-06
 Coeff:      0.108D-03 0.240D-03-0.986D-03-0.201D-02 0.507D-02 0.649D-02
 Coeff:     -0.654D-02-0.370D-01-0.693D-01 0.249D+00 0.855D+00
 Gap=     0.247 Goal=   None    Shift=    0.000
 RMSDP=6.89D-08 MaxDP=6.31D-06 DE= 9.55D-12 OVMax= 9.68D-07

 Cycle  18  Pass 1  IDiag  1:
 RMSU=  9.91D-09    CP:  5.36D-01  2.22D+00  2.01D+00  7.15D-01  5.40D-01
                    CP:  8.90D-01  1.18D+00  1.87D+00  1.52D+00  1.48D+00
                    CP:  1.78D+00  1.70D+00  1.86D+00  1.63D+00  1.88D+00
                    CP:  1.41D+00  1.38D+00
 E= -3010.53388034975     Delta-E=        0.000000000035 Rises=F Damp=F
 DIIS: error= 1.56D-08 at cycle  18 NSaved=  18.
 NSaved=18 IEnMin=16 EnMin= -3010.53388034980     IErMin=18 ErrMin= 1.56D-08
 ErrMax= 1.56D-08  0.00D+00 EMaxC= 1.00D-01 BMatC= 1.13D-13 BMatP= 4.27D-13
 IDIUse=1 WtCom= 1.00D+00 WtEn= 0.00D+00
 Coeff-Com: -0.631D-06 0.841D-06-0.526D-06-0.536D-06-0.158D-05-0.597D-05
 Coeff-Com: -0.755D-05 0.397D-04 0.110D-03 0.104D-03-0.148D-02-0.906D-03
 Coeff-Com:  0.121D-01 0.532D-02-0.607D-01-0.154D+00 0.257D+00 0.943D+00
 Coeff:     -0.631D-06 0.841D-06-0.526D-06-0.536D-06-0.158D-05-0.597D-05
 Coeff:     -0.755D-05 0.397D-04 0.110D-03 0.104D-03-0.148D-02-0.906D-03
 Coeff:      0.121D-01 0.532D-02-0.607D-01-0.154D+00 0.257D+00 0.943D+00
 Gap=     0.247 Goal=   None    Shift=    0.000
 RMSDP=2.95D-08 MaxDP=3.20D-06 DE= 3.46D-11 OVMax= 6.61D-07

 Cycle  19  Pass 1  IDiag  1:
 RMSU=  7.59D-09    CP:  5.36D-01  2.22D+00  2.01D+00  7.15D-01  5.40D-01
                    CP:  8.90D-01  1.18D+00  1.87D+00  1.52D+00  1.48D+00
                    CP:  1.78D+00  1.70D+00  1.86D+00  1.62D+00  1.92D+00
                    CP:  1.50D+00  1.70D+00  1.33D+00
 E= -3010.53388034976     Delta-E=       -0.000000000012 Rises=F Damp=F
 DIIS: error= 8.04D-09 at cycle  19 NSaved=  19.
 NSaved=19 IEnMin=16 EnMin= -3010.53388034980     IErMin=19 ErrMin= 8.04D-09
 ErrMax= 8.04D-09  0.00D+00 EMaxC= 1.00D-01 BMatC= 1.26D-14 BMatP= 1.13D-13
 IDIUse=1 WtCom= 1.00D+00 WtEn= 0.00D+00
 Coeff-Com: -0.587D-07 0.809D-07-0.124D-06-0.350D-06 0.902D-07-0.173D-05
 Coeff-Com: -0.166D-04-0.343D-04 0.132D-03 0.289D-03-0.901D-03-0.933D-03
 Coeff-Com:  0.206D-02 0.559D-02 0.483D-02-0.604D-01-0.635D-01 0.438D-01
 Coeff-Com:  0.107D+01
 Coeff:     -0.587D-07 0.809D-07-0.124D-06-0.350D-06 0.902D-07-0.173D-05
 Coeff:     -0.166D-04-0.343D-04 0.132D-03 0.289D-03-0.901D-03-0.933D-03
 Coeff:      0.206D-02 0.559D-02 0.483D-02-0.604D-01-0.635D-01 0.438D-01
 Coeff:      0.107D+01
 Gap=     0.247 Goal=   None    Shift=    0.000
 RMSDP=1.38D-08 MaxDP=1.04D-06 DE=-1.18D-11 OVMax= 3.06D-07

 Cycle  20  Pass 1  IDiag  1:
 RMSU=  2.81D-09    CP:  5.36D-01  2.22D+00  2.01D+00  7.15D-01  5.40D-01
                    CP:  8.90D-01  1.18D+00  1.87D+00  1.52D+00  1.48D+00
                    CP:  1.78D+00  1.70D+00  1.86D+00  1.62D+00  1.91D+00
                    CP:  1.50D+00  1.83D+00  1.69D+00  1.57D+00
 E= -3010.53388034976     Delta-E=        0.000000000006 Rises=F Damp=F
 DIIS: error= 3.91D-09 at cycle  20 NSaved=  20.
 NSaved=20 IEnMin=16 EnMin= -3010.53388034980     IErMin=20 ErrMin= 3.91D-09
 ErrMax= 3.91D-09  0.00D+00 EMaxC= 1.00D-01 BMatC= 5.52D-15 BMatP= 1.26D-14
 IDIUse=1 WtCom= 1.00D+00 WtEn= 0.00D+00
 Large coefficients: NSaved= 20 BigCof=    0.00 CofMax=   10.00 Det=-9.87D-15
 Inversion failed.  Reducing to 19 matrices.
 Large coefficients: NSaved= 19 BigCof=    0.00 CofMax=   10.00 Det=-9.89D-15
 Inversion failed.  Reducing to 18 matrices.
 Large coefficients: NSaved= 18 BigCof=    0.00 CofMax=   10.00 Det=-9.93D-15
 Inversion failed.  Reducing to 17 matrices.
 Large coefficients: NSaved= 17 BigCof=    0.00 CofMax=   10.00 Det=-1.00D-14
 Inversion failed.  Reducing to 16 matrices.
 Coeff-Com:  0.658D-06 0.881D-06-0.508D-05-0.288D-04 0.472D-04 0.148D-03
 Coeff-Com: -0.155D-03-0.268D-03-0.223D-02 0.161D-02 0.201D-01 0.110D-01
 Coeff-Com: -0.914D-01-0.266D+00 0.454D+00 0.873D+00
 Coeff:      0.658D-06 0.881D-06-0.508D-05-0.288D-04 0.472D-04 0.148D-03
 Coeff:     -0.155D-03-0.268D-03-0.223D-02 0.161D-02 0.201D-01 0.110D-01
 Coeff:     -0.914D-01-0.266D+00 0.454D+00 0.873D+00
 Gap=     0.247 Goal=   None    Shift=    0.000
 RMSDP=1.07D-08 MaxDP=9.82D-07 DE= 5.91D-12 OVMax= 1.74D-07

 Cycle  21  Pass 1  IDiag  1:
 Restarting incremental Fock formation.
 E= -3010.53388034974     Delta-E=        0.000000000018 Rises=F Damp=F
 DIIS: error= 1.07D-09 at cycle  21 NSaved=  17.
 NSaved=17 IEnMin=12 EnMin= -3010.53388034980     IErMin=17 ErrMin= 1.07D-09
 ErrMax= 1.07D-09  0.00D+00 EMaxC= 1.00D-01 BMatC= 4.57D-16 BMatP= 5.52D-15
 IDIUse=1 WtCom= 1.00D+00 WtEn= 0.00D+00
 Large coefficients: NSaved= 17 BigCof=    0.00 CofMax=   10.00 Det=-1.46D-15
 Inversion failed.  Reducing to 16 matrices.
 Large coefficients: NSaved= 16 BigCof=    0.00 CofMax=   10.00 Det=-1.66D-15
 Inversion failed.  Reducing to 15 matrices.
 Coeff-Com:  0.112D-05-0.781D-07-0.467D-05-0.373D-05 0.486D-04 0.956D-04
 Coeff-Com: -0.536D-03-0.525D-03 0.188D-02 0.770D-02-0.150D-02-0.428D-01
 Coeff-Com: -0.872D-01 0.488D-01 0.107D+01
 Coeff:      0.112D-05-0.781D-07-0.467D-05-0.373D-05 0.486D-04 0.956D-04
 Coeff:     -0.536D-03-0.525D-03 0.188D-02 0.770D-02-0.150D-02-0.428D-01
 Coeff:     -0.872D-01 0.488D-01 0.107D+01
 Gap=     0.247 Goal=   None    Shift=    0.000
 RMSDP=5.90D-09 MaxDP=4.54D-07 DE= 1.77D-11 OVMax= 6.64D-08

 SCF Done:  E(RwB97XD) =  -3010.53388035     A.U. after   21 cycles
            NFock= 21  Conv=0.59D-08     -V/T= 2.0016
 KE= 3.005864423099D+03 PE=-8.701113896132D+03 EE= 1.910649663403D+03
 Leave Link  502 at Thu May  2 14:20:31 2024, MaxMem=   134217728 cpu:            1309.4 elap:            1309.9
 (Enter /software/gaussian/g16-c01/sse4/g16/l601.exe)
 Copying SCF densities to generalized density rwf, IOpCl= 0 IROHF=0.

 **********************************************************************

            Population analysis using the SCF Density.

 **********************************************************************

 Alpha  occ. eigenvalues -- -483.32574 -62.87613 -56.67287 -56.66742 -56.66738
 Alpha  occ. eigenvalues --  -19.46389 -19.46204 -14.85718 -10.59403 -10.59320
 Alpha  occ. eigenvalues --  -10.57955 -10.57051 -10.53167 -10.53141  -9.03431
 Alpha  occ. eigenvalues --   -6.86056  -6.84265  -6.84252  -2.95973  -2.95497
 Alpha  occ. eigenvalues --   -2.95485  -2.94052  -2.94051  -1.49979  -1.32936
 Alpha  occ. eigenvalues --   -1.22954  -1.13411  -1.12877  -1.05664  -1.00771
 Alpha  occ. eigenvalues --   -0.95795  -0.90889  -0.85251  -0.81125  -0.80544
 Alpha  occ. eigenvalues --   -0.80181  -0.78330  -0.76278  -0.75960  -0.72584
 Alpha  occ. eigenvalues --   -0.68879  -0.67709  -0.63777  -0.60686  -0.58061
 Alpha  occ. eigenvalues --   -0.57549  -0.56933  -0.55957  -0.55349
 Alpha virt. eigenvalues --   -0.30655  -0.20498  -0.16772  -0.13470  -0.11648
 Alpha virt. eigenvalues --   -0.08150  -0.07529  -0.06290  -0.04680  -0.03739
 Alpha virt. eigenvalues --   -0.03468  -0.02953  -0.02513  -0.02102  -0.01236
 Alpha virt. eigenvalues --   -0.00010   0.01003   0.01754   0.02442   0.02995
 Alpha virt. eigenvalues --    0.03626   0.04748   0.05170   0.05976   0.06408
 Alpha virt. eigenvalues --    0.06931   0.07459   0.08541   0.08913   0.09363
 Alpha virt. eigenvalues --    0.10424   0.11217   0.11285   0.11545   0.12743
 Alpha virt. eigenvalues --    0.13245   0.13361   0.14221   0.14557   0.16054
 Alpha virt. eigenvalues --    0.16502   0.18030   0.18174   0.18551   0.19121
 Alpha virt. eigenvalues --    0.20582   0.21831   0.22051   0.22661   0.24254
 Alpha virt. eigenvalues --    0.25046   0.26393   0.27157   0.28710   0.29963
 Alpha virt. eigenvalues --    0.30670   0.32945   0.33257   0.34806   0.36351
 Alpha virt. eigenvalues --    0.37080   0.37360   0.39457   0.40593   0.41124
 Alpha virt. eigenvalues --    0.43185   0.44092   0.45702   0.46740   0.47531
 Alpha virt. eigenvalues --    0.48313   0.49691   0.50441   0.51482   0.53807
 Alpha virt. eigenvalues --    0.54499   0.54926   0.57437   0.58534   0.59898
 Alpha virt. eigenvalues --    0.61308   0.61941   0.63658   0.66128   0.68141
 Alpha virt. eigenvalues --    0.71410   0.71740   0.72710   0.73402   0.74490
 Alpha virt. eigenvalues --    0.75063   0.78027   0.80025   0.82132   0.85137
 Alpha virt. eigenvalues --    0.86812   0.87426   0.91479   0.93966   0.98898
 Alpha virt. eigenvalues --    1.00048   1.02244   1.03876   1.05363   1.06834
 Alpha virt. eigenvalues --    1.08041   1.12573   1.13393   1.14216   1.18145
 Alpha virt. eigenvalues --    1.20438   1.22738   1.28016   1.32967   1.36147
 Alpha virt. eigenvalues --    1.36613   1.38729   1.42592   1.54409   1.56380
 Alpha virt. eigenvalues --    1.57341   1.59717   1.60943   1.63778   1.65369
 Alpha virt. eigenvalues --    1.67982   1.71248   1.73873   1.74987   1.79245
 Alpha virt. eigenvalues --    1.83391   1.85326   1.87586   1.93450   1.95172
 Alpha virt. eigenvalues --    1.97567   2.01759   2.02833   2.06892   2.08308
 Alpha virt. eigenvalues --    2.12319   2.14387   2.22175   2.23550   2.27648
 Alpha virt. eigenvalues --    2.33515   2.39375   2.41526   2.44047   2.53105
 Alpha virt. eigenvalues --    2.57620   2.63044   2.65935   2.68675   2.71639
 Alpha virt. eigenvalues --    2.73687   2.76286   2.77287   2.80511   2.81652
 Alpha virt. eigenvalues --    2.92813   2.97794   3.01219   3.05136   3.08850
 Alpha virt. eigenvalues --    3.14814   3.16300   3.17420   3.22369   3.26605
 Alpha virt. eigenvalues --    3.28073   3.37811   3.46609   3.50041   3.54709
 Alpha virt. eigenvalues --    3.57335   3.68836   3.74176   3.83403   3.87116
 Alpha virt. eigenvalues --    4.08532   4.09368   4.18086   4.22147   4.42015
 Alpha virt. eigenvalues --    4.45071   4.54339   4.59821   4.93596   4.96276
 Alpha virt. eigenvalues --    5.05389   5.09503   5.61947   6.15120   6.66544
 Alpha virt. eigenvalues --    7.47386   7.49721   7.59870  23.21933  23.61121
 Alpha virt. eigenvalues --   23.70896  23.77873  23.95437  24.02228  35.31445
 Alpha virt. eigenvalues --   47.92723  49.85166  49.93827 289.80384 289.82725
 Alpha virt. eigenvalues --  289.953601020.93933
          Condensed to atoms (all electrons):
               1          2          3          4          5          6
     1  C    7.518293  -1.789633   0.577725  -0.011078   0.295134   0.048054
     2  C   -1.789633  16.727598  -3.337327   0.403482  -0.010613   0.215030
     3  C    0.577725  -3.337327  19.922957  -1.312776   0.021345   0.090614
     4  C   -0.011078   0.403482  -1.312776   6.370568   0.015511  -0.011896
     5  H    0.295134  -0.010613   0.021345   0.015511   0.296036  -0.001142
     6  H    0.048054   0.215030   0.090614  -0.011896  -0.001142   0.282337
     7  H    0.038961  -0.026406   0.021934   0.305661  -0.002386   0.000003
     8  N   -0.088890  -0.179590  -1.950736   0.035736  -0.000304  -0.025446
     9  O    0.003785   0.269960   0.006661  -0.023512  -0.000026  -0.002155
    10  O    0.244262  -0.129726  -0.258951  -0.019284  -0.000026   0.018572
    11  C    0.717394  -0.616442   2.249142  -0.260865  -0.020422   0.006870
    12  H   -0.020663   0.020830   0.010429   0.035534   0.000031  -0.000018
    13  C   -1.440053  -5.496028  -9.774363   0.811111   0.022266  -0.006406
    14  H    0.004606   0.000100   0.020414  -0.004094  -0.000029   0.000057
    15  Br   0.017357  -0.246439  -0.228498  -0.025185   0.000044  -0.000451
               7          8          9         10         11         12
     1  C    0.038961  -0.088890   0.003785   0.244262   0.717394  -0.020663
     2  C   -0.026406  -0.179590   0.269960  -0.129726  -0.616442   0.020830
     3  C    0.021934  -1.950736   0.006661  -0.258951   2.249142   0.010429
     4  C    0.305661   0.035736  -0.023512  -0.019284  -0.260865   0.035534
     5  H   -0.002386  -0.000304  -0.000026  -0.000026  -0.020422   0.000031
     6  H    0.000003  -0.025446  -0.002155   0.018572   0.006870  -0.000018
     7  H    0.335596  -0.000025   0.000007  -0.000000   0.019103  -0.002673
     8  N   -0.000025   7.705928  -0.003734   0.229861  -0.380575   0.000098
     9  O    0.000007  -0.003734   7.981836   0.009908   0.294047   0.000176
    10  O   -0.000000   0.229861   0.009908   7.717321  -0.004852  -0.000032
    11  C    0.019103  -0.380575   0.294047  -0.004852   8.322031   0.288582
    12  H   -0.002673   0.000098   0.000176  -0.000032   0.288582   0.356405
    13  C   -0.022901   1.744231  -0.526057   0.064592  -4.453919  -0.005418
    14  H   -0.000019  -0.025150   0.011508  -0.001369   0.081870  -0.005501
    15  Br  -0.000399   0.175128  -0.057723   0.003885  -0.032928   0.001535
              13         14         15
     1  C   -1.440053   0.004606   0.017357
     2  C   -5.496028   0.000100  -0.246439
     3  C   -9.774363   0.020414  -0.228498
     4  C    0.811111  -0.004094  -0.025185
     5  H    0.022266  -0.000029   0.000044
     6  H   -0.006406   0.000057  -0.000451
     7  H   -0.022901  -0.000019  -0.000399
     8  N    1.744231  -0.025150   0.175128
     9  O   -0.526057   0.011508  -0.057723
    10  O    0.064592  -0.001369   0.003885
    11  C   -4.453919   0.081870  -0.032928
    12  H   -0.005418  -0.005501   0.001535
    13  C   24.671363   0.235813   0.527999
    14  H    0.235813   0.344614  -0.050280
    15  Br   0.527999  -0.050280  34.804023
 Mulliken charges:
               1
     1  C   -0.115254
     2  C    0.195202
     3  C   -0.058571
     4  C   -0.308913
     5  H    0.384580
     6  H    0.385976
     7  H    0.333546
     8  N   -0.236533
     9  O    0.035320
    10  O    0.125839
    11  C   -0.209035
    12  H    0.320683
    13  C   -0.352232
    14  H    0.387459
    15  Br   0.111931
 Sum of Mulliken charges =   1.00000
 Mulliken charges with hydrogens summed into heavy atoms:
               1
     1  C    0.269327
     2  C    0.581179
     3  C   -0.058571
     4  C    0.024633
     8  N   -0.236533
     9  O    0.035320
    10  O    0.125839
    11  C    0.111648
    13  C    0.035227
    15  Br   0.111931
 Electronic spatial extent (au):  <R**2>=           3948.2101
 Charge=              1.0000 electrons
 Dipole moment (field-independent basis, Debye):
    X=              2.6375    Y=              1.9420    Z=             -0.3678  Tot=              3.2959
 Quadrupole moment (field-independent basis, Debye-Ang):
   XX=            -67.9984   YY=            -52.7361   ZZ=            -63.2269
   XY=              2.9631   XZ=             -1.7261   YZ=              0.9533
 Traceless Quadrupole moment (field-independent basis, Debye-Ang):
   XX=             -6.6779   YY=              8.5844   ZZ=             -1.9065
   XY=              2.9631   XZ=             -1.7261   YZ=              0.9533
 Octapole moment (field-independent basis, Debye-Ang**2):
  XXX=           -512.6898  YYY=            109.4328  ZZZ=             86.0221  XYY=           -140.1072
  XXY=             46.0113  XXZ=             27.2734  XZZ=           -135.0767  YZZ=             22.3782
  YYZ=             30.1224  XYZ=              4.6931
 Hexadecapole moment (field-independent basis, Debye-Ang**3):
 XXXX=          -3441.7838 YYYY=           -722.8892 ZZZZ=           -404.5710 XXXY=            266.1508
 XXXZ=            187.1677 YYYX=            219.1110 YYYZ=           -186.4387 ZZZX=            174.4965
 ZZZY=           -154.3933 XXYY=           -631.8267 XXZZ=           -532.9047 YYZZ=           -182.4347
 XXYZ=            -49.3112 YYXZ=             59.2348 ZZXY=             40.2391
 N-N= 7.740659292800D+02 E-N=-8.701113896255D+03  KE= 3.005864423099D+03
 No NMR shielding tensors so no spin-rotation constants.
 Leave Link  601 at Thu May  2 14:20:38 2024, MaxMem=   134217728 cpu:               7.4 elap:               7.4
 (Enter /software/gaussian/g16-c01/sse4/g16/l9999.exe)
 Unable to Open any file for archive entry.
 1\1\GINC-BHX0011\SP\RwB97XD\6-311+G(d)\C6H5Br1N1O2(1+)\BWEIGHT\02-May-
 2024\0\\#P wB97XD/6-311+G* NoSymm #P Field=Y-97\\TitleMe\\1,1\C,0,0.51
 93,1.233,-0.0319\C,0,1.9445,1.2692,-0.0367\C,0,2.6204,0.0928,-0.025\C,
 0,-0.196,0.0301,0.001\H,0,-0.0207,2.1742,-0.0434\H,0,2.4828,2.2089,-0.
 0361\H,0,-1.2777,0.0399,0.0117\N,0,4.0921,0.0959,0.0366\O,0,4.6393,-1.
 0217,0.1446\O,0,4.6649,1.1984,-0.0233\C,0,0.4943,-1.1671,0.021\H,0,-0.
 0325,-2.1149,0.0545\C,0,1.9629,-1.2165,-0.0211\H,0,2.4436,-1.9631,0.61
 51\Br,0,2.173,-1.9491,-1.9062\\Version=ES64L-G16RevC.01\HF=-3010.53388
 03\RMSD=5.903e-09\Dipole=-3.2915405,1.9921815,1.104499\Quadrupole=-4.9
 648829,6.3822891,-1.4174062,2.2029647,-1.2833219,0.7087708\PG=C01 [X(C
 6H5Br1N1O2)]\\@
 The archive entry for this job was punched.


 A politician is a person who can make waves and then
 make you think he's the only one who can save the ship.
 -- Ivern Ball
 Job cpu time:       0 days  0 hours 22 minutes 59.0 seconds.
 Elapsed time:       0 days  0 hours 22 minutes 59.6 seconds.
 File lengths (MBytes):  RWF=     40 Int=      0 D2E=      0 Chk=     32 Scr=      1
 Normal termination of Gaussian 16 at Thu May  2 14:20:39 2024.
