 Entering Gaussian System, Link 0=g16
 Initial command:
 /software/gaussian/g16-c01/sse4/g16/l1.exe "/local_scratch/24665402/Gau-8815.inp" -scrdir="/local_scratch/24665402/"
 Entering Link 1 = /software/gaussian/g16-c01/sse4/g16/l1.exe PID=      8817.
  
 Copyright (c) 1988-2019, Gaussian, Inc.  All Rights Reserved.
  
 This is part of the Gaussian(R) 16 program.  It is based on
 the Gaussian(R) 09 system (copyright 2009, Gaussian, Inc.),
 the Gaussian(R) 03 system (copyright 2003, Gaussian, Inc.),
 the Gaussian(R) 98 system (copyright 1998, Gaussian, Inc.),
 the Gaussian(R) 94 system (copyright 1995, Gaussian, Inc.),
 the Gaussian 92(TM) system (copyright 1992, Gaussian, Inc.),
 the Gaussian 90(TM) system (copyright 1990, Gaussian, Inc.),
 the Gaussian 88(TM) system (copyright 1988, Gaussian, Inc.),
 the Gaussian 86(TM) system (copyright 1986, Carnegie Mellon
 University), and the Gaussian 82(TM) system (copyright 1983,
 Carnegie Mellon University). Gaussian is a federally registered
 trademark of Gaussian, Inc.
  
 This software contains proprietary and confidential information,
 including trade secrets, belonging to Gaussian, Inc.
  
 This software is provided under written license and may be
 used, copied, transmitted, or stored only in accord with that
 written license.
  
 The following legend is applicable only to US Government
 contracts under FAR:
  
                    RESTRICTED RIGHTS LEGEND
  
 Use, reproduction and disclosure by the US Government is
 subject to restrictions as set forth in subparagraphs (a)
 and (c) of the Commercial Computer Software - Restricted
 Rights clause in FAR 52.227-19.
  
 Gaussian, Inc.
 340 Quinnipiac St., Bldg. 40, Wallingford CT 06492
  
  
 ---------------------------------------------------------------
 Warning -- This program may not be used in any manner that
 competes with the business of Gaussian, Inc. or will provide
 assistance to any competitor of Gaussian, Inc.  The licensee
 of this program is prohibited from giving any competitor of
 Gaussian, Inc. access to this program.  By using this program,
 the user acknowledges that Gaussian, Inc. is engaged in the
 business of creating and licensing software in the field of
 computational chemistry and represents and warrants to the
 licensee that it is not a competitor of Gaussian, Inc. and that
 it will not use this program in any manner prohibited above.
 ---------------------------------------------------------------
  

 Cite this work as:
 Gaussian 16, Revision C.01,
 M. J. Frisch, G. W. Trucks, H. B. Schlegel, G. E. Scuseria, 
 M. A. Robb, J. R. Cheeseman, G. Scalmani, V. Barone, 
 G. A. Petersson, H. Nakatsuji, X. Li, M. Caricato, A. V. Marenich, 
 J. Bloino, B. G. Janesko, R. Gomperts, B. Mennucci, H. P. Hratchian, 
 J. V. Ortiz, A. F. Izmaylov, J. L. Sonnenberg, D. Williams-Young, 
 F. Ding, F. Lipparini, F. Egidi, J. Goings, B. Peng, A. Petrone, 
 T. Henderson, D. Ranasinghe, V. G. Zakrzewski, J. Gao, N. Rega, 
 G. Zheng, W. Liang, M. Hada, M. Ehara, K. Toyota, R. Fukuda, 
 J. Hasegawa, M. Ishida, T. Nakajima, Y. Honda, O. Kitao, H. Nakai, 
 T. Vreven, K. Throssell, J. A. Montgomery, Jr., J. E. Peralta, 
 F. Ogliaro, M. J. Bearpark, J. J. Heyd, E. N. Brothers, K. N. Kudin, 
 V. N. Staroverov, T. A. Keith, R. Kobayashi, J. Normand, 
 K. Raghavachari, A. P. Rendell, J. C. Burant, S. S. Iyengar, 
 J. Tomasi, M. Cossi, J. M. Millam, M. Klene, C. Adamo, R. Cammi, 
 J. W. Ochterski, R. L. Martin, K. Morokuma, O. Farkas, 
 J. B. Foresman, and D. J. Fox, Gaussian, Inc., Wallingford CT, 2019.
 
 ******************************************
 Gaussian 16:  ES64L-G16RevC.01  3-Jul-2019
                 2-May-2024 
 ******************************************
 %chk=geometry.chk
 %mem=1GB
 %nprocshared=12
 Will use up to   12 processors via shared memory.
 ----------------------------------------
 #P wB97XD/6-311+G* NoSymm #P Field=Z+184
 ----------------------------------------
 1/38=1,172=1/1;
 2/12=2,15=1,17=6,18=5,40=1/2;
 3/5=4,6=6,7=11,11=2,14=3,15=184,25=1,30=1,74=-58/1,2,3;
 4//1;
 5/5=2,38=5/2;
 6/7=2,8=2,9=2,10=2,28=1/1;
 99/5=1,9=1/99;
 Leave Link    1 at Thu May  2 13:58:19 2024, MaxMem=   134217728 cpu:               1.9 elap:               1.9
 (Enter /software/gaussian/g16-c01/sse4/g16/l101.exe)
 -------
 TitleMe
 -------
 Symbolic Z-matrix:
 Charge =  1 Multiplicity = 1
 C                     0.5193    1.233    -0.0319 
 C                     1.9445    1.2692   -0.0367 
 C                     2.6204    0.0928   -0.025 
 C                    -0.196     0.0301    0.001 
 H                    -0.0207    2.1742   -0.0434 
 H                     2.4828    2.2089   -0.0361 
 H                    -1.2777    0.0399    0.0117 
 N                     4.0921    0.0959    0.0366 
 O                     4.6393   -1.0217    0.1446 
 O                     4.6649    1.1984   -0.0233 
 C                     0.4943   -1.1671    0.021 
 H                    -0.0325   -2.1149    0.0545 
 C                     1.9629   -1.2165   -0.0211 
 H                     2.4436   -1.9631    0.6151 
 Br                    2.173    -1.9491   -1.9062 
 
 ITRead=  0  0  0  0  0  0  0  0  0  0  0  0  0  0  0
 MicOpt= -1 -1 -1 -1 -1 -1 -1 -1 -1 -1 -1 -1 -1 -1 -1
 NAtoms=     15 NQM=       15 NQMF=       0 NMMI=      0 NMMIF=      0
                NMic=       0 NMicF=      0.
                    Isotopes and Nuclear Properties:
 (Nuclear quadrupole moments (NQMom) in fm**2, nuclear magnetic moments (NMagM)
  in nuclear magnetons)

  Atom         1           2           3           4           5           6           7           8           9          10
 IAtWgt=          12          12          12          12           1           1           1          14          16          16
 AtmWgt=  12.0000000  12.0000000  12.0000000  12.0000000   1.0078250   1.0078250   1.0078250  14.0030740  15.9949146  15.9949146
 NucSpn=           0           0           0           0           1           1           1           2           0           0
 AtZEff=  -0.0000000  -0.0000000  -0.0000000  -0.0000000  -0.0000000  -0.0000000  -0.0000000  -0.0000000  -0.0000000  -0.0000000
 NQMom=    0.0000000   0.0000000   0.0000000   0.0000000   0.0000000   0.0000000   0.0000000   2.0440000   0.0000000   0.0000000
 NMagM=    0.0000000   0.0000000   0.0000000   0.0000000   2.7928460   2.7928460   2.7928460   0.4037610   0.0000000   0.0000000
 AtZNuc=   6.0000000   6.0000000   6.0000000   6.0000000   1.0000000   1.0000000   1.0000000   7.0000000   8.0000000   8.0000000

  Atom        11          12          13          14          15
 IAtWgt=          12           1          12           1          79
 AtmWgt=  12.0000000   1.0078250  12.0000000   1.0078250  78.9183361
 NucSpn=           0           1           0           1           3
 AtZEff=  -0.0000000  -0.0000000  -0.0000000  -0.0000000  -0.0000000
 NQMom=    0.0000000   0.0000000   0.0000000   0.0000000  31.3000000
 NMagM=    0.0000000   2.7928460   0.0000000   2.7928460   2.1063990
 AtZNuc=   6.0000000   1.0000000   6.0000000   1.0000000  35.0000000
 Leave Link  101 at Thu May  2 13:58:22 2024, MaxMem=   134217728 cpu:               1.7 elap:               2.8
 (Enter /software/gaussian/g16-c01/sse4/g16/l202.exe)
                          Input orientation:                          
 ---------------------------------------------------------------------
 Center     Atomic      Atomic             Coordinates (Angstroms)
 Number     Number       Type             X           Y           Z
 ---------------------------------------------------------------------
      1          6           0        0.519300    1.233000   -0.031900
      2          6           0        1.944500    1.269200   -0.036700
      3          6           0        2.620400    0.092800   -0.025000
      4          6           0       -0.196000    0.030100    0.001000
      5          1           0       -0.020700    2.174200   -0.043400
      6          1           0        2.482800    2.208900   -0.036100
      7          1           0       -1.277700    0.039900    0.011700
      8          7           0        4.092100    0.095900    0.036600
      9          8           0        4.639300   -1.021700    0.144600
     10          8           0        4.664900    1.198400   -0.023300
     11          6           0        0.494300   -1.167100    0.021000
     12          1           0       -0.032500   -2.114900    0.054500
     13          6           0        1.962900   -1.216500   -0.021100
     14          1           0        2.443600   -1.963100    0.615100
     15         35           0        2.173000   -1.949100   -1.906200
 ---------------------------------------------------------------------
                    Distance matrix (angstroms):
                    1          2          3          4          5
     1  C    0.000000
     2  C    1.425668   0.000000
     3  C    2.390549   1.356796   0.000000
     4  C    1.399895   2.473566   2.817218   0.000000
     5  H    1.085168   2.163581   3.362733   2.151712   0.000000
     6  H    2.192654   1.082960   2.120598   3.453189   2.503751
     7  H    2.157452   3.449071   3.898632   1.081797   2.477564
     8  N    3.750012   2.448304   1.472992   4.288753   4.608780
     9  O    4.699917   3.541615   2.312322   4.950458   5.653735
    10  O    4.145753   2.721354   2.324292   4.999386   4.786171
    11  C    2.400813   2.835836   2.471794   1.382101   3.381369
    12  H    3.394169   3.920329   3.452266   2.151887   4.290233
    13  C    2.843264   2.485817   1.465124   2.493060   3.928360
    14  H    3.786370   3.334922   2.160489   3.364142   4.860416
    15  Br   4.046416   3.728900   2.812194   3.628609   5.028314
                    6          7          8          9         10
     6  H    0.000000
     7  H    4.341452   0.000000
     8  N    2.657047   5.370150   0.000000
     9  O    3.888434   6.012948   1.249048   0.000000
    10  O    2.404752   6.054572   1.243863   2.226587   0.000000
    11  C    3.918516   2.144043   3.813080   4.149391   4.794941
    12  H    5.003018   2.489080   4.679774   4.798846   5.748876
    13  C    3.464662   3.475788   2.501842   2.688591   3.623886
    14  H    4.222698   4.268978   2.700314   2.434893   3.916224
    15  Br   4.569706   4.420610   3.411663   3.338935   4.434144
                   11         12         13         14         15
    11  C    0.000000
    12  H    1.084880   0.000000
    13  C    1.470034   2.189625   0.000000
    14  H    2.187771   2.543302   1.092353   0.000000
    15  Br   2.672762   2.955683   2.033334   2.535818   0.000000
 Symmetry turned off by external request.
 Stoichiometry    C6H5BrNO2(1+)
 Framework group  C1[X(C6H5BrNO2)]
 Deg. of freedom    39
 Full point group                 C1      NOp   1
 Rotational constants (GHZ):           1.1632986           0.9594224           0.5957624
 Leave Link  202 at Thu May  2 13:58:23 2024, MaxMem=   134217728 cpu:               1.2 elap:               1.2
 (Enter /software/gaussian/g16-c01/sse4/g16/l301.exe)
 Standard basis: 6-311+G(d) (5D, 7F)
 Ernie: Thresh=  0.10000D-02 Tol=  0.10000D-05 Strict=F.
 The following finite field(s) will be applied:
 An electric field of              0.0000  0.0000  0.0184
   261 basis functions,   443 primitive gaussians,   273 cartesian basis functions
    49 alpha electrons       49 beta electrons
       nuclear repulsion energy       772.8945969580 Hartrees.
 IExCor= 4639 DFT=T Ex+Corr=wB97XD ExCW=0 ScaHFX=  1.000000
 ScaDFX=  1.000000  1.000000  1.000000  1.000000 ScalE2=  1.000000  1.000000
 IRadAn=      5 IRanWt=     -1 IRanGd=            0 ICorTp=0 IEmpDi=121
 HFx  wShort=  0.000000 wLong=  0.200000 cFull=  0.222036 cShort=  0.000000 cLong=  0.777964
 DFx  wShort=  0.000000 wLong=  0.200000 cFull=  0.000000 cShort=  0.000000 cLong=  1.000000
 NAtoms=   15 NActive=   15 NUniq=   15 SFac= 1.00D+00 NAtFMM=   60 NAOKFM=F Big=F
 Integral buffers will be    131072 words long.
 Raffenetti 2 integral format.
 Two-electron integral symmetry is turned off.
 R6Disp:  Grimme-D2 Dispersion energy=       -0.0080346408 Hartrees.
 Nuclear repulsion after empirical dispersion term =      772.8865623173 Hartrees.
 Leave Link  301 at Thu May  2 13:58:24 2024, MaxMem=   134217728 cpu:               1.0 elap:               1.0
 (Enter /software/gaussian/g16-c01/sse4/g16/l302.exe)
 NPDir=0 NMtPBC=     1 NCelOv=     1 NCel=       1 NClECP=     1 NCelD=      1
         NCelK=      1 NCelE2=     1 NClLst=     1 CellRange=     0.0.
 One-electron integrals computed using PRISM.
 NBasis=   261 RedAO= T EigKep=  2.52D-06  NBF=   261
 NBsUse=   261 1.00D-06 EigRej= -1.00D+00 NBFU=   261
 Precomputing XC quadrature grid using
 IXCGrd= 4 IRadAn=           5 IRanWt=          -1 IRanGd=           0 AccXCQ= 0.00D+00.
 Generated NRdTot=       0 NPtTot=           0 NUsed=           0 NTot=          32
 NSgBfM=   273   273   273   273   273 MxSgAt=    15 MxSgA2=    15.
 Leave Link  302 at Thu May  2 13:58:46 2024, MaxMem=   134217728 cpu:              21.7 elap:              21.7
 (Enter /software/gaussian/g16-c01/sse4/g16/l303.exe)
 DipDrv:  MaxL=1.
 The nuclear repulsion energy is now       770.6109837490 hartrees.
 Leave Link  303 at Thu May  2 13:58:49 2024, MaxMem=   134217728 cpu:               3.3 elap:               3.3
 (Enter /software/gaussian/g16-c01/sse4/g16/l401.exe)
 ExpMin= 3.50D-02 ExpMax= 4.40D+05 ExpMxC= 1.51D+04 IAcc=3 IRadAn=         5 AccDes= 0.00D+00
 Harris functional with IExCor= 4639 and IRadAn=       5 diagonalized for initial guess.
 HarFok:  IExCor= 4639 AccDes= 0.00D+00 IRadAn=         5 IDoV= 1 UseB2=F ITyADJ=14
 ICtDFT=  3500011 ScaDFX=  1.000000  1.000000  1.000000  1.000000
 FoFCou: FMM=F IPFlag=           0 FMFlag=      100000 FMFlg1=           0
         NFxFlg=           0 DoJE=T BraDBF=F KetDBF=T FulRan=T
         wScrn=  0.000000 ICntrl=       500 IOpCl=  0 I1Cent=   200000004 NGrid=           0
         NMat0=    1 NMatS0=      1 NMatT0=    0 NMatD0=    1 NMtDS0=    0 NMtDT0=    0
 Symmetry not used in FoFCou.
 Harris En= -2970.62926532399    
 JPrj=0 DoOrth=F DoCkMO=F.
 Leave Link  401 at Thu May  2 13:59:20 2024, MaxMem=   134217728 cpu:              31.1 elap:              31.1
 (Enter /software/gaussian/g16-c01/sse4/g16/l502.exe)
 Two-electron integral symmetry not used.
 Closed shell SCF:
 Using DIIS extrapolation, IDIIS=  1040.
 NGot=   134217728 LenX=   134063053 LenY=   133988083
 Requested convergence on RMS density matrix=1.00D-08 within 128 cycles.
 Requested convergence on MAX density matrix=1.00D-06.
 Requested convergence on             energy=1.00D-06.
 No special actions if energy rises.
 Fock matrices will be formed incrementally for  20 cycles.

 Cycle   1  Pass 1  IDiag  1:
 FoFJK:  IHMeth= 1 ICntrl=       0 DoSepK=T KAlg= 0 I1Cent=           0 FoldK=F
 IRaf=         1 NMat=       1 IRICut=       1 DoRegI=T DoRafI=F ISym2E= 0 IDoP0=0 IntGTp=1.
 FoFCou: FMM=F IPFlag=           0 FMFlag=      100000 FMFlg1=           0
         NFxFlg=           0 DoJE=T BraDBF=F KetDBF=F FulRan=T
         wScrn=  0.000000 ICntrl=       500 IOpCl=  0 I1Cent=           0 NGrid=           0
         NMat0=    1 NMatS0=      1 NMatT0=    0 NMatD0=    1 NMtDS0=    0 NMtDT0=    0
 Symmetry not used in FoFCou.
 E= -3009.65824862087    
 DIIS: error= 2.91D-01 at cycle   1 NSaved=   1.
 NSaved= 1 IEnMin= 1 EnMin= -3009.65824862087     IErMin= 1 ErrMin= 2.91D-01
 ErrMax= 2.91D-01  0.00D+00 EMaxC= 1.00D-01 BMatC= 1.21D+01 BMatP= 1.21D+01
 IDIUse=3 WtCom= 0.00D+00 WtEn= 1.00D+00
 Coeff-Com:  0.100D+01
 Coeff-En:   0.100D+01
 Coeff:      0.100D+01
 Gap=     0.312 Goal=   None    Shift=    0.000
 GapD=    0.312 DampG=1.000 DampE=0.250 DampFc=0.2500 IDamp=-1.
 Damping current iteration by 2.50D-01
 RMSDP=1.75D-01 MaxDP=2.10D+01              OVMax= 2.61D-01

 Cycle   2  Pass 1  IDiag  1:
 RMSU=  9.19D-03    CP:  8.32D-01
 E= -3009.97295881454     Delta-E=       -0.314710193665 Rises=F Damp=T
 DIIS: error= 2.19D-01 at cycle   2 NSaved=   2.
 NSaved= 2 IEnMin= 2 EnMin= -3009.97295881454     IErMin= 2 ErrMin= 2.19D-01
 ErrMax= 2.19D-01  0.00D+00 EMaxC= 1.00D-01 BMatC= 5.46D+00 BMatP= 1.21D+01
 IDIUse=3 WtCom= 0.00D+00 WtEn= 1.00D+00
 Coeff-Com: -0.179D+01 0.279D+01
 Coeff-En:   0.000D+00 0.100D+01
 Coeff:      0.000D+00 0.100D+01
 Gap=     0.265 Goal=   None    Shift=    0.000
 RMSDP=1.24D-01 MaxDP=1.54D+01 DE=-3.15D-01 OVMax= 8.35D-02

 Cycle   3  Pass 1  IDiag  1:
 RMSU=  5.75D-03    CP:  3.51D-01  3.00D+00
 E= -3010.37131711695     Delta-E=       -0.398358302407 Rises=F Damp=F
 DIIS: error= 6.71D-02 at cycle   3 NSaved=   3.
 NSaved= 3 IEnMin= 3 EnMin= -3010.37131711695     IErMin= 3 ErrMin= 6.71D-02
 ErrMax= 6.71D-02  0.00D+00 EMaxC= 1.00D-01 BMatC= 7.84D-01 BMatP= 5.46D+00
 IDIUse=3 WtCom= 3.29D-01 WtEn= 6.71D-01
 Coeff-Com:  0.253D+01-0.331D+01 0.178D+01
 Coeff-En:   0.663D-01 0.000D+00 0.934D+00
 Coeff:      0.875D+00-0.109D+01 0.121D+01
 Gap=     0.277 Goal=   None    Shift=    0.000
 RMSDP=2.44D-02 MaxDP=2.81D+00 DE=-3.98D-01 OVMax= 1.18D-01

 Cycle   4  Pass 1  IDiag  1:
 RMSU=  7.33D-03    CP:  4.39D-01  2.64D+00  1.62D+00
 E= -3010.50093629300     Delta-E=       -0.129619176052 Rises=F Damp=F
 DIIS: error= 3.62D-02 at cycle   4 NSaved=   4.
 NSaved= 4 IEnMin= 4 EnMin= -3010.50093629300     IErMin= 4 ErrMin= 3.62D-02
 ErrMax= 3.62D-02  0.00D+00 EMaxC= 1.00D-01 BMatC= 2.12D-01 BMatP= 7.84D-01
 IDIUse=3 WtCom= 6.38D-01 WtEn= 3.62D-01
 Coeff-Com: -0.177D+00 0.249D+00 0.254D+00 0.673D+00
 Coeff-En:   0.000D+00 0.000D+00 0.175D+00 0.825D+00
 Coeff:     -0.113D+00 0.159D+00 0.226D+00 0.728D+00
 Gap=     0.244 Goal=   None    Shift=    0.000
 RMSDP=1.58D-02 MaxDP=2.18D+00 DE=-1.30D-01 OVMax= 4.45D-02

 Cycle   5  Pass 1  IDiag  1:
 RMSU=  2.95D-03    CP:  3.79D-01  2.80D+00  1.50D+00  6.80D-01
 E= -3010.54635881828     Delta-E=       -0.045422525285 Rises=F Damp=F
 DIIS: error= 6.76D-03 at cycle   5 NSaved=   5.
 NSaved= 5 IEnMin= 5 EnMin= -3010.54635881828     IErMin= 5 ErrMin= 6.76D-03
 ErrMax= 6.76D-03  0.00D+00 EMaxC= 1.00D-01 BMatC= 8.95D-03 BMatP= 2.12D-01
 IDIUse=3 WtCom= 9.32D-01 WtEn= 6.76D-02
 Coeff-Com: -0.173D+00 0.235D+00 0.543D-01 0.396D+00 0.488D+00
 Coeff-En:   0.000D+00 0.000D+00 0.000D+00 0.000D+00 0.100D+01
 Coeff:     -0.161D+00 0.220D+00 0.506D-01 0.369D+00 0.522D+00
 Gap=     0.230 Goal=   None    Shift=    0.000
 RMSDP=3.23D-03 MaxDP=4.32D-01 DE=-4.54D-02 OVMax= 2.13D-02

 Cycle   6  Pass 1  IDiag  1:
 RMSU=  6.31D-04    CP:  3.91D-01  2.78D+00  1.55D+00  7.69D-01  7.76D-01
 E= -3010.54890524630     Delta-E=       -0.002546428017 Rises=F Damp=F
 DIIS: error= 2.60D-03 at cycle   6 NSaved=   6.
 NSaved= 6 IEnMin= 6 EnMin= -3010.54890524630     IErMin= 6 ErrMin= 2.60D-03
 ErrMax= 2.60D-03  0.00D+00 EMaxC= 1.00D-01 BMatC= 5.32D-04 BMatP= 8.95D-03
 IDIUse=3 WtCom= 9.74D-01 WtEn= 2.60D-02
 Coeff-Com: -0.118D+00 0.159D+00-0.684D-02 0.189D+00 0.346D+00 0.431D+00
 Coeff-En:   0.000D+00 0.000D+00 0.000D+00 0.000D+00 0.419D-01 0.958D+00
 Coeff:     -0.115D+00 0.155D+00-0.666D-02 0.184D+00 0.338D+00 0.444D+00
 Gap=     0.230 Goal=   None    Shift=    0.000
 RMSDP=1.05D-03 MaxDP=1.35D-01 DE=-2.55D-03 OVMax= 8.83D-03

 Cycle   7  Pass 1  IDiag  1:
 RMSU=  2.98D-04    CP:  3.87D-01  2.79D+00  1.55D+00  7.59D-01  9.10D-01
                    CP:  8.58D-01
 E= -3010.54930550660     Delta-E=       -0.000400260300 Rises=F Damp=F
 DIIS: error= 4.37D-04 at cycle   7 NSaved=   7.
 NSaved= 7 IEnMin= 7 EnMin= -3010.54930550660     IErMin= 7 ErrMin= 4.37D-04
 ErrMax= 4.37D-04  0.00D+00 EMaxC= 1.00D-01 BMatC= 2.51D-05 BMatP= 5.32D-04
 IDIUse=3 WtCom= 9.96D-01 WtEn= 4.37D-03
 Coeff-Com: -0.404D-01 0.539D-01-0.146D-01 0.372D-01 0.746D-01 0.184D+00
 Coeff-Com:  0.705D+00
 Coeff-En:   0.000D+00 0.000D+00 0.000D+00 0.000D+00 0.000D+00 0.000D+00
 Coeff-En:   0.100D+01
 Coeff:     -0.402D-01 0.536D-01-0.146D-01 0.371D-01 0.743D-01 0.184D+00
 Coeff:      0.706D+00
 Gap=     0.231 Goal=   None    Shift=    0.000
 RMSDP=3.59D-04 MaxDP=4.94D-02 DE=-4.00D-04 OVMax= 3.48D-03

 Cycle   8  Pass 1  IDiag  1:
 RMSU=  1.04D-04    CP:  3.86D-01  2.79D+00  1.56D+00  7.61D-01  9.49D-01
                    CP:  8.86D-01  1.13D+00
 E= -3010.54934738401     Delta-E=       -0.000041877408 Rises=F Damp=F
 DIIS: error= 1.75D-04 at cycle   8 NSaved=   8.
 NSaved= 8 IEnMin= 8 EnMin= -3010.54934738401     IErMin= 8 ErrMin= 1.75D-04
 ErrMax= 1.75D-04  0.00D+00 EMaxC= 1.00D-01 BMatC= 5.28D-06 BMatP= 2.51D-05
 IDIUse=3 WtCom= 9.98D-01 WtEn= 1.75D-03
 Coeff-Com:  0.555D-02-0.774D-02-0.506D-02-0.203D-01-0.446D-01-0.397D-01
 Coeff-Com:  0.242D+00 0.870D+00
 Coeff-En:   0.000D+00 0.000D+00 0.000D+00 0.000D+00 0.000D+00 0.000D+00
 Coeff-En:   0.000D+00 0.100D+01
 Coeff:      0.554D-02-0.773D-02-0.506D-02-0.202D-01-0.445D-01-0.397D-01
 Coeff:      0.241D+00 0.870D+00
 Gap=     0.231 Goal=   None    Shift=    0.000
 RMSDP=1.59D-04 MaxDP=1.57D-02 DE=-4.19D-05 OVMax= 2.76D-03

 Cycle   9  Pass 1  IDiag  1:
 RMSU=  4.03D-05    CP:  3.86D-01  2.80D+00  1.56D+00  7.64D-01  9.79D-01
                    CP:  9.49D-01  1.46D+00  1.38D+00
 E= -3010.54936652688     Delta-E=       -0.000019142869 Rises=F Damp=F
 DIIS: error= 4.38D-05 at cycle   9 NSaved=   9.
 NSaved= 9 IEnMin= 9 EnMin= -3010.54936652688     IErMin= 9 ErrMin= 4.38D-05
 ErrMax= 4.38D-05  0.00D+00 EMaxC= 1.00D-01 BMatC= 7.33D-07 BMatP= 5.28D-06
 IDIUse=1 WtCom= 1.00D+00 WtEn= 0.00D+00
 Coeff-Com:  0.795D-02-0.106D-01 0.162D-02-0.110D-01-0.228D-01-0.448D-01
 Coeff-Com: -0.114D+00 0.126D+00 0.107D+01
 Coeff:      0.795D-02-0.106D-01 0.162D-02-0.110D-01-0.228D-01-0.448D-01
 Coeff:     -0.114D+00 0.126D+00 0.107D+01
 Gap=     0.231 Goal=   None    Shift=    0.000
 RMSDP=1.42D-04 MaxDP=1.64D-02 DE=-1.91D-05 OVMax= 2.45D-03

 Cycle  10  Pass 1  IDiag  1:
 RMSU=  4.05D-05    CP:  3.85D-01  2.80D+00  1.57D+00  7.62D-01  1.00D+00
                    CP:  9.63D-01  1.62D+00  1.74D+00  1.61D+00
 E= -3010.54937356176     Delta-E=       -0.000007034881 Rises=F Damp=F
 DIIS: error= 2.06D-05 at cycle  10 NSaved=  10.
 NSaved=10 IEnMin=10 EnMin= -3010.54937356176     IErMin=10 ErrMin= 2.06D-05
 ErrMax= 2.06D-05  0.00D+00 EMaxC= 1.00D-01 BMatC= 2.33D-07 BMatP= 7.33D-07
 IDIUse=1 WtCom= 1.00D+00 WtEn= 0.00D+00
 Coeff-Com: -0.140D-02 0.195D-02 0.708D-03 0.294D-02 0.697D-02 0.659D-02
 Coeff-Com: -0.605D-01-0.162D+00 0.215D+00 0.990D+00
 Coeff:     -0.140D-02 0.195D-02 0.708D-03 0.294D-02 0.697D-02 0.659D-02
 Coeff:     -0.605D-01-0.162D+00 0.215D+00 0.990D+00
 Gap=     0.231 Goal=   None    Shift=    0.000
 RMSDP=4.90D-05 MaxDP=2.94D-03 DE=-7.03D-06 OVMax= 1.25D-03

 Cycle  11  Pass 1  IDiag  1:
 RMSU=  1.35D-05    CP:  3.85D-01  2.79D+00  1.57D+00  7.61D-01  1.01D+00
                    CP:  9.68D-01  1.65D+00  1.86D+00  2.06D+00  1.60D+00
 E= -3010.54937533834     Delta-E=       -0.000001776582 Rises=F Damp=F
 DIIS: error= 1.30D-05 at cycle  11 NSaved=  11.
 NSaved=11 IEnMin=11 EnMin= -3010.54937533834     IErMin=11 ErrMin= 1.30D-05
 ErrMax= 1.30D-05  0.00D+00 EMaxC= 1.00D-01 BMatC= 5.68D-08 BMatP= 2.33D-07
 IDIUse=1 WtCom= 1.00D+00 WtEn= 0.00D+00
 Coeff-Com: -0.155D-02 0.208D-02-0.115D-03 0.283D-02 0.562D-02 0.107D-01
 Coeff-Com:  0.337D-01-0.473D-01-0.329D+00 0.133D+00 0.119D+01
 Coeff:     -0.155D-02 0.208D-02-0.115D-03 0.283D-02 0.562D-02 0.107D-01
 Coeff:      0.337D-01-0.473D-01-0.329D+00 0.133D+00 0.119D+01
 Gap=     0.231 Goal=   None    Shift=    0.000
 RMSDP=4.01D-05 MaxDP=2.39D-03 DE=-1.78D-06 OVMax= 9.37D-04

 Cycle  12  Pass 1  IDiag  1:
 RMSU=  5.52D-06    CP:  3.86D-01  2.79D+00  1.57D+00  7.59D-01  1.01D+00
                    CP:  9.71D-01  1.68D+00  1.94D+00  2.36D+00  2.18D+00
                    CP:  1.49D+00
 E= -3010.54937591300     Delta-E=       -0.000000574661 Rises=F Damp=F
 DIIS: error= 6.40D-06 at cycle  12 NSaved=  12.
 NSaved=12 IEnMin=12 EnMin= -3010.54937591300     IErMin=12 ErrMin= 6.40D-06
 ErrMax= 6.40D-06  0.00D+00 EMaxC= 1.00D-01 BMatC= 1.53D-08 BMatP= 5.68D-08
 IDIUse=1 WtCom= 1.00D+00 WtEn= 0.00D+00
 Coeff-Com: -0.522D-03 0.688D-03-0.149D-03 0.908D-03 0.117D-02 0.305D-02
 Coeff-Com:  0.264D-01 0.315D-03-0.192D+00-0.840D-01 0.542D+00 0.702D+00
 Coeff:     -0.522D-03 0.688D-03-0.149D-03 0.908D-03 0.117D-02 0.305D-02
 Coeff:      0.264D-01 0.315D-03-0.192D+00-0.840D-01 0.542D+00 0.702D+00
 Gap=     0.231 Goal=   None    Shift=    0.000
 RMSDP=1.59D-05 MaxDP=1.27D-03 DE=-5.75D-07 OVMax= 2.76D-04

 Cycle  13  Pass 1  IDiag  1:
 RMSU=  2.15D-06    CP:  3.86D-01  2.79D+00  1.57D+00  7.59D-01  1.01D+00
                    CP:  9.75D-01  1.69D+00  1.95D+00  2.44D+00  2.32D+00
                    CP:  1.65D+00  1.42D+00
 E= -3010.54937596855     Delta-E=       -0.000000055550 Rises=F Damp=F
 DIIS: error= 2.51D-06 at cycle  13 NSaved=  13.
 NSaved=13 IEnMin=13 EnMin= -3010.54937596855     IErMin=13 ErrMin= 2.51D-06
 ErrMax= 2.51D-06  0.00D+00 EMaxC= 1.00D-01 BMatC= 2.07D-09 BMatP= 1.53D-08
 IDIUse=1 WtCom= 1.00D+00 WtEn= 0.00D+00
 Coeff-Com:  0.317D-04-0.426D-04-0.444D-04-0.298D-03-0.109D-02-0.229D-02
 Coeff-Com: -0.387D-02 0.575D-02 0.513D-01-0.304D-01-0.201D+00 0.128D+00
 Coeff-Com:  0.105D+01
 Coeff:      0.317D-04-0.426D-04-0.444D-04-0.298D-03-0.109D-02-0.229D-02
 Coeff:     -0.387D-02 0.575D-02 0.513D-01-0.304D-01-0.201D+00 0.128D+00
 Coeff:      0.105D+01
 Gap=     0.231 Goal=   None    Shift=    0.000
 RMSDP=9.18D-06 MaxDP=8.34D-04 DE=-5.56D-08 OVMax= 1.22D-04

 Cycle  14  Pass 1  IDiag  1:
 RMSU=  8.65D-07    CP:  3.86D-01  2.79D+00  1.57D+00  7.59D-01  1.01D+00
                    CP:  9.77D-01  1.70D+00  1.95D+00  2.45D+00  2.37D+00
                    CP:  1.68D+00  1.86D+00  1.53D+00
 E= -3010.54937597671     Delta-E=       -0.000000008159 Rises=F Damp=F
 DIIS: error= 6.58D-07 at cycle  14 NSaved=  14.
 NSaved=14 IEnMin=14 EnMin= -3010.54937597671     IErMin=14 ErrMin= 6.58D-07
 ErrMax= 6.58D-07  0.00D+00 EMaxC= 1.00D-01 BMatC= 2.11D-10 BMatP= 2.07D-09
 IDIUse=1 WtCom= 1.00D+00 WtEn= 0.00D+00
 Coeff-Com:  0.433D-04-0.571D-04-0.243D-05-0.155D-03-0.340D-03-0.803D-03
 Coeff-Com: -0.327D-02 0.894D-03 0.333D-01 0.162D-02-0.114D+00-0.378D-01
 Coeff-Com:  0.284D+00 0.837D+00
 Coeff:      0.433D-04-0.571D-04-0.243D-05-0.155D-03-0.340D-03-0.803D-03
 Coeff:     -0.327D-02 0.894D-03 0.333D-01 0.162D-02-0.114D+00-0.378D-01
 Coeff:      0.284D+00 0.837D+00
 Gap=     0.231 Goal=   None    Shift=    0.000
 RMSDP=2.54D-06 MaxDP=2.40D-04 DE=-8.16D-09 OVMax= 3.17D-05

 Cycle  15  Pass 1  IDiag  1:
 RMSU=  3.54D-07    CP:  3.86D-01  2.79D+00  1.57D+00  7.59D-01  1.01D+00
                    CP:  9.78D-01  1.70D+00  1.95D+00  2.46D+00  2.38D+00
                    CP:  1.68D+00  1.99D+00  1.72D+00  1.32D+00
 E= -3010.54937597755     Delta-E=       -0.000000000835 Rises=F Damp=F
 DIIS: error= 4.03D-07 at cycle  15 NSaved=  15.
 NSaved=15 IEnMin=15 EnMin= -3010.54937597755     IErMin=15 ErrMin= 4.03D-07
 ErrMax= 4.03D-07  0.00D+00 EMaxC= 1.00D-01 BMatC= 4.97D-11 BMatP= 2.11D-10
 IDIUse=1 WtCom= 1.00D+00 WtEn= 0.00D+00
 Coeff-Com:  0.506D-05-0.654D-05 0.702D-05 0.169D-04 0.132D-03 0.230D-03
 Coeff-Com:  0.122D-03-0.883D-03-0.118D-02 0.679D-02 0.527D-02-0.340D-01
 Coeff-Com: -0.113D+00 0.245D+00 0.891D+00
 Coeff:      0.506D-05-0.654D-05 0.702D-05 0.169D-04 0.132D-03 0.230D-03
 Coeff:      0.122D-03-0.883D-03-0.118D-02 0.679D-02 0.527D-02-0.340D-01
 Coeff:     -0.113D+00 0.245D+00 0.891D+00
 Gap=     0.231 Goal=   None    Shift=    0.000
 RMSDP=1.07D-06 MaxDP=1.00D-04 DE=-8.35D-10 OVMax= 1.52D-05

 Cycle  16  Pass 1  IDiag  1:
 RMSU=  1.29D-07    CP:  3.86D-01  2.79D+00  1.57D+00  7.59D-01  1.01D+00
                    CP:  9.78D-01  1.70D+00  1.95D+00  2.46D+00  2.38D+00
                    CP:  1.68D+00  2.04D+00  1.82D+00  1.53D+00  1.32D+00
 E= -3010.54937597789     Delta-E=       -0.000000000350 Rises=F Damp=F
 DIIS: error= 1.63D-07 at cycle  16 NSaved=  16.
 NSaved=16 IEnMin=16 EnMin= -3010.54937597789     IErMin=16 ErrMin= 1.63D-07
 ErrMax= 1.63D-07  0.00D+00 EMaxC= 1.00D-01 BMatC= 9.94D-12 BMatP= 4.97D-11
 IDIUse=1 WtCom= 1.00D+00 WtEn= 0.00D+00
 Coeff-Com: -0.191D-04 0.255D-04-0.147D-05 0.414D-04 0.775D-04 0.163D-03
 Coeff-Com:  0.703D-03-0.309D-03-0.704D-02 0.143D-02 0.220D-01 0.381D-02
 Coeff-Com: -0.581D-01-0.178D+00 0.226D-01 0.119D+01
 Coeff:     -0.191D-04 0.255D-04-0.147D-05 0.414D-04 0.775D-04 0.163D-03
 Coeff:      0.703D-03-0.309D-03-0.704D-02 0.143D-02 0.220D-01 0.381D-02
 Coeff:     -0.581D-01-0.178D+00 0.226D-01 0.119D+01
 Gap=     0.231 Goal=   None    Shift=    0.000
 RMSDP=5.87D-07 MaxDP=5.05D-05 DE=-3.50D-10 OVMax= 1.12D-05

 Cycle  17  Pass 1  IDiag  1:
 RMSU=  8.47D-08    CP:  3.86D-01  2.79D+00  1.57D+00  7.59D-01  1.01D+00
                    CP:  9.78D-01  1.70D+00  1.94D+00  2.46D+00  2.38D+00
                    CP:  1.68D+00  2.06D+00  1.87D+00  1.63D+00  1.57D+00
                    CP:  1.93D+00
 E= -3010.54937597796     Delta-E=       -0.000000000065 Rises=F Damp=F
 DIIS: error= 7.96D-08 at cycle  17 NSaved=  17.
 NSaved=17 IEnMin=17 EnMin= -3010.54937597796     IErMin=17 ErrMin= 7.96D-08
 ErrMax= 7.96D-08  0.00D+00 EMaxC= 1.00D-01 BMatC= 1.93D-12 BMatP= 9.94D-12
 IDIUse=1 WtCom= 1.00D+00 WtEn= 0.00D+00
 Coeff-Com: -0.540D-05 0.721D-05-0.217D-05-0.695D-06-0.333D-04-0.685D-04
 Coeff-Com: -0.586D-04 0.273D-03 0.354D-03-0.153D-02-0.180D-02 0.720D-02
 Coeff-Com:  0.285D-01-0.444D-01-0.187D+00-0.134D+00 0.133D+01
 Coeff:     -0.540D-05 0.721D-05-0.217D-05-0.695D-06-0.333D-04-0.685D-04
 Coeff:     -0.586D-04 0.273D-03 0.354D-03-0.153D-02-0.180D-02 0.720D-02
 Coeff:      0.285D-01-0.444D-01-0.187D+00-0.134D+00 0.133D+01
 Gap=     0.231 Goal=   None    Shift=    0.000
 RMSDP=2.51D-07 MaxDP=2.57D-05 DE=-6.50D-11 OVMax= 6.74D-06

 Cycle  18  Pass 1  IDiag  1:
 RMSU=  3.45D-08    CP:  3.86D-01  2.79D+00  1.57D+00  7.59D-01  1.01D+00
                    CP:  9.78D-01  1.70D+00  1.95D+00  2.46D+00  2.38D+00
                    CP:  1.68D+00  2.07D+00  1.88D+00  1.64D+00  1.62D+00
                    CP:  2.73D+00  1.86D+00
 E= -3010.54937597804     Delta-E=       -0.000000000082 Rises=F Damp=F
 DIIS: error= 2.99D-08 at cycle  18 NSaved=  18.
 NSaved=18 IEnMin=18 EnMin= -3010.54937597804     IErMin=18 ErrMin= 2.99D-08
 ErrMax= 2.99D-08  0.00D+00 EMaxC= 1.00D-01 BMatC= 3.93D-13 BMatP= 1.93D-12
 IDIUse=1 WtCom= 1.00D+00 WtEn= 0.00D+00
 Coeff-Com:  0.940D-06-0.125D-05-0.467D-06-0.602D-05-0.227D-04-0.476D-04
 Coeff-Com: -0.121D-03 0.148D-03 0.110D-02-0.682D-03-0.361D-02 0.142D-02
 Coeff-Com:  0.169D-01 0.163D-01-0.489D-01-0.224D+00 0.358D+00 0.883D+00
 Coeff:      0.940D-06-0.125D-05-0.467D-06-0.602D-05-0.227D-04-0.476D-04
 Coeff:     -0.121D-03 0.148D-03 0.110D-02-0.682D-03-0.361D-02 0.142D-02
 Coeff:      0.169D-01 0.163D-01-0.489D-01-0.224D+00 0.358D+00 0.883D+00
 Gap=     0.231 Goal=   None    Shift=    0.000
 RMSDP=9.02D-08 MaxDP=1.03D-05 DE=-8.23D-11 OVMax= 1.90D-06

 Cycle  19  Pass 1  IDiag  1:
 RMSU=  9.17D-09    CP:  3.86D-01  2.79D+00  1.57D+00  7.59D-01  1.01D+00
                    CP:  9.78D-01  1.70D+00  1.95D+00  2.46D+00  2.38D+00
                    CP:  1.68D+00  2.07D+00  1.89D+00  1.63D+00  1.60D+00
                    CP:  2.96D+00  2.21D+00  1.43D+00
 E= -3010.54937597799     Delta-E=        0.000000000051 Rises=F Damp=F
 DIIS: error= 1.45D-08 at cycle  19 NSaved=  19.
 NSaved=19 IEnMin=18 EnMin= -3010.54937597804     IErMin=19 ErrMin= 1.45D-08
 ErrMax= 1.45D-08  0.00D+00 EMaxC= 1.00D-01 BMatC= 9.41D-14 BMatP= 3.93D-13
 IDIUse=1 WtCom= 1.00D+00 WtEn= 0.00D+00
 Coeff-Com:  0.874D-07-0.107D-06 0.165D-06 0.706D-06 0.664D-05 0.118D-04
 Coeff-Com: -0.868D-05-0.537D-04 0.817D-04 0.241D-03-0.161D-03-0.163D-02
 Coeff-Com: -0.464D-02 0.143D-01 0.373D-01-0.226D-01-0.271D+00 0.213D+00
 Coeff-Com:  0.104D+01
 Coeff:      0.874D-07-0.107D-06 0.165D-06 0.706D-06 0.664D-05 0.118D-04
 Coeff:     -0.868D-05-0.537D-04 0.817D-04 0.241D-03-0.161D-03-0.163D-02
 Coeff:     -0.464D-02 0.143D-01 0.373D-01-0.226D-01-0.271D+00 0.213D+00
 Coeff:      0.104D+01
 Gap=     0.231 Goal=   None    Shift=    0.000
 RMSDP=6.16D-08 MaxDP=4.92D-06 DE= 5.14D-11 OVMax= 1.29D-06

 Cycle  20  Pass 1  IDiag  1:
 RMSU=  1.35D-08    CP:  3.86D-01  2.79D+00  1.57D+00  7.59D-01  1.01D+00
                    CP:  9.78D-01  1.70D+00  1.95D+00  2.46D+00  2.38D+00
                    CP:  1.68D+00  2.07D+00  1.89D+00  1.63D+00  1.58D+00
                    CP:  3.00D+00  2.42D+00  1.84D+00  1.43D+00
 E= -3010.54937597802     Delta-E=       -0.000000000032 Rises=F Damp=F
 DIIS: error= 6.52D-09 at cycle  20 NSaved=  20.
 NSaved=20 IEnMin=18 EnMin= -3010.54937597804     IErMin=20 ErrMin= 6.52D-09
 ErrMax= 6.52D-09  0.00D+00 EMaxC= 1.00D-01 BMatC= 1.01D-14 BMatP= 9.41D-14
 IDIUse=1 WtCom= 1.00D+00 WtEn= 0.00D+00
 Coeff-Com:  0.746D-07-0.996D-07 0.117D-06 0.716D-06 0.420D-05 0.882D-05
 Coeff-Com:  0.152D-04-0.277D-04-0.138D-03 0.141D-03 0.497D-03-0.491D-03
 Coeff-Com: -0.344D-02 0.151D-02 0.166D-01 0.267D-01-0.110D+00-0.701D-01
 Coeff-Com:  0.238D+00 0.901D+00
 Coeff:      0.746D-07-0.996D-07 0.117D-06 0.716D-06 0.420D-05 0.882D-05
 Coeff:      0.152D-04-0.277D-04-0.138D-03 0.141D-03 0.497D-03-0.491D-03
 Coeff:     -0.344D-02 0.151D-02 0.166D-01 0.267D-01-0.110D+00-0.701D-01
 Coeff:      0.238D+00 0.901D+00
 Gap=     0.231 Goal=   None    Shift=    0.000
 RMSDP=1.04D-08 MaxDP=1.00D-06 DE=-3.18D-11 OVMax= 1.74D-07

 Cycle  21  Pass 1  IDiag  1:
 Restarting incremental Fock formation.
 E= -3010.54937597797     Delta-E=        0.000000000054 Rises=F Damp=F
 DIIS: error= 4.75D-09 at cycle  21 NSaved=  20.
 NSaved=20 IEnMin=17 EnMin= -3010.54937597804     IErMin=20 ErrMin= 4.75D-09
 ErrMax= 4.75D-09  0.00D+00 EMaxC= 1.00D-01 BMatC= 2.53D-15 BMatP= 1.01D-14
 IDIUse=1 WtCom= 1.00D+00 WtEn= 0.00D+00
 Large coefficients: NSaved= 20 BigCof=    0.00 CofMax=   10.00 Det=-6.23D-15
 Inversion failed.  Reducing to 19 matrices.
 Large coefficients: NSaved= 19 BigCof=    0.00 CofMax=   10.00 Det=-8.66D-15
 Inversion failed.  Reducing to 18 matrices.
 Large coefficients: NSaved= 18 BigCof=    0.00 CofMax=   10.00 Det=-8.80D-15
 Inversion failed.  Reducing to 17 matrices.
 Large coefficients: NSaved= 17 BigCof=    0.00 CofMax=   10.00 Det=-9.73D-15
 Inversion failed.  Reducing to 16 matrices.
 Large coefficients: NSaved= 16 BigCof=    0.00 CofMax=   10.00 Det=-1.00D-14
 Inversion failed.  Reducing to 15 matrices.
 Coeff-Com:  0.132D-05 0.267D-05-0.899D-05-0.262D-05 0.235D-04 0.748D-04
 Coeff-Com: -0.131D-03-0.123D-02-0.838D-03 0.894D-02 0.514D-02-0.519D-01
 Coeff-Com: -0.744D-01 0.303D+00 0.811D+00
 Coeff:      0.132D-05 0.267D-05-0.899D-05-0.262D-05 0.235D-04 0.748D-04
 Coeff:     -0.131D-03-0.123D-02-0.838D-03 0.894D-02 0.514D-02-0.519D-01
 Coeff:     -0.744D-01 0.303D+00 0.811D+00
 Gap=     0.231 Goal=   None    Shift=    0.000
 RMSDP=5.33D-09 MaxDP=4.96D-07 DE= 5.37D-11 OVMax= 8.35D-08

 SCF Done:  E(RwB97XD) =  -3010.54937598     A.U. after   21 cycles
            NFock= 21  Conv=0.53D-08     -V/T= 2.0016
 KE= 3.005815524505D+03 PE=-8.696497726135D+03 EE= 1.909521841903D+03
 Leave Link  502 at Thu May  2 14:20:59 2024, MaxMem=   134217728 cpu:            1298.4 elap:            1298.7
 (Enter /software/gaussian/g16-c01/sse4/g16/l601.exe)
 Copying SCF densities to generalized density rwf, IOpCl= 0 IROHF=0.

 **********************************************************************

            Population analysis using the SCF Density.

 **********************************************************************

 Alpha  occ. eigenvalues -- -483.28288 -62.83254 -56.63004 -56.62364 -56.62342
 Alpha  occ. eigenvalues --  -19.45795 -19.45788 -14.85164 -10.58116 -10.56349
 Alpha  occ. eigenvalues --  -10.56125 -10.55587 -10.52327 -10.51746  -8.99018
 Alpha  occ. eigenvalues --   -6.81845  -6.79761  -6.79695  -2.91712  -2.91176
 Alpha  occ. eigenvalues --   -2.91123  -2.89457  -2.89456  -1.49459  -1.32435
 Alpha  occ. eigenvalues --   -1.21169  -1.11749  -1.10895  -1.02731  -0.98870
 Alpha  occ. eigenvalues --   -0.94094  -0.89511  -0.84239  -0.80143  -0.79429
 Alpha  occ. eigenvalues --   -0.79187  -0.76928  -0.75562  -0.74491  -0.70407
 Alpha  occ. eigenvalues --   -0.67403  -0.66469  -0.61504  -0.58253  -0.56927
 Alpha  occ. eigenvalues --   -0.56159  -0.55469  -0.52638  -0.51718
 Alpha virt. eigenvalues --   -0.28598  -0.19692  -0.13943  -0.12550  -0.11155
 Alpha virt. eigenvalues --   -0.08521  -0.08245  -0.05989  -0.04556  -0.03948
 Alpha virt. eigenvalues --   -0.02254  -0.01043   0.00367   0.00905   0.01407
 Alpha virt. eigenvalues --    0.02138   0.02701   0.04010   0.04805   0.05800
 Alpha virt. eigenvalues --    0.06467   0.06555   0.06982   0.07416   0.08062
 Alpha virt. eigenvalues --    0.08841   0.09046   0.09697   0.10223   0.10755
 Alpha virt. eigenvalues --    0.11542   0.12542   0.13124   0.13387   0.13530
 Alpha virt. eigenvalues --    0.14653   0.14797   0.15935   0.16201   0.17421
 Alpha virt. eigenvalues --    0.17584   0.18308   0.18884   0.19190   0.19864
 Alpha virt. eigenvalues --    0.21752   0.21985   0.22517   0.23211   0.25322
 Alpha virt. eigenvalues --    0.26024   0.26389   0.29493   0.31225   0.33277
 Alpha virt. eigenvalues --    0.34047   0.35090   0.36152   0.36865   0.38439
 Alpha virt. eigenvalues --    0.39332   0.40103   0.40654   0.41781   0.43347
 Alpha virt. eigenvalues --    0.44801   0.45237   0.46767   0.48074   0.48620
 Alpha virt. eigenvalues --    0.49895   0.51548   0.52534   0.54060   0.54653
 Alpha virt. eigenvalues --    0.56132   0.57298   0.59062   0.59362   0.61294
 Alpha virt. eigenvalues --    0.62508   0.63626   0.66392   0.69289   0.70095
 Alpha virt. eigenvalues --    0.72351   0.72741   0.73811   0.75158   0.75913
 Alpha virt. eigenvalues --    0.76411   0.78197   0.80533   0.85785   0.86837
 Alpha virt. eigenvalues --    0.88189   0.89285   0.92384   0.95628   0.99567
 Alpha virt. eigenvalues --    1.01137   1.03813   1.04924   1.06799   1.07875
 Alpha virt. eigenvalues --    1.09770   1.13089   1.13986   1.14820   1.18854
 Alpha virt. eigenvalues --    1.21566   1.23495   1.29149   1.34596   1.37366
 Alpha virt. eigenvalues --    1.38025   1.40105   1.44732   1.56186   1.57694
 Alpha virt. eigenvalues --    1.58192   1.60702   1.62315   1.64986   1.67122
 Alpha virt. eigenvalues --    1.69022   1.72721   1.74642   1.76375   1.80663
 Alpha virt. eigenvalues --    1.85039   1.86444   1.88372   1.98090   1.98626
 Alpha virt. eigenvalues --    1.99391   2.03946   2.04723   2.08536   2.10732
 Alpha virt. eigenvalues --    2.14617   2.16111   2.23349   2.24518   2.28412
 Alpha virt. eigenvalues --    2.34607   2.40717   2.42335   2.45269   2.54434
 Alpha virt. eigenvalues --    2.59078   2.64231   2.67127   2.69855   2.72182
 Alpha virt. eigenvalues --    2.74411   2.76949   2.78371   2.81214   2.83370
 Alpha virt. eigenvalues --    2.94567   2.99087   3.02317   3.07060   3.10193
 Alpha virt. eigenvalues --    3.15970   3.17454   3.18599   3.23112   3.27079
 Alpha virt. eigenvalues --    3.28796   3.38722   3.47793   3.51108   3.55325
 Alpha virt. eigenvalues --    3.58566   3.69384   3.74730   3.84884   3.88628
 Alpha virt. eigenvalues --    4.13304   4.14218   4.22429   4.26683   4.45101
 Alpha virt. eigenvalues --    4.46893   4.55909   4.60584   4.93987   4.96752
 Alpha virt. eigenvalues --    5.05689   5.10099   5.62477   6.15564   6.71260
 Alpha virt. eigenvalues --    7.52314   7.54562   7.64543  23.23478  23.62517
 Alpha virt. eigenvalues --   23.73584  23.79420  23.96881  24.03323  35.32001
 Alpha virt. eigenvalues --   47.97140  49.85664  49.94326 289.84725 289.87059
 Alpha virt. eigenvalues --  289.996431020.98239
          Condensed to atoms (all electrons):
               1          2          3          4          5          6
     1  C    7.822608  -1.608022   0.391742   0.081628   0.294281   0.057328
     2  C   -1.608022  19.989673  -2.777586   0.417150   0.001255   0.198619
     3  C    0.391742  -2.777586  22.755322  -1.450756   0.000733   0.109106
     4  C    0.081628   0.417150  -1.450756   6.464127   0.030106  -0.013290
     5  H    0.294281   0.001255   0.000733   0.030106   0.333504  -0.001731
     6  H    0.057328   0.198619   0.109106  -0.013290  -0.001731   0.314009
     7  H    0.020843  -0.026957   0.013218   0.314247  -0.002534   0.000002
     8  N   -0.115212  -0.605435  -2.628858   0.027302   0.000008  -0.032185
     9  O    0.031168   0.637654   0.431621  -0.019404  -0.000027  -0.002614
    10  O    0.238935  -0.217413  -0.341774  -0.011251  -0.000016   0.021366
    11  C    0.859833  -0.218405   2.836566  -0.387190  -0.031522   0.008666
    12  H   -0.018614   0.028734  -0.002977   0.029079   0.000071  -0.000024
    13  C   -1.906624  -9.774053 -13.112852   0.894538   0.031340  -0.007767
    14  H    0.011051   0.030709   0.111966  -0.011286  -0.000067   0.000132
    15  Br  -0.002113  -0.315573  -0.303611  -0.027429   0.000674  -0.000648
               7          8          9         10         11         12
     1  C    0.020843  -0.115212   0.031168   0.238935   0.859833  -0.018614
     2  C   -0.026957  -0.605435   0.637654  -0.217413  -0.218405   0.028734
     3  C    0.013218  -2.628858   0.431621  -0.341774   2.836566  -0.002977
     4  C    0.314247   0.027302  -0.019404  -0.011251  -0.387190   0.029079
     5  H   -0.002534   0.000008  -0.000027  -0.000016  -0.031522   0.000071
     6  H    0.000002  -0.032185  -0.002614   0.021366   0.008666  -0.000024
     7  H    0.341769   0.000165  -0.000022   0.000012   0.012380  -0.002226
     8  N    0.000165   7.963481  -0.133663   0.255304  -0.348030   0.000774
     9  O   -0.000022  -0.133663   8.033127  -0.021081   0.278834   0.000180
    10  O    0.000012   0.255304  -0.021081   7.807301  -0.023744  -0.000049
    11  C    0.012380  -0.348030   0.278834  -0.023744   8.482274   0.288698
    12  H   -0.002226   0.000774   0.000180  -0.000049   0.288698   0.332940
    13  C    0.001577   2.737819  -1.275125   0.212645  -5.577282  -0.005574
    14  H   -0.000042  -0.054855   0.023744  -0.001712   0.073218  -0.007611
    15  Br  -0.000019   0.213665  -0.073010   0.011217  -0.007354   0.004429
              13         14         15
     1  C   -1.906624   0.011051  -0.002113
     2  C   -9.774053   0.030709  -0.315573
     3  C  -13.112852   0.111966  -0.303611
     4  C    0.894538  -0.011286  -0.027429
     5  H    0.031340  -0.000067   0.000674
     6  H   -0.007767   0.000132  -0.000648
     7  H    0.001577  -0.000042  -0.000019
     8  N    2.737819  -0.054855   0.213665
     9  O   -1.275125   0.023744  -0.073010
    10  O    0.212645  -0.001712   0.011217
    11  C   -5.577282   0.073218  -0.007354
    12  H   -0.005574  -0.007611   0.004429
    13  C   33.412913   0.106145   0.693147
    14  H    0.106145   0.422295  -0.055478
    15  Br   0.693147  -0.055478  34.498796
 Mulliken charges:
               1
     1  C   -0.158831
     2  C    0.239650
     3  C   -0.031860
     4  C   -0.337572
     5  H    0.343925
     6  H    0.349030
     7  H    0.327588
     8  N   -0.280281
     9  O    0.088618
    10  O    0.070259
    11  C   -0.246943
    12  H    0.352168
    13  C   -0.430847
    14  H    0.351790
    15  Br   0.363306
 Sum of Mulliken charges =   1.00000
 Mulliken charges with hydrogens summed into heavy atoms:
               1
     1  C    0.185094
     2  C    0.588680
     3  C   -0.031860
     4  C   -0.009984
     8  N   -0.280281
     9  O    0.088618
    10  O    0.070259
    11  C    0.105226
    13  C   -0.079058
    15  Br   0.363306
 Electronic spatial extent (au):  <R**2>=           3942.3423
 Charge=              1.0000 electrons
 Dipole moment (field-independent basis, Debye):
    X=              3.0709    Y=             -1.6700    Z=             -4.0931  Tot=              5.3827
 Quadrupole moment (field-independent basis, Debye-Ang):
   XX=            -67.8909   YY=            -49.9759   ZZ=            -58.2022
   XY=             -4.5289   XZ=             -9.4466   YZ=              5.7074
 Traceless Quadrupole moment (field-independent basis, Debye-Ang):
   XX=             -9.2012   YY=              8.7138   ZZ=              0.4874
   XY=             -4.5289   XZ=             -9.4466   YZ=              5.7074
 Octapole moment (field-independent basis, Debye-Ang**2):
  XXX=           -516.0528  YYY=             86.4238  ZZZ=             66.0251  XYY=           -133.0562
  XXY=             20.9785  XXZ=              4.0149  XZZ=           -123.4076  YZZ=              8.2616
  YYZ=             14.7491  XYZ=             15.3311
 Hexadecapole moment (field-independent basis, Debye-Ang**3):
 XXXX=          -3475.7064 YYYY=           -689.5487 ZZZZ=           -356.3436 XXXY=            172.3546
 XXXZ=            109.1626 YYYX=            172.5366 YYYZ=           -151.4185 ZZZX=            131.6549
 ZZZY=           -117.7448 XXYY=           -616.1419 XXZZ=           -504.1046 YYZZ=           -151.3048
 XXYZ=            -22.3244 YYXZ=             25.7970 ZZXY=              9.3166
 N-N= 7.706109837490D+02 E-N=-8.696497726434D+03  KE= 3.005815524505D+03
 No NMR shielding tensors so no spin-rotation constants.
 Leave Link  601 at Thu May  2 14:21:06 2024, MaxMem=   134217728 cpu:               7.5 elap:               7.5
 (Enter /software/gaussian/g16-c01/sse4/g16/l9999.exe)
 Unable to Open any file for archive entry.
 1\1\GINC-BHX0019\SP\RwB97XD\6-311+G(d)\C6H5Br1N1O2(1+)\BWEIGHT\02-May-
 2024\0\\#P wB97XD/6-311+G* NoSymm #P Field=Z+184\\TitleMe\\1,1\C,0,0.5
 193,1.233,-0.0319\C,0,1.9445,1.2692,-0.0367\C,0,2.6204,0.0928,-0.025\C
 ,0,-0.196,0.0301,0.001\H,0,-0.0207,2.1742,-0.0434\H,0,2.4828,2.2089,-0
 .0361\H,0,-1.2777,0.0399,0.0117\N,0,4.0921,0.0959,0.0366\O,0,4.6393,-1
 .0217,0.1446\O,0,4.6649,1.1984,-0.0233\C,0,0.4943,-1.1671,0.021\H,0,-0
 .0325,-2.1149,0.0545\C,0,1.9629,-1.2165,-0.0211\H,0,2.4436,-1.9631,0.6
 151\Br,0,2.173,-1.9491,-1.9062\\Version=ES64L-G16RevC.01\HF=-3010.5493
 76\RMSD=5.329e-09\Dipole=-3.1210273,0.5711051,-0.3611404\Quadrupole=-6
 .8408947,6.4784903,0.3624044,-3.3671093,-7.0232942,4.2433436\PG=C01 [X
 (C6H5Br1N1O2)]\\@
 The archive entry for this job was punched.


 IF NO USE IS MADE OF THE LABOR OF PAST AGES,
 THE WORLD MUST REMAIN ALWAYS IN THE INFANCY OF KNOWLEDGE.

                          -- CICERO
 Job cpu time:       0 days  0 hours 22 minutes 48.7 seconds.
 Elapsed time:       0 days  0 hours 22 minutes 50.1 seconds.
 File lengths (MBytes):  RWF=     40 Int=      0 D2E=      0 Chk=     32 Scr=      1
 Normal termination of Gaussian 16 at Thu May  2 14:21:07 2024.
