 Entering Gaussian System, Link 0=g16
 Initial command:
 /software/gaussian/g16-c01/sse4/g16/l1.exe "/local_scratch/24665267/Gau-22269.inp" -scrdir="/local_scratch/24665267/"
 Entering Link 1 = /software/gaussian/g16-c01/sse4/g16/l1.exe PID=     22285.
  
 Copyright (c) 1988-2019, Gaussian, Inc.  All Rights Reserved.
  
 This is part of the Gaussian(R) 16 program.  It is based on
 the Gaussian(R) 09 system (copyright 2009, Gaussian, Inc.),
 the Gaussian(R) 03 system (copyright 2003, Gaussian, Inc.),
 the Gaussian(R) 98 system (copyright 1998, Gaussian, Inc.),
 the Gaussian(R) 94 system (copyright 1995, Gaussian, Inc.),
 the Gaussian 92(TM) system (copyright 1992, Gaussian, Inc.),
 the Gaussian 90(TM) system (copyright 1990, Gaussian, Inc.),
 the Gaussian 88(TM) system (copyright 1988, Gaussian, Inc.),
 the Gaussian 86(TM) system (copyright 1986, Carnegie Mellon
 University), and the Gaussian 82(TM) system (copyright 1983,
 Carnegie Mellon University). Gaussian is a federally registered
 trademark of Gaussian, Inc.
  
 This software contains proprietary and confidential information,
 including trade secrets, belonging to Gaussian, Inc.
  
 This software is provided under written license and may be
 used, copied, transmitted, or stored only in accord with that
 written license.
  
 The following legend is applicable only to US Government
 contracts under FAR:
  
                    RESTRICTED RIGHTS LEGEND
  
 Use, reproduction and disclosure by the US Government is
 subject to restrictions as set forth in subparagraphs (a)
 and (c) of the Commercial Computer Software - Restricted
 Rights clause in FAR 52.227-19.
  
 Gaussian, Inc.
 340 Quinnipiac St., Bldg. 40, Wallingford CT 06492
  
  
 ---------------------------------------------------------------
 Warning -- This program may not be used in any manner that
 competes with the business of Gaussian, Inc. or will provide
 assistance to any competitor of Gaussian, Inc.  The licensee
 of this program is prohibited from giving any competitor of
 Gaussian, Inc. access to this program.  By using this program,
 the user acknowledges that Gaussian, Inc. is engaged in the
 business of creating and licensing software in the field of
 computational chemistry and represents and warrants to the
 licensee that it is not a competitor of Gaussian, Inc. and that
 it will not use this program in any manner prohibited above.
 ---------------------------------------------------------------
  

 Cite this work as:
 Gaussian 16, Revision C.01,
 M. J. Frisch, G. W. Trucks, H. B. Schlegel, G. E. Scuseria, 
 M. A. Robb, J. R. Cheeseman, G. Scalmani, V. Barone, 
 G. A. Petersson, H. Nakatsuji, X. Li, M. Caricato, A. V. Marenich, 
 J. Bloino, B. G. Janesko, R. Gomperts, B. Mennucci, H. P. Hratchian, 
 J. V. Ortiz, A. F. Izmaylov, J. L. Sonnenberg, D. Williams-Young, 
 F. Ding, F. Lipparini, F. Egidi, J. Goings, B. Peng, A. Petrone, 
 T. Henderson, D. Ranasinghe, V. G. Zakrzewski, J. Gao, N. Rega, 
 G. Zheng, W. Liang, M. Hada, M. Ehara, K. Toyota, R. Fukuda, 
 J. Hasegawa, M. Ishida, T. Nakajima, Y. Honda, O. Kitao, H. Nakai, 
 T. Vreven, K. Throssell, J. A. Montgomery, Jr., J. E. Peralta, 
 F. Ogliaro, M. J. Bearpark, J. J. Heyd, E. N. Brothers, K. N. Kudin, 
 V. N. Staroverov, T. A. Keith, R. Kobayashi, J. Normand, 
 K. Raghavachari, A. P. Rendell, J. C. Burant, S. S. Iyengar, 
 J. Tomasi, M. Cossi, J. M. Millam, M. Klene, C. Adamo, R. Cammi, 
 J. W. Ochterski, R. L. Martin, K. Morokuma, O. Farkas, 
 J. B. Foresman, and D. J. Fox, Gaussian, Inc., Wallingford CT, 2019.
 
 ******************************************
 Gaussian 16:  ES64L-G16RevC.01  3-Jul-2019
                 2-May-2024 
 ******************************************
 %chk=geometry.chk
 %mem=1GB
 %nprocshared=12
 Will use up to   12 processors via shared memory.
 ---------------------------------------
 #P wB97XD/6-311+G* NoSymm #P Field=X+38
 ---------------------------------------
 1/38=1,172=1/1;
 2/12=2,15=1,17=6,18=5,40=1/2;
 3/5=4,6=6,7=11,11=2,14=1,15=38,25=1,30=1,74=-58/1,2,3;
 4//1;
 5/5=2,38=5/2;
 6/7=2,8=2,9=2,10=2,28=1/1;
 99/5=1,9=1/99;
 Leave Link    1 at Thu May  2 13:57:34 2024, MaxMem=   134217728 cpu:               2.8 elap:               2.8
 (Enter /software/gaussian/g16-c01/sse4/g16/l101.exe)
 -------
 TitleMe
 -------
 Symbolic Z-matrix:
 Charge =  1 Multiplicity = 1
 C                     0.5193    1.233    -0.0319 
 C                     1.9445    1.2692   -0.0367 
 C                     2.6204    0.0928   -0.025 
 C                    -0.196     0.0301    0.001 
 H                    -0.0207    2.1742   -0.0434 
 H                     2.4828    2.2089   -0.0361 
 H                    -1.2777    0.0399    0.0117 
 N                     4.0921    0.0959    0.0366 
 O                     4.6393   -1.0217    0.1446 
 O                     4.6649    1.1984   -0.0233 
 C                     0.4943   -1.1671    0.021 
 H                    -0.0325   -2.1149    0.0545 
 C                     1.9629   -1.2165   -0.0211 
 H                     2.4436   -1.9631    0.6151 
 Br                    2.173    -1.9491   -1.9062 
 
 ITRead=  0  0  0  0  0  0  0  0  0  0  0  0  0  0  0
 MicOpt= -1 -1 -1 -1 -1 -1 -1 -1 -1 -1 -1 -1 -1 -1 -1
 NAtoms=     15 NQM=       15 NQMF=       0 NMMI=      0 NMMIF=      0
                NMic=       0 NMicF=      0.
                    Isotopes and Nuclear Properties:
 (Nuclear quadrupole moments (NQMom) in fm**2, nuclear magnetic moments (NMagM)
  in nuclear magnetons)

  Atom         1           2           3           4           5           6           7           8           9          10
 IAtWgt=          12          12          12          12           1           1           1          14          16          16
 AtmWgt=  12.0000000  12.0000000  12.0000000  12.0000000   1.0078250   1.0078250   1.0078250  14.0030740  15.9949146  15.9949146
 NucSpn=           0           0           0           0           1           1           1           2           0           0
 AtZEff=  -0.0000000  -0.0000000  -0.0000000  -0.0000000  -0.0000000  -0.0000000  -0.0000000  -0.0000000  -0.0000000  -0.0000000
 NQMom=    0.0000000   0.0000000   0.0000000   0.0000000   0.0000000   0.0000000   0.0000000   2.0440000   0.0000000   0.0000000
 NMagM=    0.0000000   0.0000000   0.0000000   0.0000000   2.7928460   2.7928460   2.7928460   0.4037610   0.0000000   0.0000000
 AtZNuc=   6.0000000   6.0000000   6.0000000   6.0000000   1.0000000   1.0000000   1.0000000   7.0000000   8.0000000   8.0000000

  Atom        11          12          13          14          15
 IAtWgt=          12           1          12           1          79
 AtmWgt=  12.0000000   1.0078250  12.0000000   1.0078250  78.9183361
 NucSpn=           0           1           0           1           3
 AtZEff=  -0.0000000  -0.0000000  -0.0000000  -0.0000000  -0.0000000
 NQMom=    0.0000000   0.0000000   0.0000000   0.0000000  31.3000000
 NMagM=    0.0000000   2.7928460   0.0000000   2.7928460   2.1063990
 AtZNuc=   6.0000000   1.0000000   6.0000000   1.0000000  35.0000000
 Leave Link  101 at Thu May  2 13:57:37 2024, MaxMem=   134217728 cpu:               1.8 elap:               1.8
 (Enter /software/gaussian/g16-c01/sse4/g16/l202.exe)
                          Input orientation:                          
 ---------------------------------------------------------------------
 Center     Atomic      Atomic             Coordinates (Angstroms)
 Number     Number       Type             X           Y           Z
 ---------------------------------------------------------------------
      1          6           0        0.519300    1.233000   -0.031900
      2          6           0        1.944500    1.269200   -0.036700
      3          6           0        2.620400    0.092800   -0.025000
      4          6           0       -0.196000    0.030100    0.001000
      5          1           0       -0.020700    2.174200   -0.043400
      6          1           0        2.482800    2.208900   -0.036100
      7          1           0       -1.277700    0.039900    0.011700
      8          7           0        4.092100    0.095900    0.036600
      9          8           0        4.639300   -1.021700    0.144600
     10          8           0        4.664900    1.198400   -0.023300
     11          6           0        0.494300   -1.167100    0.021000
     12          1           0       -0.032500   -2.114900    0.054500
     13          6           0        1.962900   -1.216500   -0.021100
     14          1           0        2.443600   -1.963100    0.615100
     15         35           0        2.173000   -1.949100   -1.906200
 ---------------------------------------------------------------------
                    Distance matrix (angstroms):
                    1          2          3          4          5
     1  C    0.000000
     2  C    1.425668   0.000000
     3  C    2.390549   1.356796   0.000000
     4  C    1.399895   2.473566   2.817218   0.000000
     5  H    1.085168   2.163581   3.362733   2.151712   0.000000
     6  H    2.192654   1.082960   2.120598   3.453189   2.503751
     7  H    2.157452   3.449071   3.898632   1.081797   2.477564
     8  N    3.750012   2.448304   1.472992   4.288753   4.608780
     9  O    4.699917   3.541615   2.312322   4.950458   5.653735
    10  O    4.145753   2.721354   2.324292   4.999386   4.786171
    11  C    2.400813   2.835836   2.471794   1.382101   3.381369
    12  H    3.394169   3.920329   3.452266   2.151887   4.290233
    13  C    2.843264   2.485817   1.465124   2.493060   3.928360
    14  H    3.786370   3.334922   2.160489   3.364142   4.860416
    15  Br   4.046416   3.728900   2.812194   3.628609   5.028314
                    6          7          8          9         10
     6  H    0.000000
     7  H    4.341452   0.000000
     8  N    2.657047   5.370150   0.000000
     9  O    3.888434   6.012948   1.249048   0.000000
    10  O    2.404752   6.054572   1.243863   2.226587   0.000000
    11  C    3.918516   2.144043   3.813080   4.149391   4.794941
    12  H    5.003018   2.489080   4.679774   4.798846   5.748876
    13  C    3.464662   3.475788   2.501842   2.688591   3.623886
    14  H    4.222698   4.268978   2.700314   2.434893   3.916224
    15  Br   4.569706   4.420610   3.411663   3.338935   4.434144
                   11         12         13         14         15
    11  C    0.000000
    12  H    1.084880   0.000000
    13  C    1.470034   2.189625   0.000000
    14  H    2.187771   2.543302   1.092353   0.000000
    15  Br   2.672762   2.955683   2.033334   2.535818   0.000000
 Symmetry turned off by external request.
 Stoichiometry    C6H5BrNO2(1+)
 Framework group  C1[X(C6H5BrNO2)]
 Deg. of freedom    39
 Full point group                 C1      NOp   1
 Rotational constants (GHZ):           1.1632986           0.9594224           0.5957624
 Leave Link  202 at Thu May  2 13:57:38 2024, MaxMem=   134217728 cpu:               1.3 elap:               1.3
 (Enter /software/gaussian/g16-c01/sse4/g16/l301.exe)
 Standard basis: 6-311+G(d) (5D, 7F)
 Ernie: Thresh=  0.10000D-02 Tol=  0.10000D-05 Strict=F.
 The following finite field(s) will be applied:
 An electric field of              0.0038  0.0000  0.0000
   261 basis functions,   443 primitive gaussians,   273 cartesian basis functions
    49 alpha electrons       49 beta electrons
       nuclear repulsion energy       772.8945969580 Hartrees.
 IExCor= 4639 DFT=T Ex+Corr=wB97XD ExCW=0 ScaHFX=  1.000000
 ScaDFX=  1.000000  1.000000  1.000000  1.000000 ScalE2=  1.000000  1.000000
 IRadAn=      5 IRanWt=     -1 IRanGd=            0 ICorTp=0 IEmpDi=121
 HFx  wShort=  0.000000 wLong=  0.200000 cFull=  0.222036 cShort=  0.000000 cLong=  0.777964
 DFx  wShort=  0.000000 wLong=  0.200000 cFull=  0.000000 cShort=  0.000000 cLong=  1.000000
 NAtoms=   15 NActive=   15 NUniq=   15 SFac= 1.00D+00 NAtFMM=   60 NAOKFM=F Big=F
 Integral buffers will be    131072 words long.
 Raffenetti 2 integral format.
 Two-electron integral symmetry is turned off.
 R6Disp:  Grimme-D2 Dispersion energy=       -0.0080346408 Hartrees.
 Nuclear repulsion after empirical dispersion term =      772.8865623173 Hartrees.
 Leave Link  301 at Thu May  2 13:57:40 2024, MaxMem=   134217728 cpu:               1.1 elap:               1.2
 (Enter /software/gaussian/g16-c01/sse4/g16/l302.exe)
 NPDir=0 NMtPBC=     1 NCelOv=     1 NCel=       1 NClECP=     1 NCelD=      1
         NCelK=      1 NCelE2=     1 NClLst=     1 CellRange=     0.0.
 One-electron integrals computed using PRISM.
 NBasis=   261 RedAO= T EigKep=  2.52D-06  NBF=   261
 NBsUse=   261 1.00D-06 EigRej= -1.00D+00 NBFU=   261
 Precomputing XC quadrature grid using
 IXCGrd= 4 IRadAn=           5 IRanWt=          -1 IRanGd=           0 AccXCQ= 0.00D+00.
 Generated NRdTot=       0 NPtTot=           0 NUsed=           0 NTot=          32
 NSgBfM=   273   273   273   273   273 MxSgAt=    15 MxSgA2=    15.
 Leave Link  302 at Thu May  2 13:58:02 2024, MaxMem=   134217728 cpu:              22.1 elap:              22.2
 (Enter /software/gaussian/g16-c01/sse4/g16/l303.exe)
 DipDrv:  MaxL=1.
 The nuclear repulsion energy is now       774.5152124976 hartrees.
 Leave Link  303 at Thu May  2 13:58:05 2024, MaxMem=   134217728 cpu:               3.4 elap:               3.4
 (Enter /software/gaussian/g16-c01/sse4/g16/l401.exe)
 ExpMin= 3.50D-02 ExpMax= 4.40D+05 ExpMxC= 1.51D+04 IAcc=3 IRadAn=         5 AccDes= 0.00D+00
 Harris functional with IExCor= 4639 and IRadAn=       5 diagonalized for initial guess.
 HarFok:  IExCor= 4639 AccDes= 0.00D+00 IRadAn=         5 IDoV= 1 UseB2=F ITyADJ=14
 ICtDFT=  3500011 ScaDFX=  1.000000  1.000000  1.000000  1.000000
 FoFCou: FMM=F IPFlag=           0 FMFlag=      100000 FMFlg1=           0
         NFxFlg=           0 DoJE=T BraDBF=F KetDBF=T FulRan=T
         wScrn=  0.000000 ICntrl=       500 IOpCl=  0 I1Cent=   200000004 NGrid=           0
         NMat0=    1 NMatS0=      1 NMatT0=    0 NMatD0=    1 NMtDS0=    0 NMtDT0=    0
 Symmetry not used in FoFCou.
 Harris En= -2970.59560856880    
 JPrj=0 DoOrth=F DoCkMO=F.
 Leave Link  401 at Thu May  2 13:58:37 2024, MaxMem=   134217728 cpu:              31.7 elap:              31.7
 (Enter /software/gaussian/g16-c01/sse4/g16/l502.exe)
 Two-electron integral symmetry not used.
 Closed shell SCF:
 Using DIIS extrapolation, IDIIS=  1040.
 NGot=   134217728 LenX=   134063053 LenY=   133988083
 Requested convergence on RMS density matrix=1.00D-08 within 128 cycles.
 Requested convergence on MAX density matrix=1.00D-06.
 Requested convergence on             energy=1.00D-06.
 No special actions if energy rises.
 Fock matrices will be formed incrementally for  20 cycles.

 Cycle   1  Pass 1  IDiag  1:
 FoFJK:  IHMeth= 1 ICntrl=       0 DoSepK=T KAlg= 0 I1Cent=           0 FoldK=F
 IRaf=         1 NMat=       1 IRICut=       1 DoRegI=T DoRafI=F ISym2E= 0 IDoP0=0 IntGTp=1.
 FoFCou: FMM=F IPFlag=           0 FMFlag=      100000 FMFlg1=           0
         NFxFlg=           0 DoJE=T BraDBF=F KetDBF=F FulRan=T
         wScrn=  0.000000 ICntrl=       500 IOpCl=  0 I1Cent=           0 NGrid=           0
         NMat0=    1 NMatS0=      1 NMatT0=    0 NMatD0=    1 NMtDS0=    0 NMtDT0=    0
 Symmetry not used in FoFCou.
 E= -3009.70879165084    
 DIIS: error= 2.90D-01 at cycle   1 NSaved=   1.
 NSaved= 1 IEnMin= 1 EnMin= -3009.70879165084     IErMin= 1 ErrMin= 2.90D-01
 ErrMax= 2.90D-01  0.00D+00 EMaxC= 1.00D-01 BMatC= 1.19D+01 BMatP= 1.19D+01
 IDIUse=3 WtCom= 0.00D+00 WtEn= 1.00D+00
 Coeff-Com:  0.100D+01
 Coeff-En:   0.100D+01
 Coeff:      0.100D+01
 Gap=     0.308 Goal=   None    Shift=    0.000
 GapD=    0.308 DampG=1.000 DampE=0.250 DampFc=0.2500 IDamp=-1.
 Damping current iteration by 2.50D-01
 RMSDP=4.28D-02 MaxDP=4.32D+00              OVMax= 2.63D-01

 Cycle   2  Pass 1  IDiag  1:
 RMSU=  5.82D-03    CP:  9.15D-01
 E= -3009.99518973814     Delta-E=       -0.286398087303 Rises=F Damp=T
 DIIS: error= 2.19D-01 at cycle   2 NSaved=   2.
 NSaved= 2 IEnMin= 2 EnMin= -3009.99518973814     IErMin= 2 ErrMin= 2.19D-01
 ErrMax= 2.19D-01  0.00D+00 EMaxC= 1.00D-01 BMatC= 5.45D+00 BMatP= 1.19D+01
 IDIUse=3 WtCom= 0.00D+00 WtEn= 1.00D+00
 Coeff-Com: -0.183D+01 0.283D+01
 Coeff-En:   0.000D+00 0.100D+01
 Coeff:      0.000D+00 0.100D+01
 Gap=     0.266 Goal=   None    Shift=    0.000
 RMSDP=3.36D-02 MaxDP=3.55D+00 DE=-2.86D-01 OVMax= 7.11D-02

 Cycle   3  Pass 1  IDiag  1:
 RMSU=  4.79D-03    CP:  6.20D-01  3.00D+00
 E= -3010.37637190614     Delta-E=       -0.381182168001 Rises=F Damp=F
 DIIS: error= 6.59D-02 at cycle   3 NSaved=   3.
 NSaved= 3 IEnMin= 3 EnMin= -3010.37637190614     IErMin= 3 ErrMin= 6.59D-02
 ErrMax= 6.59D-02  0.00D+00 EMaxC= 1.00D-01 BMatC= 7.31D-01 BMatP= 5.45D+00
 IDIUse=3 WtCom= 3.41D-01 WtEn= 6.59D-01
 Coeff-Com:  0.263D+01-0.345D+01 0.182D+01
 Coeff-En:   0.327D-01 0.000D+00 0.967D+00
 Coeff:      0.921D+00-0.118D+01 0.126D+01
 Gap=     0.257 Goal=   None    Shift=    0.000
 RMSDP=1.12D-02 MaxDP=7.27D-01 DE=-3.81D-01 OVMax= 6.98D-02

 Cycle   4  Pass 1  IDiag  1:
 RMSU=  5.51D-03    CP:  6.54D-01  1.79D+00  2.14D+00
 E= -3010.48221454402     Delta-E=       -0.105842637879 Rises=F Damp=F
 DIIS: error= 3.79D-02 at cycle   4 NSaved=   4.
 NSaved= 4 IEnMin= 4 EnMin= -3010.48221454402     IErMin= 4 ErrMin= 3.79D-02
 ErrMax= 3.79D-02  0.00D+00 EMaxC= 1.00D-01 BMatC= 2.25D-01 BMatP= 7.31D-01
 IDIUse=3 WtCom= 6.21D-01 WtEn= 3.79D-01
 Coeff-Com: -0.355D-01 0.611D-01 0.346D+00 0.628D+00
 Coeff-En:   0.000D+00 0.000D+00 0.196D+00 0.804D+00
 Coeff:     -0.220D-01 0.379D-01 0.289D+00 0.695D+00
 Gap=     0.255 Goal=   None    Shift=    0.000
 RMSDP=5.22D-03 MaxDP=6.27D-01 DE=-1.06D-01 OVMax= 3.17D-02

 Cycle   5  Pass 1  IDiag  1:
 RMSU=  1.48D-03    CP:  6.15D-01  2.02D+00  2.01D+00  5.52D-01
 E= -3010.52552671277     Delta-E=       -0.043312168755 Rises=F Damp=F
 DIIS: error= 6.53D-03 at cycle   5 NSaved=   5.
 NSaved= 5 IEnMin= 5 EnMin= -3010.52552671277     IErMin= 5 ErrMin= 6.53D-03
 ErrMax= 6.53D-03  0.00D+00 EMaxC= 1.00D-01 BMatC= 8.88D-03 BMatP= 2.25D-01
 IDIUse=3 WtCom= 9.35D-01 WtEn= 6.53D-02
 Coeff-Com: -0.111D+00 0.154D+00 0.109D+00 0.388D+00 0.460D+00
 Coeff-En:   0.000D+00 0.000D+00 0.000D+00 0.000D+00 0.100D+01
 Coeff:     -0.104D+00 0.144D+00 0.102D+00 0.363D+00 0.495D+00
 Gap=     0.246 Goal=   None    Shift=    0.000
 RMSDP=1.48D-03 MaxDP=1.81D-01 DE=-4.33D-02 OVMax= 2.44D-02

 Cycle   6  Pass 1  IDiag  1:
 RMSU=  5.60D-04    CP:  6.22D-01  2.02D+00  2.08D+00  7.33D-01  6.67D-01
 E= -3010.52809632875     Delta-E=       -0.002569615971 Rises=F Damp=F
 DIIS: error= 2.71D-03 at cycle   6 NSaved=   6.
 NSaved= 6 IEnMin= 6 EnMin= -3010.52809632875     IErMin= 6 ErrMin= 2.71D-03
 ErrMax= 2.71D-03  0.00D+00 EMaxC= 1.00D-01 BMatC= 6.30D-04 BMatP= 8.88D-03
 IDIUse=3 WtCom= 9.73D-01 WtEn= 2.71D-02
 Coeff-Com: -0.976D-01 0.132D+00 0.166D-02 0.165D+00 0.338D+00 0.462D+00
 Coeff-En:   0.000D+00 0.000D+00 0.000D+00 0.000D+00 0.943D-01 0.906D+00
 Coeff:     -0.950D-01 0.128D+00 0.162D-02 0.160D+00 0.331D+00 0.474D+00
 Gap=     0.246 Goal=   None    Shift=    0.000
 RMSDP=4.09D-04 MaxDP=3.76D-02 DE=-2.57D-03 OVMax= 8.40D-03

 Cycle   7  Pass 1  IDiag  1:
 RMSU=  2.05D-04    CP:  6.20D-01  2.01D+00  2.08D+00  6.97D-01  7.72D-01
                    CP:  6.75D-01
 E= -3010.52853565755     Delta-E=       -0.000439328803 Rises=F Damp=F
 DIIS: error= 3.11D-04 at cycle   7 NSaved=   7.
 NSaved= 7 IEnMin= 7 EnMin= -3010.52853565755     IErMin= 7 ErrMin= 3.11D-04
 ErrMax= 3.11D-04  0.00D+00 EMaxC= 1.00D-01 BMatC= 1.39D-05 BMatP= 6.30D-04
 IDIUse=3 WtCom= 9.97D-01 WtEn= 3.11D-03
 Coeff-Com: -0.356D-01 0.475D-01-0.116D-01 0.350D-01 0.850D-01 0.179D+00
 Coeff-Com:  0.700D+00
 Coeff-En:   0.000D+00 0.000D+00 0.000D+00 0.000D+00 0.000D+00 0.000D+00
 Coeff-En:   0.100D+01
 Coeff:     -0.355D-01 0.474D-01-0.115D-01 0.349D-01 0.848D-01 0.179D+00
 Coeff:      0.701D+00
 Gap=     0.247 Goal=   None    Shift=    0.000
 RMSDP=1.26D-04 MaxDP=9.03D-03 DE=-4.39D-04 OVMax= 1.06D-03

 Cycle   8  Pass 1  IDiag  1:
 RMSU=  5.27D-05    CP:  6.20D-01  2.01D+00  2.09D+00  7.07D-01  8.09D-01
                    CP:  7.06D-01  9.16D-01
 E= -3010.52854950361     Delta-E=       -0.000013846058 Rises=F Damp=F
 DIIS: error= 1.06D-04 at cycle   8 NSaved=   8.
 NSaved= 8 IEnMin= 8 EnMin= -3010.52854950361     IErMin= 8 ErrMin= 1.06D-04
 ErrMax= 1.06D-04  0.00D+00 EMaxC= 1.00D-01 BMatC= 1.98D-06 BMatP= 1.39D-05
 IDIUse=3 WtCom= 9.99D-01 WtEn= 1.06D-03
 Coeff-Com:  0.307D-02-0.431D-02-0.341D-02-0.106D-01-0.229D-01-0.277D-01
 Coeff-Com:  0.179D+00 0.887D+00
 Coeff-En:   0.000D+00 0.000D+00 0.000D+00 0.000D+00 0.000D+00 0.000D+00
 Coeff-En:   0.000D+00 0.100D+01
 Coeff:      0.307D-02-0.430D-02-0.341D-02-0.106D-01-0.229D-01-0.276D-01
 Coeff:      0.178D+00 0.887D+00
 Gap=     0.247 Goal=   None    Shift=    0.000
 RMSDP=6.64D-05 MaxDP=6.37D-03 DE=-1.38D-05 OVMax= 7.71D-04

 Cycle   9  Pass 1  IDiag  1:
 RMSU=  2.12D-05    CP:  6.20D-01  2.00D+00  2.09D+00  7.12D-01  8.17D-01
                    CP:  7.09D-01  1.06D+00  1.16D+00
 E= -3010.52855222256     Delta-E=       -0.000002718957 Rises=F Damp=F
 DIIS: error= 2.05D-05 at cycle   9 NSaved=   9.
 NSaved= 9 IEnMin= 9 EnMin= -3010.52855222256     IErMin= 9 ErrMin= 2.05D-05
 ErrMax= 2.05D-05  0.00D+00 EMaxC= 1.00D-01 BMatC= 1.82D-07 BMatP= 1.98D-06
 IDIUse=1 WtCom= 1.00D+00 WtEn= 0.00D+00
 Coeff-Com:  0.559D-02-0.751D-02 0.415D-03-0.777D-02-0.161D-01-0.294D-01
 Coeff-Com: -0.458D-01 0.268D+00 0.832D+00
 Coeff:      0.559D-02-0.751D-02 0.415D-03-0.777D-02-0.161D-01-0.294D-01
 Coeff:     -0.458D-01 0.268D+00 0.832D+00
 Gap=     0.247 Goal=   None    Shift=    0.000
 RMSDP=2.92D-05 MaxDP=3.03D-03 DE=-2.72D-06 OVMax= 3.11D-04

 Cycle  10  Pass 1  IDiag  1:
 RMSU=  6.87D-06    CP:  6.20D-01  2.00D+00  2.09D+00  7.11D-01  8.21D-01
                    CP:  6.97D-01  1.10D+00  1.40D+00  1.01D+00
 E= -3010.52855264013     Delta-E=       -0.000000417563 Rises=F Damp=F
 DIIS: error= 1.19D-05 at cycle  10 NSaved=  10.
 NSaved=10 IEnMin=10 EnMin= -3010.52855264013     IErMin=10 ErrMin= 1.19D-05
 ErrMax= 1.19D-05  0.00D+00 EMaxC= 1.00D-01 BMatC= 4.09D-08 BMatP= 1.82D-07
 IDIUse=1 WtCom= 1.00D+00 WtEn= 0.00D+00
 Coeff-Com:  0.648D-03-0.852D-03 0.294D-03-0.579D-03 0.776D-03 0.777D-03
 Coeff-Com: -0.352D-01-0.479D-01 0.209D+00 0.873D+00
 Coeff:      0.648D-03-0.852D-03 0.294D-03-0.579D-03 0.776D-03 0.777D-03
 Coeff:     -0.352D-01-0.479D-01 0.209D+00 0.873D+00
 Gap=     0.247 Goal=   None    Shift=    0.000
 RMSDP=9.97D-06 MaxDP=9.63D-04 DE=-4.18D-07 OVMax= 1.76D-04

 Cycle  11  Pass 1  IDiag  1:
 RMSU=  5.55D-06    CP:  6.20D-01  2.00D+00  2.09D+00  7.12D-01  8.21D-01
                    CP:  6.94D-01  1.09D+00  1.48D+00  1.08D+00  1.18D+00
 E= -3010.52855272156     Delta-E=       -0.000000081436 Rises=F Damp=F
 DIIS: error= 3.18D-06 at cycle  11 NSaved=  11.
 NSaved=11 IEnMin=11 EnMin= -3010.52855272156     IErMin=11 ErrMin= 3.18D-06
 ErrMax= 3.18D-06  0.00D+00 EMaxC= 1.00D-01 BMatC= 3.98D-09 BMatP= 4.09D-08
 IDIUse=1 WtCom= 1.00D+00 WtEn= 0.00D+00
 Coeff-Com: -0.156D-03 0.209D-03 0.549D-04 0.517D-03 0.148D-02 0.321D-02
 Coeff-Com:  0.746D-02-0.181D-01-0.122D+00-0.100D+00 0.123D+01
 Coeff:     -0.156D-03 0.209D-03 0.549D-04 0.517D-03 0.148D-02 0.321D-02
 Coeff:      0.746D-02-0.181D-01-0.122D+00-0.100D+00 0.123D+01
 Gap=     0.247 Goal=   None    Shift=    0.000
 RMSDP=1.02D-05 MaxDP=1.02D-03 DE=-8.14D-08 OVMax= 1.32D-04

 Cycle  12  Pass 1  IDiag  1:
 RMSU=  1.25D-06    CP:  6.20D-01  2.00D+00  2.09D+00  7.11D-01  8.21D-01
                    CP:  6.88D-01  1.08D+00  1.55D+00  1.09D+00  1.43D+00
                    CP:  1.66D+00
 E= -3010.52855274599     Delta-E=       -0.000000024423 Rises=F Damp=F
 DIIS: error= 2.39D-06 at cycle  12 NSaved=  12.
 NSaved=12 IEnMin=12 EnMin= -3010.52855274599     IErMin=12 ErrMin= 2.39D-06
 ErrMax= 2.39D-06  0.00D+00 EMaxC= 1.00D-01 BMatC= 1.07D-09 BMatP= 3.98D-09
 IDIUse=1 WtCom= 1.00D+00 WtEn= 0.00D+00
 Coeff-Com: -0.140D-03 0.184D-03-0.156D-04 0.301D-03 0.362D-03 0.101D-02
 Coeff-Com:  0.989D-02 0.208D-02-0.920D-01-0.222D+00 0.510D+00 0.790D+00
 Coeff:     -0.140D-03 0.184D-03-0.156D-04 0.301D-03 0.362D-03 0.101D-02
 Coeff:      0.989D-02 0.208D-02-0.920D-01-0.222D+00 0.510D+00 0.790D+00
 Gap=     0.247 Goal=   None    Shift=    0.000
 RMSDP=2.70D-06 MaxDP=2.77D-04 DE=-2.44D-08 OVMax= 6.58D-05

 Cycle  13  Pass 1  IDiag  1:
 RMSU=  6.05D-07    CP:  6.20D-01  2.00D+00  2.09D+00  7.11D-01  8.21D-01
                    CP:  6.86D-01  1.08D+00  1.56D+00  1.09D+00  1.48D+00
                    CP:  1.91D+00  1.27D+00
 E= -3010.52855275109     Delta-E=       -0.000000005104 Rises=F Damp=F
 DIIS: error= 9.51D-07 at cycle  13 NSaved=  13.
 NSaved=13 IEnMin=13 EnMin= -3010.52855275109     IErMin=13 ErrMin= 9.51D-07
 ErrMax= 9.51D-07  0.00D+00 EMaxC= 1.00D-01 BMatC= 2.16D-10 BMatP= 1.07D-09
 IDIUse=1 WtCom= 1.00D+00 WtEn= 0.00D+00
 Coeff-Com:  0.941D-05-0.127D-04-0.147D-04-0.865D-04-0.370D-03-0.768D-03
 Coeff-Com: -0.142D-02 0.318D-02 0.257D-01 0.613D-02-0.250D+00 0.159D+00
 Coeff-Com:  0.106D+01
 Coeff:      0.941D-05-0.127D-04-0.147D-04-0.865D-04-0.370D-03-0.768D-03
 Coeff:     -0.142D-02 0.318D-02 0.257D-01 0.613D-02-0.250D+00 0.159D+00
 Coeff:      0.106D+01
 Gap=     0.247 Goal=   None    Shift=    0.000
 RMSDP=9.51D-07 MaxDP=6.51D-05 DE=-5.10D-09 OVMax= 3.68D-05

 Cycle  14  Pass 1  IDiag  1:
 RMSU=  2.98D-07    CP:  6.20D-01  2.00D+00  2.09D+00  7.11D-01  8.21D-01
                    CP:  6.86D-01  1.08D+00  1.56D+00  1.09D+00  1.48D+00
                    CP:  1.98D+00  1.57D+00  1.58D+00
 E= -3010.52855275239     Delta-E=       -0.000000001300 Rises=F Damp=F
 DIIS: error= 3.33D-07 at cycle  14 NSaved=  14.
 NSaved=14 IEnMin=14 EnMin= -3010.52855275239     IErMin=14 ErrMin= 3.33D-07
 ErrMax= 3.33D-07  0.00D+00 EMaxC= 1.00D-01 BMatC= 3.94D-11 BMatP= 2.16D-10
 IDIUse=1 WtCom= 1.00D+00 WtEn= 0.00D+00
 Coeff-Com:  0.109D-04-0.143D-04-0.725D-05-0.673D-04-0.169D-03-0.376D-03
 Coeff-Com: -0.193D-02 0.538D-03 0.243D-01 0.342D-01-0.186D+00-0.560D-01
 Coeff-Com:  0.377D+00 0.809D+00
 Coeff:      0.109D-04-0.143D-04-0.725D-05-0.673D-04-0.169D-03-0.376D-03
 Coeff:     -0.193D-02 0.538D-03 0.243D-01 0.342D-01-0.186D+00-0.560D-01
 Coeff:      0.377D+00 0.809D+00
 Gap=     0.247 Goal=   None    Shift=    0.000
 RMSDP=4.39D-07 MaxDP=4.16D-05 DE=-1.30D-09 OVMax= 1.47D-05

 Cycle  15  Pass 1  IDiag  1:
 RMSU=  1.03D-07    CP:  6.20D-01  2.00D+00  2.09D+00  7.11D-01  8.21D-01
                    CP:  6.86D-01  1.08D+00  1.57D+00  1.09D+00  1.48D+00
                    CP:  2.01D+00  1.67D+00  1.85D+00  1.39D+00
 E= -3010.52855275256     Delta-E=       -0.000000000172 Rises=F Damp=F
 DIIS: error= 1.43D-07 at cycle  15 NSaved=  15.
 NSaved=15 IEnMin=15 EnMin= -3010.52855275256     IErMin=15 ErrMin= 1.43D-07
 ErrMax= 1.43D-07  0.00D+00 EMaxC= 1.00D-01 BMatC= 7.91D-12 BMatP= 3.94D-11
 IDIUse=1 WtCom= 1.00D+00 WtEn= 0.00D+00
 Coeff-Com:  0.689D-05-0.915D-05 0.222D-05-0.465D-05 0.333D-04 0.765D-04
 Coeff-Com: -0.166D-03-0.474D-03 0.141D-02 0.740D-02 0.334D-02-0.456D-01
 Coeff-Com: -0.148D+00 0.267D+00 0.915D+00
 Coeff:      0.689D-05-0.915D-05 0.222D-05-0.465D-05 0.333D-04 0.765D-04
 Coeff:     -0.166D-03-0.474D-03 0.141D-02 0.740D-02 0.334D-02-0.456D-01
 Coeff:     -0.148D+00 0.267D+00 0.915D+00
 Gap=     0.247 Goal=   None    Shift=    0.000
 RMSDP=1.52D-07 MaxDP=9.55D-06 DE=-1.72D-10 OVMax= 6.70D-06

 Cycle  16  Pass 1  IDiag  1:
 RMSU=  5.03D-08    CP:  6.20D-01  2.00D+00  2.09D+00  7.11D-01  8.21D-01
                    CP:  6.86D-01  1.08D+00  1.57D+00  1.08D+00  1.48D+00
                    CP:  2.01D+00  1.70D+00  1.97D+00  1.64D+00  1.35D+00
 E= -3010.52855275261     Delta-E=       -0.000000000048 Rises=F Damp=F
 DIIS: error= 4.32D-08 at cycle  16 NSaved=  16.
 NSaved=16 IEnMin=16 EnMin= -3010.52855275261     IErMin=16 ErrMin= 4.32D-08
 ErrMax= 4.32D-08  0.00D+00 EMaxC= 1.00D-01 BMatC= 6.14D-13 BMatP= 7.91D-12
 IDIUse=1 WtCom= 1.00D+00 WtEn= 0.00D+00
 Coeff-Com:  0.905D-06-0.122D-05 0.145D-05 0.570D-05 0.240D-04 0.561D-04
 Coeff-Com:  0.148D-03-0.243D-03-0.224D-02-0.165D-02 0.191D-01-0.560D-02
 Coeff-Com: -0.716D-01-0.339D-01 0.169D+00 0.927D+00
 Coeff:      0.905D-06-0.122D-05 0.145D-05 0.570D-05 0.240D-04 0.561D-04
 Coeff:      0.148D-03-0.243D-03-0.224D-02-0.165D-02 0.191D-01-0.560D-02
 Coeff:     -0.716D-01-0.339D-01 0.169D+00 0.927D+00
 Gap=     0.247 Goal=   None    Shift=    0.000
 RMSDP=8.10D-08 MaxDP=9.14D-06 DE=-4.77D-11 OVMax= 2.10D-06

 Cycle  17  Pass 1  IDiag  1:
 RMSU=  1.66D-08    CP:  6.20D-01  2.00D+00  2.09D+00  7.11D-01  8.21D-01
                    CP:  6.86D-01  1.08D+00  1.57D+00  1.08D+00  1.48D+00
                    CP:  2.01D+00  1.70D+00  2.01D+00  1.74D+00  1.59D+00
                    CP:  1.11D+00
 E= -3010.52855275257     Delta-E=        0.000000000042 Rises=F Damp=F
 DIIS: error= 2.04D-08 at cycle  17 NSaved=  17.
 NSaved=17 IEnMin=16 EnMin= -3010.52855275261     IErMin=17 ErrMin= 2.04D-08
 ErrMax= 2.04D-08  0.00D+00 EMaxC= 1.00D-01 BMatC= 1.55D-13 BMatP= 6.14D-13
 IDIUse=1 WtCom= 1.00D+00 WtEn= 0.00D+00
 Coeff-Com: -0.104D-05 0.139D-05 0.118D-06 0.290D-05 0.480D-05 0.108D-04
 Coeff-Com:  0.653D-04 0.763D-05-0.863D-03-0.130D-02 0.643D-02 0.447D-02
 Coeff-Com: -0.596D-03-0.473D-01-0.723D-01 0.292D+00 0.819D+00
 Coeff:     -0.104D-05 0.139D-05 0.118D-06 0.290D-05 0.480D-05 0.108D-04
 Coeff:      0.653D-04 0.763D-05-0.863D-03-0.130D-02 0.643D-02 0.447D-02
 Coeff:     -0.596D-03-0.473D-01-0.723D-01 0.292D+00 0.819D+00
 Gap=     0.247 Goal=   None    Shift=    0.000
 RMSDP=2.01D-08 MaxDP=1.25D-06 DE= 4.23D-11 OVMax= 4.05D-07

 Cycle  18  Pass 1  IDiag  1:
 RMSU=  5.14D-09    CP:  6.20D-01  2.00D+00  2.09D+00  7.11D-01  8.21D-01
                    CP:  6.86D-01  1.08D+00  1.57D+00  1.08D+00  1.48D+00
                    CP:  2.01D+00  1.70D+00  2.01D+00  1.75D+00  1.67D+00
                    CP:  1.31D+00  1.19D+00
 E= -3010.52855275262     Delta-E=       -0.000000000049 Rises=F Damp=F
 DIIS: error= 1.01D-08 at cycle  18 NSaved=  18.
 NSaved=18 IEnMin=18 EnMin= -3010.52855275262     IErMin=18 ErrMin= 1.01D-08
 ErrMax= 1.01D-08  0.00D+00 EMaxC= 1.00D-01 BMatC= 3.31D-14 BMatP= 1.55D-13
 IDIUse=1 WtCom= 1.00D+00 WtEn= 0.00D+00
 Coeff-Com: -0.252D-06 0.338D-06-0.260D-06-0.949D-06-0.595D-05-0.133D-04
 Coeff-Com: -0.235D-04 0.832D-04 0.273D-03-0.129D-03-0.329D-02 0.212D-02
 Coeff-Com:  0.190D-01-0.854D-02-0.669D-01-0.131D+00 0.275D+00 0.914D+00
 Coeff:     -0.252D-06 0.338D-06-0.260D-06-0.949D-06-0.595D-05-0.133D-04
 Coeff:     -0.235D-04 0.832D-04 0.273D-03-0.129D-03-0.329D-02 0.212D-02
 Coeff:      0.190D-01-0.854D-02-0.669D-01-0.131D+00 0.275D+00 0.914D+00
 Gap=     0.247 Goal=   None    Shift=    0.000
 RMSDP=2.62D-08 MaxDP=2.63D-06 DE=-4.91D-11 OVMax= 4.30D-07

 Cycle  19  Pass 1  IDiag  1:
 RMSU=  2.42D-09    CP:  6.20D-01  2.00D+00  2.09D+00  7.11D-01  8.21D-01
                    CP:  6.86D-01  1.08D+00  1.57D+00  1.08D+00  1.48D+00
                    CP:  2.01D+00  1.71D+00  2.02D+00  1.75D+00  1.71D+00
                    CP:  1.40D+00  1.45D+00  1.45D+00
 E= -3010.52855275256     Delta-E=        0.000000000056 Rises=F Damp=F
 DIIS: error= 5.39D-09 at cycle  19 NSaved=  19.
 NSaved=19 IEnMin=18 EnMin= -3010.52855275262     IErMin=19 ErrMin= 5.39D-09
 ErrMax= 5.39D-09  0.00D+00 EMaxC= 1.00D-01 BMatC= 3.18D-15 BMatP= 3.31D-14
 IDIUse=1 WtCom= 1.00D+00 WtEn= 0.00D+00
 Large coefficients: NSaved= 19 BigCof=    0.00 CofMax=   10.00 Det=-6.12D-15
 Inversion failed.  Reducing to 18 matrices.
 Large coefficients: NSaved= 18 BigCof=    0.00 CofMax=   10.00 Det=-6.17D-15
 Inversion failed.  Reducing to 17 matrices.
 Large coefficients: NSaved= 17 BigCof=    0.00 CofMax=   10.00 Det=-8.23D-15
 Inversion failed.  Reducing to 16 matrices.
 Large coefficients: NSaved= 16 BigCof=    0.00 CofMax=   10.00 Det=-8.79D-15
 Inversion failed.  Reducing to 15 matrices.
 Coeff-Com:  0.136D-06-0.127D-06-0.387D-05-0.500D-06 0.422D-04 0.756D-04
 Coeff-Com: -0.276D-03-0.337D-03 0.248D-03 0.356D-02 0.782D-02-0.316D-01
 Coeff-Com: -0.874D-01 0.379D-02 0.110D+01
 Coeff:      0.136D-06-0.127D-06-0.387D-05-0.500D-06 0.422D-04 0.756D-04
 Coeff:     -0.276D-03-0.337D-03 0.248D-03 0.356D-02 0.782D-02-0.316D-01
 Coeff:     -0.874D-01 0.379D-02 0.110D+01
 Gap=     0.247 Goal=   None    Shift=    0.000
 RMSDP=5.69D-09 MaxDP=5.33D-07 DE= 5.64D-11 OVMax= 1.14D-07

 SCF Done:  E(RwB97XD) =  -3010.52855275     A.U. after   19 cycles
            NFock= 19  Conv=0.57D-08     -V/T= 2.0016
 KE= 3.005856458517D+03 PE=-8.701290529474D+03 EE= 1.910390305708D+03
 Leave Link  502 at Thu May  2 14:18:27 2024, MaxMem=   134217728 cpu:            1184.5 elap:            1189.8
 (Enter /software/gaussian/g16-c01/sse4/g16/l601.exe)
 Copying SCF densities to generalized density rwf, IOpCl= 0 IROHF=0.

 **********************************************************************

            Population analysis using the SCF Density.

 **********************************************************************

 Alpha  occ. eigenvalues -- -483.32339 -62.87363 -56.67056 -56.66488 -56.66478
 Alpha  occ. eigenvalues --  -19.48559 -19.48523 -14.87914 -10.60482 -10.59267
 Alpha  occ. eigenvalues --  -10.58247 -10.57860 -10.54754 -10.53485  -9.03170
 Alpha  occ. eigenvalues --   -6.85848  -6.83982  -6.83953  -2.95753  -2.95261
 Alpha  occ. eigenvalues --   -2.95237  -2.93744  -2.93743  -1.52217  -1.35202
 Alpha  occ. eigenvalues --   -1.23613  -1.14002  -1.13695  -1.05994  -1.01700
 Alpha  occ. eigenvalues --   -0.96433  -0.91800  -0.86664  -0.82762  -0.81792
 Alpha  occ. eigenvalues --   -0.81568  -0.79034  -0.78166  -0.76789  -0.73096
 Alpha  occ. eigenvalues --   -0.69398  -0.68635  -0.64385  -0.61054  -0.59682
 Alpha  occ. eigenvalues --   -0.59026  -0.58302  -0.57458  -0.55919
 Alpha virt. eigenvalues --   -0.31246  -0.22106  -0.16886  -0.14404  -0.09341
 Alpha virt. eigenvalues --   -0.06840  -0.06087  -0.05601  -0.05255  -0.03934
 Alpha virt. eigenvalues --   -0.03301  -0.02858  -0.02377  -0.01703  -0.00764
 Alpha virt. eigenvalues --   -0.00357   0.00508   0.00783   0.01536   0.02362
 Alpha virt. eigenvalues --    0.03247   0.04189   0.04622   0.05285   0.05892
 Alpha virt. eigenvalues --    0.06231   0.06435   0.07108   0.08045   0.08466
 Alpha virt. eigenvalues --    0.09115   0.09685   0.10202   0.10486   0.11396
 Alpha virt. eigenvalues --    0.11527   0.11802   0.12141   0.13533   0.14867
 Alpha virt. eigenvalues --    0.15642   0.15947   0.16388   0.17317   0.18352
 Alpha virt. eigenvalues --    0.18866   0.19398   0.20027   0.20387   0.21950
 Alpha virt. eigenvalues --    0.22673   0.24106   0.26199   0.27766   0.30559
 Alpha virt. eigenvalues --    0.30956   0.31157   0.32187   0.32425   0.34460
 Alpha virt. eigenvalues --    0.36115   0.36562   0.38569   0.39670   0.40915
 Alpha virt. eigenvalues --    0.42516   0.42876   0.44282   0.45955   0.46143
 Alpha virt. eigenvalues --    0.47276   0.48669   0.49591   0.51096   0.52152
 Alpha virt. eigenvalues --    0.54045   0.54871   0.56823   0.57242   0.59291
 Alpha virt. eigenvalues --    0.60434   0.61218   0.63241   0.66414   0.67506
 Alpha virt. eigenvalues --    0.70511   0.70763   0.72490   0.72647   0.73723
 Alpha virt. eigenvalues --    0.73890   0.76173   0.78002   0.82022   0.84310
 Alpha virt. eigenvalues --    0.85313   0.86249   0.89966   0.93103   0.96831
 Alpha virt. eigenvalues --    0.98326   1.00915   1.02631   1.04479   1.05591
 Alpha virt. eigenvalues --    1.06883   1.10492   1.11384   1.12002   1.16016
 Alpha virt. eigenvalues --    1.19014   1.20671   1.26905   1.32352   1.35265
 Alpha virt. eigenvalues --    1.35912   1.37821   1.42116   1.53634   1.55324
 Alpha virt. eigenvalues --    1.55844   1.58092   1.60018   1.62716   1.64761
 Alpha virt. eigenvalues --    1.66665   1.70376   1.72049   1.74316   1.78380
 Alpha virt. eigenvalues --    1.83335   1.84207   1.85963   1.93721   1.95010
 Alpha virt. eigenvalues --    1.96333   2.01088   2.01747   2.06006   2.07872
 Alpha virt. eigenvalues --    2.11786   2.13633   2.21246   2.22191   2.26723
 Alpha virt. eigenvalues --    2.32540   2.38495   2.39951   2.43108   2.52336
 Alpha virt. eigenvalues --    2.57090   2.61992   2.65000   2.67699   2.69402
 Alpha virt. eigenvalues --    2.71889   2.74230   2.76066   2.78470   2.80906
 Alpha virt. eigenvalues --    2.92132   2.96591   2.99646   3.04594   3.07886
 Alpha virt. eigenvalues --    3.13859   3.15357   3.16734   3.20441   3.24329
 Alpha virt. eigenvalues --    3.26570   3.36258   3.45888   3.48814   3.52582
 Alpha virt. eigenvalues --    3.56173   3.66641   3.71972   3.82662   3.86323
 Alpha virt. eigenvalues --    4.08878   4.09736   4.18282   4.22428   4.41820
 Alpha virt. eigenvalues --    4.43194   4.53496   4.57991   4.91153   4.93962
 Alpha virt. eigenvalues --    5.02835   5.07308   5.59705   6.12770   6.66904
 Alpha virt. eigenvalues --    7.47757   7.50079   7.60192  23.21230  23.60303
 Alpha virt. eigenvalues --   23.70785  23.77179  23.94910  24.00996  35.29254
 Alpha virt. eigenvalues --   47.92989  49.82908  49.91571 289.80631 289.82971
 Alpha virt. eigenvalues --  289.955921020.94172
          Condensed to atoms (all electrons):
               1          2          3          4          5          6
     1  C    7.540517  -2.321159   0.720268  -0.012478   0.296730   0.056593
     2  C   -2.321159  16.780717  -3.805597   0.454954  -0.019044   0.201427
     3  C    0.720268  -3.805597  18.367742  -1.227746   0.023384   0.115200
     4  C   -0.012478   0.454954  -1.227746   6.321315   0.026041  -0.016505
     5  H    0.296730  -0.019044   0.023384   0.026041   0.322340  -0.001649
     6  H    0.056593   0.201427   0.115200  -0.016505  -0.001649   0.316771
     7  H    0.024874  -0.023690   0.018820   0.305844  -0.002534  -0.000001
     8  N   -0.076284  -0.045829  -1.716440   0.013367  -0.000444  -0.030152
     9  O   -0.014736   0.271509  -0.074058  -0.013521  -0.000030  -0.002390
    10  O    0.249335  -0.193618  -0.246051  -0.022048  -0.000009   0.019790
    11  C    0.661402  -0.659822   2.100337  -0.212757  -0.023982   0.009253
    12  H   -0.011256   0.019115   0.004695   0.021807   0.000024  -0.000017
    13  C   -1.006718  -4.659869  -7.994257   0.690663   0.024153  -0.013297
    14  H   -0.002907   0.019667   0.056569   0.002512  -0.000031   0.000054
    15  Br   0.009675  -0.203916  -0.247543   0.000660  -0.000017  -0.000621
               7          8          9         10         11         12
     1  C    0.024874  -0.076284  -0.014736   0.249335   0.661402  -0.011256
     2  C   -0.023690  -0.045829   0.271509  -0.193618  -0.659822   0.019115
     3  C    0.018820  -1.716440  -0.074058  -0.246051   2.100337   0.004695
     4  C    0.305844   0.013367  -0.013521  -0.022048  -0.212757   0.021807
     5  H   -0.002534  -0.000444  -0.000030  -0.000009  -0.023982   0.000024
     6  H   -0.000001  -0.030152  -0.002390   0.019790   0.009253  -0.000017
     7  H    0.321707   0.000038   0.000001   0.000001   0.028273  -0.002153
     8  N    0.000038   7.557758   0.089623   0.222447  -0.250103   0.000314
     9  O    0.000001   0.089623   7.891799  -0.002348   0.234617   0.000116
    10  O    0.000001   0.222447  -0.002348   7.822689   0.006939  -0.000022
    11  C    0.028273  -0.250103   0.234617   0.006939   7.604629   0.316220
    12  H   -0.002153   0.000314   0.000116  -0.000022   0.316220   0.311829
    13  C   -0.019264   1.342092  -0.408970   0.088412  -3.679120  -0.022683
    14  H   -0.000027  -0.033282   0.012156  -0.001729  -0.001138  -0.004439
    15  Br  -0.000438   0.165785  -0.057376   0.004671   0.053145   0.000383
              13         14         15
     1  C   -1.006718  -0.002907   0.009675
     2  C   -4.659869   0.019667  -0.203916
     3  C   -7.994257   0.056569  -0.247543
     4  C    0.690663   0.002512   0.000660
     5  H    0.024153  -0.000031  -0.000017
     6  H   -0.013297   0.000054  -0.000621
     7  H   -0.019264  -0.000027  -0.000438
     8  N    1.342092  -0.033282   0.165785
     9  O   -0.408970   0.012156  -0.057376
    10  O    0.088412  -0.001729   0.004671
    11  C   -3.679120  -0.001138   0.053145
    12  H   -0.022683  -0.004439   0.000383
    13  C   21.306836   0.258209   0.433040
    14  H    0.258209   0.330674  -0.042808
    15  Br   0.433040  -0.042808  34.710115
 Mulliken charges:
               1
     1  C   -0.113856
     2  C    0.185155
     3  C   -0.095323
     4  C   -0.332108
     5  H    0.355068
     6  H    0.345545
     7  H    0.348549
     8  N   -0.238891
     9  O    0.073607
    10  O    0.051542
    11  C   -0.187894
    12  H    0.366066
    13  C   -0.339225
    14  H    0.406519
    15  Br   0.175245
 Sum of Mulliken charges =   1.00000
 Mulliken charges with hydrogens summed into heavy atoms:
               1
     1  C    0.241213
     2  C    0.530700
     3  C   -0.095323
     4  C    0.016441
     8  N   -0.238891
     9  O    0.073607
    10  O    0.051542
    11  C    0.178172
    13  C    0.067294
    15  Br   0.175245
 Electronic spatial extent (au):  <R**2>=           3949.4182
 Charge=              1.0000 electrons
 Dipole moment (field-independent basis, Debye):
    X=              1.7027    Y=             -0.8494    Z=             -0.6969  Tot=              2.0264
 Quadrupole moment (field-independent basis, Debye-Ang):
   XX=            -72.0903   YY=            -51.2136   ZZ=            -62.2824
   XY=             -2.7007   XZ=             -2.2604   YZ=              2.3298
 Traceless Quadrupole moment (field-independent basis, Debye-Ang):
   XX=            -10.2282   YY=             10.6485   ZZ=             -0.4203
   XY=             -2.7007   XZ=             -2.2604   YZ=              2.3298
 Octapole moment (field-independent basis, Debye-Ang**2):
  XXX=           -534.8729  YYY=             92.4812  ZZZ=             83.2580  XYY=           -139.0395
  XXY=             25.1117  XXZ=             26.4659  XZZ=           -133.8820  YZZ=             17.4497
  YYZ=             25.9502  XYZ=              7.3492
 Hexadecapole moment (field-independent basis, Debye-Ang**3):
 XXXX=          -3557.4359 YYYY=           -702.3393 ZZZZ=           -396.1191 XXXY=            180.6157
 XXXZ=            186.6346 YYYX=            187.0021 YYYZ=           -172.7654 ZZZX=            169.3880
 ZZZY=           -145.1194 XXYY=           -634.0112 XXZZ=           -531.2512 YYZZ=           -172.0825
 XXYZ=            -43.3158 YYXZ=             50.9232 ZZXY=             30.4885
 N-N= 7.745152124976D+02 E-N=-8.701290529113D+03  KE= 3.005856458517D+03
 No NMR shielding tensors so no spin-rotation constants.
 Leave Link  601 at Thu May  2 14:18:34 2024, MaxMem=   134217728 cpu:               7.3 elap:               7.3
 (Enter /software/gaussian/g16-c01/sse4/g16/l9999.exe)
 Unable to Open any file for archive entry.
 1\1\GINC-BHX0006\SP\RwB97XD\6-311+G(d)\C6H5Br1N1O2(1+)\BWEIGHT\02-May-
 2024\0\\#P wB97XD/6-311+G* NoSymm #P Field=X+38\\TitleMe\\1,1\C,0,0.51
 93,1.233,-0.0319\C,0,1.9445,1.2692,-0.0367\C,0,2.6204,0.0928,-0.025\C,
 0,-0.196,0.0301,0.001\H,0,-0.0207,2.1742,-0.0434\H,0,2.4828,2.2089,-0.
 0361\H,0,-1.2777,0.0399,0.0117\N,0,4.0921,0.0959,0.0366\O,0,4.6393,-1.
 0217,0.1446\O,0,4.6649,1.1984,-0.0233\C,0,0.4943,-1.1671,0.021\H,0,-0.
 0325,-2.1149,0.0545\C,0,1.9629,-1.2165,-0.0211\H,0,2.4436,-1.9631,0.61
 51\Br,0,2.173,-1.9491,-1.9062\\Version=ES64L-G16RevC.01\HF=-3010.52855
 28\RMSD=5.695e-09\Dipole=-3.659312,0.893939,0.9750384\Quadrupole=-7.60
 44094,7.9168639,-0.3124545,-2.0078861,-1.6805441,1.7321259\PG=C01 [X(C
 6H5Br1N1O2)]\\@
 The archive entry for this job was punched.


 Where a calculator on the ENIAC is equipped with 18,000
 vacuum tubes and weighs 30 tons, computers inthe future
 may  have only 1,000 vacuum tubes and weigh only 1 1/2 tons.
              ---Popular Mechanics, March 1949
 Job cpu time:       0 days  0 hours 20 minutes 56.9 seconds.
 Elapsed time:       0 days  0 hours 21 minutes  2.5 seconds.
 File lengths (MBytes):  RWF=     40 Int=      0 D2E=      0 Chk=     32 Scr=      1
 Normal termination of Gaussian 16 at Thu May  2 14:18:35 2024.
