 Entering Gaussian System, Link 0=g16
 Initial command:
 /software/gaussian/g16-c01/sse4/g16/l1.exe "/local_scratch/24665347/Gau-10547.inp" -scrdir="/local_scratch/24665347/"
 Entering Link 1 = /software/gaussian/g16-c01/sse4/g16/l1.exe PID=     10553.
  
 Copyright (c) 1988-2019, Gaussian, Inc.  All Rights Reserved.
  
 This is part of the Gaussian(R) 16 program.  It is based on
 the Gaussian(R) 09 system (copyright 2009, Gaussian, Inc.),
 the Gaussian(R) 03 system (copyright 2003, Gaussian, Inc.),
 the Gaussian(R) 98 system (copyright 1998, Gaussian, Inc.),
 the Gaussian(R) 94 system (copyright 1995, Gaussian, Inc.),
 the Gaussian 92(TM) system (copyright 1992, Gaussian, Inc.),
 the Gaussian 90(TM) system (copyright 1990, Gaussian, Inc.),
 the Gaussian 88(TM) system (copyright 1988, Gaussian, Inc.),
 the Gaussian 86(TM) system (copyright 1986, Carnegie Mellon
 University), and the Gaussian 82(TM) system (copyright 1983,
 Carnegie Mellon University). Gaussian is a federally registered
 trademark of Gaussian, Inc.
  
 This software contains proprietary and confidential information,
 including trade secrets, belonging to Gaussian, Inc.
  
 This software is provided under written license and may be
 used, copied, transmitted, or stored only in accord with that
 written license.
  
 The following legend is applicable only to US Government
 contracts under FAR:
  
                    RESTRICTED RIGHTS LEGEND
  
 Use, reproduction and disclosure by the US Government is
 subject to restrictions as set forth in subparagraphs (a)
 and (c) of the Commercial Computer Software - Restricted
 Rights clause in FAR 52.227-19.
  
 Gaussian, Inc.
 340 Quinnipiac St., Bldg. 40, Wallingford CT 06492
  
  
 ---------------------------------------------------------------
 Warning -- This program may not be used in any manner that
 competes with the business of Gaussian, Inc. or will provide
 assistance to any competitor of Gaussian, Inc.  The licensee
 of this program is prohibited from giving any competitor of
 Gaussian, Inc. access to this program.  By using this program,
 the user acknowledges that Gaussian, Inc. is engaged in the
 business of creating and licensing software in the field of
 computational chemistry and represents and warrants to the
 licensee that it is not a competitor of Gaussian, Inc. and that
 it will not use this program in any manner prohibited above.
 ---------------------------------------------------------------
  

 Cite this work as:
 Gaussian 16, Revision C.01,
 M. J. Frisch, G. W. Trucks, H. B. Schlegel, G. E. Scuseria, 
 M. A. Robb, J. R. Cheeseman, G. Scalmani, V. Barone, 
 G. A. Petersson, H. Nakatsuji, X. Li, M. Caricato, A. V. Marenich, 
 J. Bloino, B. G. Janesko, R. Gomperts, B. Mennucci, H. P. Hratchian, 
 J. V. Ortiz, A. F. Izmaylov, J. L. Sonnenberg, D. Williams-Young, 
 F. Ding, F. Lipparini, F. Egidi, J. Goings, B. Peng, A. Petrone, 
 T. Henderson, D. Ranasinghe, V. G. Zakrzewski, J. Gao, N. Rega, 
 G. Zheng, W. Liang, M. Hada, M. Ehara, K. Toyota, R. Fukuda, 
 J. Hasegawa, M. Ishida, T. Nakajima, Y. Honda, O. Kitao, H. Nakai, 
 T. Vreven, K. Throssell, J. A. Montgomery, Jr., J. E. Peralta, 
 F. Ogliaro, M. J. Bearpark, J. J. Heyd, E. N. Brothers, K. N. Kudin, 
 V. N. Staroverov, T. A. Keith, R. Kobayashi, J. Normand, 
 K. Raghavachari, A. P. Rendell, J. C. Burant, S. S. Iyengar, 
 J. Tomasi, M. Cossi, J. M. Millam, M. Klene, C. Adamo, R. Cammi, 
 J. W. Ochterski, R. L. Martin, K. Morokuma, O. Farkas, 
 J. B. Foresman, and D. J. Fox, Gaussian, Inc., Wallingford CT, 2019.
 
 ******************************************
 Gaussian 16:  ES64L-G16RevC.01  3-Jul-2019
                 2-May-2024 
 ******************************************
 %chk=geometry.chk
 %mem=1GB
 %nprocshared=12
 Will use up to   12 processors via shared memory.
 ----------------------------------------
 #P wB97XD/6-311+G* NoSymm #P Field=Y+233
 ----------------------------------------
 1/38=1,172=1/1;
 2/12=2,15=1,17=6,18=5,40=1/2;
 3/5=4,6=6,7=11,11=2,14=2,15=233,25=1,30=1,74=-58/1,2,3;
 4//1;
 5/5=2,38=5/2;
 6/7=2,8=2,9=2,10=2,28=1/1;
 99/5=1,9=1/99;
 Leave Link    1 at Thu May  2 13:58:21 2024, MaxMem=   134217728 cpu:               1.7 elap:               1.7
 (Enter /software/gaussian/g16-c01/sse4/g16/l101.exe)
 -------
 TitleMe
 -------
 Symbolic Z-matrix:
 Charge =  1 Multiplicity = 1
 C                     0.5193    1.233    -0.0319 
 C                     1.9445    1.2692   -0.0367 
 C                     2.6204    0.0928   -0.025 
 C                    -0.196     0.0301    0.001 
 H                    -0.0207    2.1742   -0.0434 
 H                     2.4828    2.2089   -0.0361 
 H                    -1.2777    0.0399    0.0117 
 N                     4.0921    0.0959    0.0366 
 O                     4.6393   -1.0217    0.1446 
 O                     4.6649    1.1984   -0.0233 
 C                     0.4943   -1.1671    0.021 
 H                    -0.0325   -2.1149    0.0545 
 C                     1.9629   -1.2165   -0.0211 
 H                     2.4436   -1.9631    0.6151 
 Br                    2.173    -1.9491   -1.9062 
 
 ITRead=  0  0  0  0  0  0  0  0  0  0  0  0  0  0  0
 MicOpt= -1 -1 -1 -1 -1 -1 -1 -1 -1 -1 -1 -1 -1 -1 -1
 NAtoms=     15 NQM=       15 NQMF=       0 NMMI=      0 NMMIF=      0
                NMic=       0 NMicF=      0.
                    Isotopes and Nuclear Properties:
 (Nuclear quadrupole moments (NQMom) in fm**2, nuclear magnetic moments (NMagM)
  in nuclear magnetons)

  Atom         1           2           3           4           5           6           7           8           9          10
 IAtWgt=          12          12          12          12           1           1           1          14          16          16
 AtmWgt=  12.0000000  12.0000000  12.0000000  12.0000000   1.0078250   1.0078250   1.0078250  14.0030740  15.9949146  15.9949146
 NucSpn=           0           0           0           0           1           1           1           2           0           0
 AtZEff=  -0.0000000  -0.0000000  -0.0000000  -0.0000000  -0.0000000  -0.0000000  -0.0000000  -0.0000000  -0.0000000  -0.0000000
 NQMom=    0.0000000   0.0000000   0.0000000   0.0000000   0.0000000   0.0000000   0.0000000   2.0440000   0.0000000   0.0000000
 NMagM=    0.0000000   0.0000000   0.0000000   0.0000000   2.7928460   2.7928460   2.7928460   0.4037610   0.0000000   0.0000000
 AtZNuc=   6.0000000   6.0000000   6.0000000   6.0000000   1.0000000   1.0000000   1.0000000   7.0000000   8.0000000   8.0000000

  Atom        11          12          13          14          15
 IAtWgt=          12           1          12           1          79
 AtmWgt=  12.0000000   1.0078250  12.0000000   1.0078250  78.9183361
 NucSpn=           0           1           0           1           3
 AtZEff=  -0.0000000  -0.0000000  -0.0000000  -0.0000000  -0.0000000
 NQMom=    0.0000000   0.0000000   0.0000000   0.0000000  31.3000000
 NMagM=    0.0000000   2.7928460   0.0000000   2.7928460   2.1063990
 AtZNuc=   6.0000000   1.0000000   6.0000000   1.0000000  35.0000000
 Leave Link  101 at Thu May  2 13:58:23 2024, MaxMem=   134217728 cpu:               1.8 elap:               1.8
 (Enter /software/gaussian/g16-c01/sse4/g16/l202.exe)
                          Input orientation:                          
 ---------------------------------------------------------------------
 Center     Atomic      Atomic             Coordinates (Angstroms)
 Number     Number       Type             X           Y           Z
 ---------------------------------------------------------------------
      1          6           0        0.519300    1.233000   -0.031900
      2          6           0        1.944500    1.269200   -0.036700
      3          6           0        2.620400    0.092800   -0.025000
      4          6           0       -0.196000    0.030100    0.001000
      5          1           0       -0.020700    2.174200   -0.043400
      6          1           0        2.482800    2.208900   -0.036100
      7          1           0       -1.277700    0.039900    0.011700
      8          7           0        4.092100    0.095900    0.036600
      9          8           0        4.639300   -1.021700    0.144600
     10          8           0        4.664900    1.198400   -0.023300
     11          6           0        0.494300   -1.167100    0.021000
     12          1           0       -0.032500   -2.114900    0.054500
     13          6           0        1.962900   -1.216500   -0.021100
     14          1           0        2.443600   -1.963100    0.615100
     15         35           0        2.173000   -1.949100   -1.906200
 ---------------------------------------------------------------------
                    Distance matrix (angstroms):
                    1          2          3          4          5
     1  C    0.000000
     2  C    1.425668   0.000000
     3  C    2.390549   1.356796   0.000000
     4  C    1.399895   2.473566   2.817218   0.000000
     5  H    1.085168   2.163581   3.362733   2.151712   0.000000
     6  H    2.192654   1.082960   2.120598   3.453189   2.503751
     7  H    2.157452   3.449071   3.898632   1.081797   2.477564
     8  N    3.750012   2.448304   1.472992   4.288753   4.608780
     9  O    4.699917   3.541615   2.312322   4.950458   5.653735
    10  O    4.145753   2.721354   2.324292   4.999386   4.786171
    11  C    2.400813   2.835836   2.471794   1.382101   3.381369
    12  H    3.394169   3.920329   3.452266   2.151887   4.290233
    13  C    2.843264   2.485817   1.465124   2.493060   3.928360
    14  H    3.786370   3.334922   2.160489   3.364142   4.860416
    15  Br   4.046416   3.728900   2.812194   3.628609   5.028314
                    6          7          8          9         10
     6  H    0.000000
     7  H    4.341452   0.000000
     8  N    2.657047   5.370150   0.000000
     9  O    3.888434   6.012948   1.249048   0.000000
    10  O    2.404752   6.054572   1.243863   2.226587   0.000000
    11  C    3.918516   2.144043   3.813080   4.149391   4.794941
    12  H    5.003018   2.489080   4.679774   4.798846   5.748876
    13  C    3.464662   3.475788   2.501842   2.688591   3.623886
    14  H    4.222698   4.268978   2.700314   2.434893   3.916224
    15  Br   4.569706   4.420610   3.411663   3.338935   4.434144
                   11         12         13         14         15
    11  C    0.000000
    12  H    1.084880   0.000000
    13  C    1.470034   2.189625   0.000000
    14  H    2.187771   2.543302   1.092353   0.000000
    15  Br   2.672762   2.955683   2.033334   2.535818   0.000000
 Symmetry turned off by external request.
 Stoichiometry    C6H5BrNO2(1+)
 Framework group  C1[X(C6H5BrNO2)]
 Deg. of freedom    39
 Full point group                 C1      NOp   1
 Rotational constants (GHZ):           1.1632986           0.9594224           0.5957624
 Leave Link  202 at Thu May  2 13:58:24 2024, MaxMem=   134217728 cpu:               1.2 elap:               1.2
 (Enter /software/gaussian/g16-c01/sse4/g16/l301.exe)
 Standard basis: 6-311+G(d) (5D, 7F)
 Ernie: Thresh=  0.10000D-02 Tol=  0.10000D-05 Strict=F.
 The following finite field(s) will be applied:
 An electric field of              0.0000  0.0233  0.0000
   261 basis functions,   443 primitive gaussians,   273 cartesian basis functions
    49 alpha electrons       49 beta electrons
       nuclear repulsion energy       772.8945969580 Hartrees.
 IExCor= 4639 DFT=T Ex+Corr=wB97XD ExCW=0 ScaHFX=  1.000000
 ScaDFX=  1.000000  1.000000  1.000000  1.000000 ScalE2=  1.000000  1.000000
 IRadAn=      5 IRanWt=     -1 IRanGd=            0 ICorTp=0 IEmpDi=121
 HFx  wShort=  0.000000 wLong=  0.200000 cFull=  0.222036 cShort=  0.000000 cLong=  0.777964
 DFx  wShort=  0.000000 wLong=  0.200000 cFull=  0.000000 cShort=  0.000000 cLong=  1.000000
 NAtoms=   15 NActive=   15 NUniq=   15 SFac= 1.00D+00 NAtFMM=   60 NAOKFM=F Big=F
 Integral buffers will be    131072 words long.
 Raffenetti 2 integral format.
 Two-electron integral symmetry is turned off.
 R6Disp:  Grimme-D2 Dispersion energy=       -0.0080346408 Hartrees.
 Nuclear repulsion after empirical dispersion term =      772.8865623173 Hartrees.
 Leave Link  301 at Thu May  2 13:58:25 2024, MaxMem=   134217728 cpu:               1.0 elap:               1.0
 (Enter /software/gaussian/g16-c01/sse4/g16/l302.exe)
 NPDir=0 NMtPBC=     1 NCelOv=     1 NCel=       1 NClECP=     1 NCelD=      1
         NCelK=      1 NCelE2=     1 NClLst=     1 CellRange=     0.0.
 One-electron integrals computed using PRISM.
 NBasis=   261 RedAO= T EigKep=  2.52D-06  NBF=   261
 NBsUse=   261 1.00D-06 EigRej= -1.00D+00 NBFU=   261
 Precomputing XC quadrature grid using
 IXCGrd= 4 IRadAn=           5 IRanWt=          -1 IRanGd=           0 AccXCQ= 0.00D+00.
 Generated NRdTot=       0 NPtTot=           0 NUsed=           0 NTot=          32
 NSgBfM=   273   273   273   273   273 MxSgAt=    15 MxSgA2=    15.
 Leave Link  302 at Thu May  2 13:58:47 2024, MaxMem=   134217728 cpu:              21.6 elap:              21.7
 (Enter /software/gaussian/g16-c01/sse4/g16/l303.exe)
 DipDrv:  MaxL=1.
 The nuclear repulsion energy is now       770.0536499222 hartrees.
 Leave Link  303 at Thu May  2 13:58:50 2024, MaxMem=   134217728 cpu:               3.1 elap:               3.1
 (Enter /software/gaussian/g16-c01/sse4/g16/l401.exe)
 ExpMin= 3.50D-02 ExpMax= 4.40D+05 ExpMxC= 1.51D+04 IAcc=3 IRadAn=         5 AccDes= 0.00D+00
 Harris functional with IExCor= 4639 and IRadAn=       5 diagonalized for initial guess.
 HarFok:  IExCor= 4639 AccDes= 0.00D+00 IRadAn=         5 IDoV= 1 UseB2=F ITyADJ=14
 ICtDFT=  3500011 ScaDFX=  1.000000  1.000000  1.000000  1.000000
 FoFCou: FMM=F IPFlag=           0 FMFlag=      100000 FMFlg1=           0
         NFxFlg=           0 DoJE=T BraDBF=F KetDBF=T FulRan=T
         wScrn=  0.000000 ICntrl=       500 IOpCl=  0 I1Cent=   200000004 NGrid=           0
         NMat0=    1 NMatS0=      1 NMatT0=    0 NMatD0=    1 NMtDS0=    0 NMtDT0=    0
 Symmetry not used in FoFCou.
 Harris En= -2970.74735183626    
 JPrj=0 DoOrth=F DoCkMO=F.
 Leave Link  401 at Thu May  2 13:59:21 2024, MaxMem=   134217728 cpu:              31.2 elap:              31.2
 (Enter /software/gaussian/g16-c01/sse4/g16/l502.exe)
 Two-electron integral symmetry not used.
 Closed shell SCF:
 Using DIIS extrapolation, IDIIS=  1040.
 NGot=   134217728 LenX=   134063053 LenY=   133988083
 Requested convergence on RMS density matrix=1.00D-08 within 128 cycles.
 Requested convergence on MAX density matrix=1.00D-06.
 Requested convergence on             energy=1.00D-06.
 No special actions if energy rises.
 Fock matrices will be formed incrementally for  20 cycles.

 Cycle   1  Pass 1  IDiag  1:
 FoFJK:  IHMeth= 1 ICntrl=       0 DoSepK=T KAlg= 0 I1Cent=           0 FoldK=F
 IRaf=         1 NMat=       1 IRICut=       1 DoRegI=T DoRafI=F ISym2E= 0 IDoP0=0 IntGTp=1.
 FoFCou: FMM=F IPFlag=           0 FMFlag=      100000 FMFlg1=           0
         NFxFlg=           0 DoJE=T BraDBF=F KetDBF=F FulRan=T
         wScrn=  0.000000 ICntrl=       500 IOpCl=  0 I1Cent=           0 NGrid=           0
         NMat0=    1 NMatS0=      1 NMatT0=    0 NMatD0=    1 NMtDS0=    0 NMtDT0=    0
 Symmetry not used in FoFCou.
 E= -3007.56560389915    
 DIIS: error= 2.91D-01 at cycle   1 NSaved=   1.
 NSaved= 1 IEnMin= 1 EnMin= -3007.56560389915     IErMin= 1 ErrMin= 2.91D-01
 ErrMax= 2.91D-01  0.00D+00 EMaxC= 1.00D-01 BMatC= 1.32D+01 BMatP= 1.32D+01
 IDIUse=3 WtCom= 0.00D+00 WtEn= 1.00D+00
 Coeff-Com:  0.100D+01
 Coeff-En:   0.100D+01
 Coeff:      0.100D+01
 Gap=    -0.285 Goal=   None    Shift=    0.000
 GapD=   -0.285 DampG=0.250 DampE=0.250 DampFc=0.2500 IDamp=-1.
 Damping current iteration by 2.50D-01
 RMSDP=9.73D+00 MaxDP=1.05D+03              OVMax= 7.26D-01

 Cycle   2  Pass 1  IDiag  1:
 RMSU=  3.85D-02    CP:  7.51D-01
 E= -3008.33044044650     Delta-E=       -0.764836547352 Rises=F Damp=T
 DIIS: error= 2.19D-01 at cycle   2 NSaved=   2.
 NSaved= 2 IEnMin= 2 EnMin= -3008.33044044650     IErMin= 2 ErrMin= 2.19D-01
 ErrMax= 2.19D-01  0.00D+00 EMaxC= 1.00D-01 BMatC= 5.45D+00 BMatP= 1.32D+01
 IDIUse=3 WtCom= 0.00D+00 WtEn= 1.00D+00
 Coeff-Com: -0.103D+01 0.203D+01
 Coeff-En:   0.210D+00 0.790D+00
 Coeff:      0.210D+00 0.790D+00
 Gap=    -0.025 Goal=   None    Shift=    0.000
 RMSDP=7.32D+00 MaxDP=7.92D+02 DE=-7.65D-01 OVMax= 7.11D-01

 Cycle   3  Pass 1  IDiag  1:
 RMSU=  2.66D-02    CP:  2.63D-03  2.07D+00
 E= -3009.49562216317     Delta-E=       -1.165181716676 Rises=F Damp=F
 DIIS: error= 1.11D-01 at cycle   3 NSaved=   3.
 NSaved= 3 IEnMin= 3 EnMin= -3009.49562216317     IErMin= 3 ErrMin= 1.11D-01
 ErrMax= 1.11D-01  0.00D+00 EMaxC= 1.00D-01 BMatC= 2.14D+00 BMatP= 5.45D+00
 IDIUse=3 WtCom= 0.00D+00 WtEn= 1.00D+00
 EnCoef did   100 forward-backward iterations
 Coeff-Com:  0.191D+00 0.740D-01 0.735D+00
 Coeff-En:   0.266D+00 0.307D-02 0.731D+00
 Coeff:      0.266D+00 0.307D-02 0.731D+00
 Gap=     0.509 Goal=   None    Shift=    0.000
 RMSDP=4.36D-02 MaxDP=4.46D+00 DE=-1.17D+00 OVMax= 4.04D-01

 Cycle   4  Pass 1  IDiag  1:
 RMSU=  2.82D-02    CP:  3.52D-03  1.27D+00  1.35D+00
 E= -3009.64450734064     Delta-E=       -0.148885177469 Rises=F Damp=F
 DIIS: error= 1.14D-01 at cycle   4 NSaved=   4.
 NSaved= 4 IEnMin= 4 EnMin= -3009.64450734064     IErMin= 3 ErrMin= 1.11D-01
 ErrMax= 1.14D-01  0.00D+00 EMaxC= 1.00D-01 BMatC= 1.29D+00 BMatP= 2.14D+00
 IDIUse=3 WtCom= 0.00D+00 WtEn= 1.00D+00
 Coeff-Com:  0.193D+00-0.148D+00 0.488D+00 0.467D+00
 Coeff-En:   0.000D+00 0.000D+00 0.468D+00 0.532D+00
 Coeff:      0.000D+00 0.000D+00 0.468D+00 0.532D+00
 Gap=     0.203 Goal=   None    Shift=    0.000
 RMSDP=2.21D-02 MaxDP=1.26D+00 DE=-1.49D-01 OVMax= 4.02D-01

 Cycle   5  Pass 1  IDiag  1:
 RMSU=  1.79D-02    CP:  4.02D-03  1.27D+00  1.33D+00  5.74D-01
 E= -3010.45816714118     Delta-E=       -0.813659800540 Rises=F Damp=F
 DIIS: error= 2.65D-02 at cycle   5 NSaved=   5.
 NSaved= 5 IEnMin= 5 EnMin= -3010.45816714118     IErMin= 5 ErrMin= 2.65D-02
 ErrMax= 2.65D-02  0.00D+00 EMaxC= 1.00D-01 BMatC= 2.27D-01 BMatP= 1.29D+00
 IDIUse=3 WtCom= 7.35D-01 WtEn= 2.65D-01
 Coeff-Com: -0.534D-01 0.724D-01 0.161D+00 0.259D+00 0.561D+00
 Coeff-En:   0.000D+00 0.000D+00 0.000D+00 0.762D-01 0.924D+00
 Coeff:     -0.392D-01 0.532D-01 0.118D+00 0.211D+00 0.657D+00
 Gap=     0.248 Goal=   None    Shift=    0.000
 RMSDP=9.29D-03 MaxDP=6.93D-01 DE=-8.14D-01 OVMax= 1.20D-01

 Cycle   6  Pass 1  IDiag  1:
 RMSU=  5.83D-03    CP:  3.99D-03  1.18D+00  1.21D+00  5.40D-01  7.08D-01
 E= -3010.55418974616     Delta-E=       -0.096022604976 Rises=F Damp=F
 DIIS: error= 1.59D-02 at cycle   6 NSaved=   6.
 NSaved= 6 IEnMin= 6 EnMin= -3010.55418974616     IErMin= 6 ErrMin= 1.59D-02
 ErrMax= 1.59D-02  0.00D+00 EMaxC= 1.00D-01 BMatC= 3.34D-02 BMatP= 2.27D-01
 IDIUse=3 WtCom= 8.41D-01 WtEn= 1.59D-01
 Coeff-Com: -0.460D-01 0.635D-01 0.136D-01 0.155D-01 0.305D+00 0.648D+00
 Coeff-En:   0.000D+00 0.000D+00 0.000D+00 0.000D+00 0.781D-01 0.922D+00
 Coeff:     -0.387D-01 0.534D-01 0.114D-01 0.131D-01 0.269D+00 0.691D+00
 Gap=     0.233 Goal=   None    Shift=    0.000
 RMSDP=2.90D-03 MaxDP=2.86D-01 DE=-9.60D-02 OVMax= 5.02D-02

 Cycle   7  Pass 1  IDiag  1:
 RMSU=  1.73D-03    CP:  3.87D-03  1.19D+00  1.19D+00  4.72D-01  7.12D-01
                    CP:  9.67D-01
 E= -3010.56974539297     Delta-E=       -0.015555646807 Rises=F Damp=F
 DIIS: error= 3.53D-03 at cycle   7 NSaved=   7.
 NSaved= 7 IEnMin= 7 EnMin= -3010.56974539297     IErMin= 7 ErrMin= 3.53D-03
 ErrMax= 3.53D-03  0.00D+00 EMaxC= 1.00D-01 BMatC= 2.47D-03 BMatP= 3.34D-02
 IDIUse=3 WtCom= 9.65D-01 WtEn= 3.53D-02
 Coeff-Com: -0.233D-01 0.323D-01-0.124D-01-0.819D-02 0.550D-01 0.282D+00
 Coeff-Com:  0.674D+00
 Coeff-En:   0.000D+00 0.000D+00 0.000D+00 0.000D+00 0.000D+00 0.346D-01
 Coeff-En:   0.965D+00
 Coeff:     -0.225D-01 0.311D-01-0.120D-01-0.790D-02 0.531D-01 0.274D+00
 Coeff:      0.685D+00
 Gap=     0.229 Goal=   None    Shift=    0.000
 RMSDP=1.04D-03 MaxDP=9.33D-02 DE=-1.56D-02 OVMax= 9.43D-03

 Cycle   8  Pass 1  IDiag  1:
 RMSU=  5.44D-04    CP:  3.95D-03  1.19D+00  1.19D+00  4.77D-01  7.15D-01
                    CP:  1.04D+00  1.03D+00
 E= -3010.57134868822     Delta-E=       -0.001603295258 Rises=F Damp=F
 DIIS: error= 1.17D-03 at cycle   8 NSaved=   8.
 NSaved= 8 IEnMin= 8 EnMin= -3010.57134868822     IErMin= 8 ErrMin= 1.17D-03
 ErrMax= 1.17D-03  0.00D+00 EMaxC= 1.00D-01 BMatC= 2.46D-04 BMatP= 2.47D-03
 IDIUse=3 WtCom= 9.88D-01 WtEn= 1.17D-02
 Coeff-Com: -0.764D-02 0.103D-01-0.585D-02-0.137D-02-0.184D-01 0.148D-01
 Coeff-Com:  0.317D+00 0.691D+00
 Coeff-En:   0.000D+00 0.000D+00 0.000D+00 0.000D+00 0.000D+00 0.000D+00
 Coeff-En:   0.000D+00 0.100D+01
 Coeff:     -0.755D-02 0.102D-01-0.579D-02-0.136D-02-0.182D-01 0.147D-01
 Coeff:      0.314D+00 0.694D+00
 Gap=     0.230 Goal=   None    Shift=    0.000
 RMSDP=7.60D-04 MaxDP=6.34D-02 DE=-1.60D-03 OVMax= 5.25D-03

 Cycle   9  Pass 1  IDiag  1:
 RMSU=  2.81D-04    CP:  3.91D-03  1.19D+00  1.18D+00  4.75D-01  6.89D-01
                    CP:  1.04D+00  1.21D+00  1.19D+00
 E= -3010.57159348313     Delta-E=       -0.000244794907 Rises=F Damp=F
 DIIS: error= 3.38D-04 at cycle   9 NSaved=   9.
 NSaved= 9 IEnMin= 9 EnMin= -3010.57159348313     IErMin= 9 ErrMin= 3.38D-04
 ErrMax= 3.38D-04  0.00D+00 EMaxC= 1.00D-01 BMatC= 2.86D-05 BMatP= 2.46D-04
 IDIUse=3 WtCom= 9.97D-01 WtEn= 3.38D-03
 Coeff-Com: -0.800D-03 0.108D-02-0.692D-03 0.109D-02-0.161D-01-0.398D-01
 Coeff-Com:  0.102D-01 0.287D+00 0.758D+00
 Coeff-En:   0.000D+00 0.000D+00 0.000D+00 0.000D+00 0.000D+00 0.000D+00
 Coeff-En:   0.000D+00 0.000D+00 0.100D+01
 Coeff:     -0.797D-03 0.107D-02-0.690D-03 0.108D-02-0.160D-01-0.397D-01
 Coeff:      0.101D-01 0.286D+00 0.759D+00
 Gap=     0.229 Goal=   None    Shift=    0.000
 RMSDP=2.42D-04 MaxDP=1.36D-02 DE=-2.45D-04 OVMax= 3.37D-03

 Cycle  10  Pass 1  IDiag  1:
 RMSU=  1.16D-04    CP:  3.91D-03  1.20D+00  1.18D+00  4.75D-01  6.82D-01
                    CP:  1.05D+00  1.29D+00  1.36D+00  1.04D+00
 E= -3010.57163621918     Delta-E=       -0.000042736048 Rises=F Damp=F
 DIIS: error= 6.56D-05 at cycle  10 NSaved=  10.
 NSaved=10 IEnMin=10 EnMin= -3010.57163621918     IErMin=10 ErrMin= 6.56D-05
 ErrMax= 6.56D-05  0.00D+00 EMaxC= 1.00D-01 BMatC= 2.19D-06 BMatP= 2.86D-05
 IDIUse=1 WtCom= 1.00D+00 WtEn= 0.00D+00
 Coeff-Com:  0.664D-04-0.108D-03-0.332D-04 0.507D-04-0.292D-03-0.214D-02
 Coeff-Com: -0.232D-01-0.466D-02 0.149D+00 0.882D+00
 Coeff:      0.664D-04-0.108D-03-0.332D-04 0.507D-04-0.292D-03-0.214D-02
 Coeff:     -0.232D-01-0.466D-02 0.149D+00 0.882D+00
 Gap=     0.229 Goal=   None    Shift=    0.000
 RMSDP=8.37D-05 MaxDP=3.27D-03 DE=-4.27D-05 OVMax= 2.78D-03

 Cycle  11  Pass 1  IDiag  1:
 RMSU=  5.60D-05    CP:  3.91D-03  1.19D+00  1.18D+00  4.75D-01  6.84D-01
                    CP:  1.05D+00  1.30D+00  1.41D+00  1.13D+00  1.06D+00
 E= -3010.57164621465     Delta-E=       -0.000009995471 Rises=F Damp=F
 DIIS: error= 5.72D-05 at cycle  11 NSaved=  11.
 NSaved=11 IEnMin=11 EnMin= -3010.57164621465     IErMin=11 ErrMin= 5.72D-05
 ErrMax= 5.72D-05  0.00D+00 EMaxC= 1.00D-01 BMatC= 7.26D-07 BMatP= 2.19D-06
 IDIUse=1 WtCom= 1.00D+00 WtEn= 0.00D+00
 Coeff-Com:  0.454D-04-0.867D-04-0.216D-03-0.138D-03 0.250D-02 0.790D-02
 Coeff-Com:  0.542D-02-0.380D-01-0.132D+00 0.102D+00 0.105D+01
 Coeff:      0.454D-04-0.867D-04-0.216D-03-0.138D-03 0.250D-02 0.790D-02
 Coeff:      0.542D-02-0.380D-01-0.132D+00 0.102D+00 0.105D+01
 Gap=     0.229 Goal=   None    Shift=    0.000
 RMSDP=6.24D-05 MaxDP=5.22D-03 DE=-1.00D-05 OVMax= 2.11D-03

 Cycle  12  Pass 1  IDiag  1:
 RMSU=  2.01D-05    CP:  3.91D-03  1.20D+00  1.18D+00  4.74D-01  6.85D-01
                    CP:  1.05D+00  1.31D+00  1.42D+00  1.12D+00  1.26D+00
                    CP:  1.66D+00
 E= -3010.57165086641     Delta-E=       -0.000004651763 Rises=F Damp=F
 DIIS: error= 2.56D-05 at cycle  12 NSaved=  12.
 NSaved=12 IEnMin=12 EnMin= -3010.57165086641     IErMin=12 ErrMin= 2.56D-05
 ErrMax= 2.56D-05  0.00D+00 EMaxC= 1.00D-01 BMatC= 2.11D-07 BMatP= 7.26D-07
 IDIUse=1 WtCom= 1.00D+00 WtEn= 0.00D+00
 Coeff-Com:  0.872D-04-0.120D-03-0.695D-04 0.981D-05 0.500D-03 0.289D-02
 Coeff-Com:  0.113D-01-0.109D-01-0.957D-01-0.247D+00 0.348D+00 0.991D+00
 Coeff:      0.872D-04-0.120D-03-0.695D-04 0.981D-05 0.500D-03 0.289D-02
 Coeff:      0.113D-01-0.109D-01-0.957D-01-0.247D+00 0.348D+00 0.991D+00
 Gap=     0.229 Goal=   None    Shift=    0.000
 RMSDP=4.44D-05 MaxDP=1.74D-03 DE=-4.65D-06 OVMax= 1.73D-03

 Cycle  13  Pass 1  IDiag  1:
 RMSU=  1.27D-05    CP:  3.91D-03  1.19D+00  1.18D+00  4.75D-01  6.86D-01
                    CP:  1.05D+00  1.33D+00  1.44D+00  1.12D+00  1.39D+00
                    CP:  2.07D+00  1.45D+00
 E= -3010.57165271027     Delta-E=       -0.000001843852 Rises=F Damp=F
 DIIS: error= 1.20D-05 at cycle  13 NSaved=  13.
 NSaved=13 IEnMin=13 EnMin= -3010.57165271027     IErMin=13 ErrMin= 1.20D-05
 ErrMax= 1.20D-05  0.00D+00 EMaxC= 1.00D-01 BMatC= 4.02D-08 BMatP= 2.11D-07
 IDIUse=1 WtCom= 1.00D+00 WtEn= 0.00D+00
 Coeff-Com: -0.561D-05 0.142D-04 0.409D-04 0.140D-04-0.457D-03-0.117D-02
 Coeff-Com:  0.748D-03 0.531D-02 0.124D-01-0.768D-01-0.195D+00 0.252D+00
 Coeff-Com:  0.100D+01
 Coeff:     -0.561D-05 0.142D-04 0.409D-04 0.140D-04-0.457D-03-0.117D-02
 Coeff:      0.748D-03 0.531D-02 0.124D-01-0.768D-01-0.195D+00 0.252D+00
 Coeff:      0.100D+01
 Gap=     0.229 Goal=   None    Shift=    0.000
 RMSDP=2.30D-05 MaxDP=2.63D-03 DE=-1.84D-06 OVMax= 8.77D-04

 Cycle  14  Pass 1  IDiag  1:
 RMSU=  5.57D-06    CP:  3.91D-03  1.20D+00  1.18D+00  4.75D-01  6.86D-01
                    CP:  1.05D+00  1.33D+00  1.44D+00  1.11D+00  1.44D+00
                    CP:  2.24D+00  1.89D+00  1.32D+00
 E= -3010.57165309025     Delta-E=       -0.000000379987 Rises=F Damp=F
 DIIS: error= 3.83D-06 at cycle  14 NSaved=  14.
 NSaved=14 IEnMin=14 EnMin= -3010.57165309025     IErMin=14 ErrMin= 3.83D-06
 ErrMax= 3.83D-06  0.00D+00 EMaxC= 1.00D-01 BMatC= 9.22D-09 BMatP= 4.02D-08
 IDIUse=1 WtCom= 1.00D+00 WtEn= 0.00D+00
 Coeff-Com: -0.132D-04 0.213D-04 0.480D-04 0.618D-05-0.179D-03-0.102D-02
 Coeff-Com: -0.237D-02 0.270D-02 0.178D-01 0.185D-01-0.104D+00-0.841D-01
 Coeff-Com:  0.234D+00 0.918D+00
 Coeff:     -0.132D-04 0.213D-04 0.480D-04 0.618D-05-0.179D-03-0.102D-02
 Coeff:     -0.237D-02 0.270D-02 0.178D-01 0.185D-01-0.104D+00-0.841D-01
 Coeff:      0.234D+00 0.918D+00
 Gap=     0.229 Goal=   None    Shift=    0.000
 RMSDP=8.87D-06 MaxDP=7.45D-04 DE=-3.80D-07 OVMax= 3.04D-04

 Cycle  15  Pass 1  IDiag  1:
 RMSU=  1.73D-06    CP:  3.91D-03  1.20D+00  1.18D+00  4.75D-01  6.86D-01
                    CP:  1.05D+00  1.33D+00  1.45D+00  1.11D+00  1.45D+00
                    CP:  2.26D+00  2.00D+00  1.55D+00  1.40D+00
 E= -3010.57165314278     Delta-E=       -0.000000052522 Rises=F Damp=F
 DIIS: error= 2.76D-06 at cycle  15 NSaved=  15.
 NSaved=15 IEnMin=15 EnMin= -3010.57165314278     IErMin=15 ErrMin= 2.76D-06
 ErrMax= 2.76D-06  0.00D+00 EMaxC= 1.00D-01 BMatC= 3.11D-09 BMatP= 9.22D-09
 IDIUse=1 WtCom= 1.00D+00 WtEn= 0.00D+00
 Coeff-Com: -0.495D-05 0.696D-05 0.186D-04 0.369D-05 0.634D-04-0.257D-03
 Coeff-Com: -0.142D-02-0.481D-03 0.206D-02 0.238D-01 0.228D-01-0.867D-01
 Coeff-Com: -0.207D+00 0.311D+00 0.936D+00
 Coeff:     -0.495D-05 0.696D-05 0.186D-04 0.369D-05 0.634D-04-0.257D-03
 Coeff:     -0.142D-02-0.481D-03 0.206D-02 0.238D-01 0.228D-01-0.867D-01
 Coeff:     -0.207D+00 0.311D+00 0.936D+00
 Gap=     0.229 Goal=   None    Shift=    0.000
 RMSDP=5.67D-06 MaxDP=5.02D-04 DE=-5.25D-08 OVMax= 1.38D-04

 Cycle  16  Pass 1  IDiag  1:
 RMSU=  6.97D-07    CP:  3.91D-03  1.20D+00  1.18D+00  4.75D-01  6.86D-01
                    CP:  1.05D+00  1.33D+00  1.45D+00  1.11D+00  1.46D+00
                    CP:  2.26D+00  2.06D+00  1.66D+00  1.63D+00  1.43D+00
 E= -3010.57165315349     Delta-E=       -0.000000010712 Rises=F Damp=F
 DIIS: error= 7.56D-07 at cycle  16 NSaved=  16.
 NSaved=16 IEnMin=16 EnMin= -3010.57165315349     IErMin=16 ErrMin= 7.56D-07
 ErrMax= 7.56D-07  0.00D+00 EMaxC= 1.00D-01 BMatC= 2.24D-10 BMatP= 3.11D-09
 IDIUse=1 WtCom= 1.00D+00 WtEn= 0.00D+00
 Coeff-Com:  0.774D-06-0.112D-05 0.191D-05 0.894D-06 0.255D-04 0.729D-04
 Coeff-Com:  0.169D-03-0.331D-03-0.184D-02-0.154D-02 0.165D-01 0.271D-02
 Coeff-Com: -0.399D-01-0.102D+00 0.746D-01 0.105D+01
 Coeff:      0.774D-06-0.112D-05 0.191D-05 0.894D-06 0.255D-04 0.729D-04
 Coeff:      0.169D-03-0.331D-03-0.184D-02-0.154D-02 0.165D-01 0.271D-02
 Coeff:     -0.399D-01-0.102D+00 0.746D-01 0.105D+01
 Gap=     0.229 Goal=   None    Shift=    0.000
 RMSDP=1.69D-06 MaxDP=1.52D-04 DE=-1.07D-08 OVMax= 2.85D-05

 Cycle  17  Pass 1  IDiag  1:
 RMSU=  3.74D-07    CP:  3.91D-03  1.20D+00  1.18D+00  4.75D-01  6.86D-01
                    CP:  1.05D+00  1.33D+00  1.45D+00  1.10D+00  1.46D+00
                    CP:  2.26D+00  2.06D+00  1.67D+00  1.70D+00  1.61D+00
                    CP:  1.22D+00
 E= -3010.57165315429     Delta-E=       -0.000000000799 Rises=F Damp=F
 DIIS: error= 3.06D-07 at cycle  17 NSaved=  17.
 NSaved=17 IEnMin=17 EnMin= -3010.57165315429     IErMin=17 ErrMin= 3.06D-07
 ErrMax= 3.06D-07  0.00D+00 EMaxC= 1.00D-01 BMatC= 1.77D-11 BMatP= 2.24D-10
 IDIUse=1 WtCom= 1.00D+00 WtEn= 0.00D+00
 Coeff-Com:  0.638D-06-0.925D-06-0.136D-05-0.115D-06-0.103D-06 0.381D-04
 Coeff-Com:  0.154D-03 0.565D-04-0.398D-03-0.209D-02-0.685D-03 0.522D-02
 Coeff-Com:  0.185D-01-0.372D-01-0.726D-01 0.760D-01 0.101D+01
 Coeff:      0.638D-06-0.925D-06-0.136D-05-0.115D-06-0.103D-06 0.381D-04
 Coeff:      0.154D-03 0.565D-04-0.398D-03-0.209D-02-0.685D-03 0.522D-02
 Coeff:      0.185D-01-0.372D-01-0.726D-01 0.760D-01 0.101D+01
 Gap=     0.229 Goal=   None    Shift=    0.000
 RMSDP=3.61D-07 MaxDP=2.89D-05 DE=-7.99D-10 OVMax= 6.14D-06

 Cycle  18  Pass 1  IDiag  1:
 RMSU=  1.04D-07    CP:  3.91D-03  1.20D+00  1.18D+00  4.75D-01  6.86D-01
                    CP:  1.05D+00  1.33D+00  1.45D+00  1.10D+00  1.47D+00
                    CP:  2.26D+00  2.06D+00  1.68D+00  1.69D+00  1.65D+00
                    CP:  1.27D+00  1.22D+00
 E= -3010.57165315446     Delta-E=       -0.000000000174 Rises=F Damp=F
 DIIS: error= 1.46D-07 at cycle  18 NSaved=  18.
 NSaved=18 IEnMin=18 EnMin= -3010.57165315446     IErMin=18 ErrMin= 1.46D-07
 ErrMax= 1.46D-07  0.00D+00 EMaxC= 1.00D-01 BMatC= 5.15D-12 BMatP= 1.77D-11
 IDIUse=1 WtCom= 1.00D+00 WtEn= 0.00D+00
 Coeff-Com:  0.175D-06-0.249D-06-0.102D-05-0.411D-06-0.350D-05 0.531D-05
 Coeff-Com:  0.200D-04 0.903D-04 0.136D-03-0.152D-03-0.227D-02 0.180D-03
 Coeff-Com:  0.108D-01 0.467D-02-0.254D-01-0.147D+00 0.208D+00 0.951D+00
 Coeff:      0.175D-06-0.249D-06-0.102D-05-0.411D-06-0.350D-05 0.531D-05
 Coeff:      0.200D-04 0.903D-04 0.136D-03-0.152D-03-0.227D-02 0.180D-03
 Coeff:      0.108D-01 0.467D-02-0.254D-01-0.147D+00 0.208D+00 0.951D+00
 Gap=     0.229 Goal=   None    Shift=    0.000
 RMSDP=1.78D-07 MaxDP=1.80D-05 DE=-1.74D-10 OVMax= 2.75D-06

 Cycle  19  Pass 1  IDiag  1:
 RMSU=  4.12D-08    CP:  3.91D-03  1.20D+00  1.18D+00  4.75D-01  6.86D-01
                    CP:  1.05D+00  1.33D+00  1.45D+00  1.10D+00  1.47D+00
                    CP:  2.26D+00  2.05D+00  1.68D+00  1.69D+00  1.64D+00
                    CP:  1.28D+00  1.37D+00  1.35D+00
 E= -3010.57165315442     Delta-E=        0.000000000036 Rises=F Damp=F
 DIIS: error= 6.48D-08 at cycle  19 NSaved=  19.
 NSaved=19 IEnMin=18 EnMin= -3010.57165315446     IErMin=19 ErrMin= 6.48D-08
 ErrMax= 6.48D-08  0.00D+00 EMaxC= 1.00D-01 BMatC= 9.30D-13 BMatP= 5.15D-12
 IDIUse=1 WtCom= 1.00D+00 WtEn= 0.00D+00
 Coeff-Com:  0.408D-07-0.527D-07-0.180D-06-0.228D-06-0.806D-06-0.287D-05
 Coeff-Com: -0.209D-04 0.174D-04 0.690D-04 0.306D-03-0.446D-03-0.111D-02
 Coeff-Com:  0.309D-03 0.756D-02 0.676D-02-0.526D-01-0.918D-01 0.298D+00
 Coeff-Com:  0.833D+00
 Coeff:      0.408D-07-0.527D-07-0.180D-06-0.228D-06-0.806D-06-0.287D-05
 Coeff:     -0.209D-04 0.174D-04 0.690D-04 0.306D-03-0.446D-03-0.111D-02
 Coeff:      0.309D-03 0.756D-02 0.676D-02-0.526D-01-0.918D-01 0.298D+00
 Coeff:      0.833D+00
 Gap=     0.229 Goal=   None    Shift=    0.000
 RMSDP=7.39D-08 MaxDP=6.43D-06 DE= 3.59D-11 OVMax= 1.18D-06

 Cycle  20  Pass 1  IDiag  1:
 RMSU=  1.64D-08    CP:  3.91D-03  1.20D+00  1.18D+00  4.75D-01  6.86D-01
                    CP:  1.05D+00  1.33D+00  1.45D+00  1.10D+00  1.47D+00
                    CP:  2.26D+00  2.05D+00  1.68D+00  1.69D+00  1.64D+00
                    CP:  1.27D+00  1.37D+00  1.55D+00  1.31D+00
 E= -3010.57165315440     Delta-E=        0.000000000025 Rises=F Damp=F
 DIIS: error= 3.06D-08 at cycle  20 NSaved=  20.
 NSaved=20 IEnMin=18 EnMin= -3010.57165315446     IErMin=20 ErrMin= 3.06D-08
 ErrMax= 3.06D-08  0.00D+00 EMaxC= 1.00D-01 BMatC= 2.22D-13 BMatP= 9.30D-13
 IDIUse=1 WtCom= 1.00D+00 WtEn= 0.00D+00
 Coeff-Com: -0.164D-08-0.307D-09 0.455D-07 0.587D-07-0.115D-06-0.251D-05
 Coeff-Com: -0.839D-05-0.549D-05-0.699D-05 0.831D-04 0.336D-03-0.259D-03
 Coeff-Com: -0.180D-02 0.342D-03 0.480D-02 0.130D-01-0.672D-01-0.130D+00
 Coeff-Com:  0.241D+00 0.939D+00
 Coeff:     -0.164D-08-0.307D-09 0.455D-07 0.587D-07-0.115D-06-0.251D-05
 Coeff:     -0.839D-05-0.549D-05-0.699D-05 0.831D-04 0.336D-03-0.259D-03
 Coeff:     -0.180D-02 0.342D-03 0.480D-02 0.130D-01-0.672D-01-0.130D+00
 Coeff:      0.241D+00 0.939D+00
 Gap=     0.229 Goal=   None    Shift=    0.000
 RMSDP=4.33D-08 MaxDP=2.65D-06 DE= 2.46D-11 OVMax= 8.91D-07

 Cycle  21  Pass 1  IDiag  1:
 Restarting incremental Fock formation.
 E= -3010.57165315441     Delta-E=       -0.000000000013 Rises=F Damp=F
 DIIS: error= 1.48D-08 at cycle  21 NSaved=  20.
 NSaved=20 IEnMin=17 EnMin= -3010.57165315446     IErMin=20 ErrMin= 1.48D-08
 ErrMax= 1.48D-08  0.00D+00 EMaxC= 1.00D-01 BMatC= 3.36D-14 BMatP= 2.22D-13
 IDIUse=1 WtCom= 1.00D+00 WtEn= 0.00D+00
 Coeff-Com: -0.233D-09 0.527D-07 0.674D-07 0.160D-06 0.173D-06 0.228D-05
 Coeff-Com: -0.623D-05-0.175D-04-0.584D-04 0.181D-03 0.167D-03-0.359D-03
 Coeff-Com: -0.145D-02-0.439D-03 0.151D-01 0.114D-01-0.838D-01-0.124D+00
 Coeff-Com:  0.152D+00 0.103D+01
 Coeff:     -0.233D-09 0.527D-07 0.674D-07 0.160D-06 0.173D-06 0.228D-05
 Coeff:     -0.623D-05-0.175D-04-0.584D-04 0.181D-03 0.167D-03-0.359D-03
 Coeff:     -0.145D-02-0.439D-03 0.151D-01 0.114D-01-0.838D-01-0.124D+00
 Coeff:      0.152D+00 0.103D+01
 Gap=     0.229 Goal=   None    Shift=    0.000
 RMSDP=2.03D-08 MaxDP=2.31D-06 DE=-1.27D-11 OVMax= 4.83D-07

 Cycle  22  Pass 1  IDiag  1:
 RMSU=  1.92D-08    CP:  1.00D+00
 E= -3010.57165315437     Delta-E=        0.000000000041 Rises=F Damp=F
 DIIS: error= 6.97D-09 at cycle  22 NSaved=  20.
 NSaved=20 IEnMin=16 EnMin= -3010.57165315446     IErMin=20 ErrMin= 6.97D-09
 ErrMax= 6.97D-09  0.00D+00 EMaxC= 1.00D-01 BMatC= 8.93D-15 BMatP= 3.36D-14
 IDIUse=1 WtCom= 1.00D+00 WtEn= 0.00D+00
 Coeff-Com:  0.474D-08 0.143D-07 0.448D-07 0.497D-06 0.210D-05 0.183D-06
 Coeff-Com:  0.213D-05-0.284D-04-0.444D-04 0.884D-04 0.313D-03-0.260D-03
 Coeff-Com: -0.130D-02-0.858D-03 0.152D-01 0.111D-01-0.770D-01-0.189D+00
 Coeff-Com:  0.191D+00 0.105D+01
 Coeff:      0.474D-08 0.143D-07 0.448D-07 0.497D-06 0.210D-05 0.183D-06
 Coeff:      0.213D-05-0.284D-04-0.444D-04 0.884D-04 0.313D-03-0.260D-03
 Coeff:     -0.130D-02-0.858D-03 0.152D-01 0.111D-01-0.770D-01-0.189D+00
 Coeff:      0.191D+00 0.105D+01
 Gap=     0.229 Goal=   None    Shift=    0.000
 RMSDP=9.12D-09 MaxDP=9.17D-07 DE= 4.09D-11 OVMax= 3.45D-07

 SCF Done:  E(RwB97XD) =  -3010.57165315     A.U. after   22 cycles
            NFock= 22  Conv=0.91D-08     -V/T= 2.0016
 KE= 3.005793876035D+03 PE=-8.695382002507D+03 EE= 1.908962823395D+03
 Leave Link  502 at Thu May  2 14:22:13 2024, MaxMem=   134217728 cpu:            1371.3 elap:            1371.7
 (Enter /software/gaussian/g16-c01/sse4/g16/l601.exe)
 Copying SCF densities to generalized density rwf, IOpCl= 0 IROHF=0.

 **********************************************************************

            Population analysis using the SCF Density.

 **********************************************************************

 Alpha  occ. eigenvalues -- -483.27951 -62.82911 -56.62655 -56.62026 -56.62002
 Alpha  occ. eigenvalues --  -19.46441 -19.46004 -14.85434 -10.58589 -10.56673
 Alpha  occ. eigenvalues --  -10.55382 -10.54874 -10.53800 -10.51972  -8.98669
 Alpha  occ. eigenvalues --   -6.81477  -6.79425  -6.79350  -2.91348  -2.90822
 Alpha  occ. eigenvalues --   -2.90762  -2.89121  -2.89120  -1.49807  -1.32787
 Alpha  occ. eigenvalues --   -1.21291  -1.12037  -1.10891  -1.02839  -0.98943
 Alpha  occ. eigenvalues --   -0.94159  -0.89795  -0.84674  -0.80456  -0.79844
 Alpha  occ. eigenvalues --   -0.79278  -0.77152  -0.75848  -0.74363  -0.70633
 Alpha  occ. eigenvalues --   -0.67332  -0.66470  -0.61983  -0.58260  -0.57373
 Alpha  occ. eigenvalues --   -0.56457  -0.55674  -0.52040  -0.51497
 Alpha virt. eigenvalues --   -0.28599  -0.20151  -0.18589  -0.14225  -0.13483
 Alpha virt. eigenvalues --   -0.12041  -0.08614  -0.08350  -0.06605  -0.04168
 Alpha virt. eigenvalues --   -0.04036  -0.02537  -0.01212  -0.00236  -0.00083
 Alpha virt. eigenvalues --    0.00313   0.02166   0.03220   0.03592   0.03973
 Alpha virt. eigenvalues --    0.04960   0.05910   0.06482   0.07297   0.08119
 Alpha virt. eigenvalues --    0.08687   0.08808   0.09155   0.10085   0.10939
 Alpha virt. eigenvalues --    0.11864   0.12259   0.13352   0.13904   0.14223
 Alpha virt. eigenvalues --    0.14714   0.15870   0.16264   0.16792   0.17638
 Alpha virt. eigenvalues --    0.17975   0.19250   0.19709   0.20996   0.21716
 Alpha virt. eigenvalues --    0.22699   0.24185   0.24854   0.25551   0.26491
 Alpha virt. eigenvalues --    0.28134   0.28436   0.29021   0.31297   0.33531
 Alpha virt. eigenvalues --    0.34126   0.34779   0.37034   0.37793   0.38296
 Alpha virt. eigenvalues --    0.39269   0.40228   0.41353   0.43235   0.44067
 Alpha virt. eigenvalues --    0.44922   0.45335   0.45982   0.47227   0.49047
 Alpha virt. eigenvalues --    0.50220   0.52296   0.52826   0.52937   0.54963
 Alpha virt. eigenvalues --    0.55129   0.57414   0.58355   0.60946   0.61302
 Alpha virt. eigenvalues --    0.63913   0.64266   0.67321   0.68676   0.69749
 Alpha virt. eigenvalues --    0.70961   0.71678   0.74058   0.75132   0.76285
 Alpha virt. eigenvalues --    0.77581   0.78450   0.80187   0.86265   0.87005
 Alpha virt. eigenvalues --    0.88221   0.89017   0.91900   0.95113   0.98102
 Alpha virt. eigenvalues --    1.01678   1.03436   1.04026   1.06672   1.07611
 Alpha virt. eigenvalues --    1.10558   1.12998   1.13568   1.14243   1.18080
 Alpha virt. eigenvalues --    1.22524   1.24398   1.28525   1.35275   1.36965
 Alpha virt. eigenvalues --    1.37992   1.40074   1.45135   1.56567   1.57435
 Alpha virt. eigenvalues --    1.57979   1.60350   1.62476   1.64668   1.67270
 Alpha virt. eigenvalues --    1.68673   1.72524   1.74651   1.76490   1.80475
 Alpha virt. eigenvalues --    1.84648   1.86036   1.88151   1.98068   1.98918
 Alpha virt. eigenvalues --    1.99440   2.03692   2.05131   2.08557   2.10619
 Alpha virt. eigenvalues --    2.14710   2.16181   2.23142   2.24369   2.26969
 Alpha virt. eigenvalues --    2.34047   2.41058   2.42625   2.45769   2.53990
 Alpha virt. eigenvalues --    2.59928   2.63837   2.66631   2.69553   2.71766
 Alpha virt. eigenvalues --    2.73972   2.76543   2.78198   2.80979   2.83533
 Alpha virt. eigenvalues --    2.94853   2.99174   3.02185   3.07809   3.09741
 Alpha virt. eigenvalues --    3.15448   3.16316   3.19186   3.22941   3.26500
 Alpha virt. eigenvalues --    3.27633   3.38522   3.46929   3.50986   3.54855
 Alpha virt. eigenvalues --    3.58681   3.69092   3.74422   3.84838   3.88489
 Alpha virt. eigenvalues --    4.13701   4.14606   4.22808   4.27122   4.44844
 Alpha virt. eigenvalues --    4.47235   4.55911   4.60129   4.93273   4.96711
 Alpha virt. eigenvalues --    5.04768   5.10287   5.62124   6.15204   6.71765
 Alpha virt. eigenvalues --    7.52659   7.54951   7.64965  23.23193  23.62228
 Alpha virt. eigenvalues --   23.74680  23.78978  23.96675  24.02420  35.31727
 Alpha virt. eigenvalues --   47.97501  49.85232  49.93905 289.85063 289.87398
 Alpha virt. eigenvalues --  289.999851020.98578
          Condensed to atoms (all electrons):
               1          2          3          4          5          6
     1  C   10.137435  -5.201309   1.400149  -0.718096   0.269736   0.091654
     2  C   -5.201309  20.793573  -6.070700   0.929378  -0.041711   0.053509
     3  C    1.400149  -6.070700  18.606301  -1.845768   0.018929   0.260272
     4  C   -0.718096   0.929378  -1.845768   7.407172   0.087948  -0.039954
     5  H    0.269736  -0.041711   0.018929   0.087948   0.442684  -0.003653
     6  H    0.091654   0.053509   0.260272  -0.039954  -0.003653   0.406467
     7  H    0.005092  -0.025020   0.019793   0.283796  -0.003983  -0.000012
     8  N   -0.174713   0.245224  -1.514681  -0.043196  -0.000571  -0.045044
     9  O   -0.082325   0.308695  -0.219511   0.011277  -0.000058  -0.003531
    10  O    0.390680  -0.359546  -0.208982  -0.039064   0.000066   0.029183
    11  C    1.320781  -1.638313   2.162237  -0.864317  -0.040598   0.020459
    12  H    0.003517   0.014121  -0.002346  -0.003129   0.000034  -0.000023
    13  C   -1.279047  -3.180109  -6.319430   1.135835   0.030521  -0.021954
    14  H   -0.018044   0.034581   0.071660   0.019438  -0.000041   0.000027
    15  Br  -0.042809  -0.094213  -0.216777   0.079943   0.000052  -0.001078
               7          8          9         10         11         12
     1  C    0.005092  -0.174713  -0.082325   0.390680   1.320781   0.003517
     2  C   -0.025020   0.245224   0.308695  -0.359546  -1.638313   0.014121
     3  C    0.019793  -1.514681  -0.219511  -0.208982   2.162237  -0.002346
     4  C    0.283796  -0.043196   0.011277  -0.039064  -0.864317  -0.003129
     5  H   -0.003983  -0.000571  -0.000058   0.000066  -0.040598   0.000034
     6  H   -0.000012  -0.045044  -0.003531   0.029183   0.020459  -0.000023
     7  H    0.343887   0.000172  -0.000011   0.000006   0.066764  -0.001586
     8  N    0.000172   7.686892   0.135065   0.095456  -0.059418   0.001322
     9  O   -0.000011   0.135065   7.709115  -0.014913   0.176207   0.000009
    10  O    0.000006   0.095456  -0.014913   8.073835   0.041593  -0.000017
    11  C    0.066764  -0.059418   0.176207   0.041593   9.074892   0.323830
    12  H   -0.001586   0.001322   0.000009  -0.000017   0.323830   0.257505
    13  C   -0.014473   0.810702  -0.197302   0.052902  -4.442270  -0.022569
    14  H   -0.000060  -0.045875   0.014838  -0.002500  -0.092210  -0.003407
    15  Br  -0.000418   0.157125  -0.056889   0.002948   0.112056  -0.002269
              13         14         15
     1  C   -1.279047  -0.018044  -0.042809
     2  C   -3.180109   0.034581  -0.094213
     3  C   -6.319430   0.071660  -0.216777
     4  C    1.135835   0.019438   0.079943
     5  H    0.030521  -0.000041   0.000052
     6  H   -0.021954   0.000027  -0.001078
     7  H   -0.014473  -0.000060  -0.000418
     8  N    0.810702  -0.045875   0.157125
     9  O   -0.197302   0.014838  -0.056889
    10  O    0.052902  -0.002500   0.002948
    11  C   -4.442270  -0.092210   0.112056
    12  H   -0.022569  -0.003407  -0.002269
    13  C   19.327070   0.299932   0.239763
    14  H    0.299932   0.284430  -0.028174
    15  Br   0.239763  -0.028174  34.486217
 Mulliken charges:
               1
     1  C   -0.102701
     2  C    0.231839
     3  C   -0.141145
     4  C   -0.401263
     5  H    0.240645
     6  H    0.253678
     7  H    0.326053
     8  N   -0.248460
     9  O    0.219332
    10  O   -0.061648
    11  C   -0.161694
    12  H    0.435008
    13  C   -0.419571
    14  H    0.465406
    15  Br   0.364521
 Sum of Mulliken charges =   1.00000
 Mulliken charges with hydrogens summed into heavy atoms:
               1
     1  C    0.137944
     2  C    0.485517
     3  C   -0.141145
     4  C   -0.075210
     8  N   -0.248460
     9  O    0.219332
    10  O   -0.061648
    11  C    0.273314
    13  C    0.045835
    15  Br   0.364521
 Electronic spatial extent (au):  <R**2>=           3942.0242
 Charge=              1.0000 electrons
 Dipole moment (field-independent basis, Debye):
    X=              3.1386    Y=             -7.7915    Z=             -1.7274  Tot=              8.5756
 Quadrupole moment (field-independent basis, Debye-Ang):
   XX=            -67.5015   YY=            -48.3860   ZZ=            -59.7537
   XY=            -17.3712   XZ=             -4.6966   YZ=              6.1206
 Traceless Quadrupole moment (field-independent basis, Debye-Ang):
   XX=             -8.9544   YY=             10.1610   ZZ=             -1.2066
   XY=            -17.3712   XZ=             -4.6966   YZ=              6.1206
 Octapole moment (field-independent basis, Debye-Ang**2):
  XXX=           -514.6895  YYY=             50.9168  ZZZ=             75.4950  XYY=           -129.5208
  XXY=            -27.9869  XXZ=             20.7832  XZZ=           -126.5177  YZZ=              4.4294
  YYZ=             15.2320  XYZ=             16.0675
 Hexadecapole moment (field-independent basis, Debye-Ang**3):
 XXXX=          -3472.2088 YYYY=           -668.0624 ZZZZ=           -374.7789 XXXY=            -30.7815
 XXXZ=            174.0691 YYYX=            104.5657 YYYZ=           -139.1359 ZZZX=            150.6097
 ZZZY=           -120.8782 XXYY=           -611.1936 XXZZ=           -510.8200 YYZZ=           -147.2158
 XXYZ=            -21.0909 YYXZ=             26.0834 ZZXY=              1.2106
 N-N= 7.700536499222D+02 E-N=-8.695382002803D+03  KE= 3.005793876035D+03
 No NMR shielding tensors so no spin-rotation constants.
 Leave Link  601 at Thu May  2 14:22:20 2024, MaxMem=   134217728 cpu:               7.4 elap:               7.4
 (Enter /software/gaussian/g16-c01/sse4/g16/l9999.exe)
 Unable to Open any file for archive entry.
 1\1\GINC-BHX0014\SP\RwB97XD\6-311+G(d)\C6H5Br1N1O2(1+)\BWEIGHT\02-May-
 2024\0\\#P wB97XD/6-311+G* NoSymm #P Field=Y+233\\TitleMe\\1,1\C,0,0.5
 193,1.233,-0.0319\C,0,1.9445,1.2692,-0.0367\C,0,2.6204,0.0928,-0.025\C
 ,0,-0.196,0.0301,0.001\H,0,-0.0207,2.1742,-0.0434\H,0,2.4828,2.2089,-0
 .0361\H,0,-1.2777,0.0399,0.0117\N,0,4.0921,0.0959,0.0366\O,0,4.6393,-1
 .0217,0.1446\O,0,4.6649,1.1984,-0.0233\C,0,0.4943,-1.1671,0.021\H,0,-0
 .0325,-2.1149,0.0545\C,0,1.9629,-1.2165,-0.0211\H,0,2.4436,-1.9631,0.6
 151\Br,0,2.173,-1.9491,-1.9062\\Version=ES64L-G16RevC.01\HF=-3010.5716
 532\RMSD=9.123e-09\Dipole=-3.0943936,-1.8372698,0.5696165\Quadrupole=-
 6.6573822,7.5544848,-0.8971026,-12.9150726,-3.4918431,4.5505239\PG=C01
  [X(C6H5Br1N1O2)]\\@
 The archive entry for this job was punched.


 THE GREAT THING ABOUT BEING IMPERFECT IS THE JOY IT BRINGS OTHERS.
   -- SIGN OUTSIDE LAKE AGASSIZ JR. HIGH SCHOOL, FARGO, N.D.
 Job cpu time:       0 days  0 hours 24 minutes  1.2 seconds.
 Elapsed time:       0 days  0 hours 24 minutes  1.7 seconds.
 File lengths (MBytes):  RWF=     40 Int=      0 D2E=      0 Chk=     32 Scr=      1
 Normal termination of Gaussian 16 at Thu May  2 14:22:21 2024.
