[Molden Format]
[Atoms] (Angs)
  C      1    6     -0.60308027      1.24884959      0.02595850
  C      2    6      0.78318760      1.23153607     -0.00621390
  C      3    6      1.43790248      0.00979129     -0.02475940
  C      4    6     -1.30034920      0.04558663      0.03879402
  H      5    1     -1.13531042      2.19180962      0.04090714
  H      6    1      1.35342608      2.15108582     -0.01688747
  N      7    7      2.91159486     -0.00948016     -0.05899691
  O      8    8      3.45893135     -1.09359226     -0.07501963
  O      9    8      3.48723719      1.05994155     -0.06906801
  C     10    6     -0.63489100     -1.17551740      0.01999630
  H     11    1     -1.19175769     -2.10420457      0.03034090
  C     12    6      0.75132891     -1.19445736     -0.01220662
  H     13    1      1.29720829     -2.12860384     -0.02748658
 Br     14   35     -3.19270661      0.07025578      0.08272467
[GTO]
1    0
S    6    1.000000
   4.56324000E+03    1.96665000E-03 
   6.82024000E+02    1.52306000E-02 
   1.54973000E+02    7.61269000E-02 
   4.44553000E+01    2.60801000E-01 
   1.30290000E+01    6.16462000E-01 
   1.82773000E+00    2.21006000E-01 
SP   3    1.000000
   2.09642000E+01    1.14660000E-01   4.02487000E-02 
   4.80331000E+00    9.19999000E-01   2.37594000E-01 
   1.45933000E+00   -3.03068000E-03   8.15854000E-01 
SP   1    1.000000
   4.83456000E-01    1.00000000E+00   1.00000000E+00 
SP   1    1.000000
   1.45585000E-01    1.00000000E+00   1.00000000E+00 
SP   1    1.000000
   4.38000000E-02    1.00000000E+00   1.00000000E+00 
D    1    1.000000
   6.26000000E-01    1.00000000E+00 

2    0
S    6    1.000000
   4.56324000E+03    1.96665000E-03 
   6.82024000E+02    1.52306000E-02 
   1.54973000E+02    7.61269000E-02 
   4.44553000E+01    2.60801000E-01 
   1.30290000E+01    6.16462000E-01 
   1.82773000E+00    2.21006000E-01 
SP   3    1.000000
   2.09642000E+01    1.14660000E-01   4.02487000E-02 
   4.80331000E+00    9.19999000E-01   2.37594000E-01 
   1.45933000E+00   -3.03068000E-03   8.15854000E-01 
SP   1    1.000000
   4.83456000E-01    1.00000000E+00   1.00000000E+00 
SP   1    1.000000
   1.45585000E-01    1.00000000E+00   1.00000000E+00 
SP   1    1.000000
   4.38000000E-02    1.00000000E+00   1.00000000E+00 
D    1    1.000000
   6.26000000E-01    1.00000000E+00 

3    0
S    6    1.000000
   4.56324000E+03    1.96665000E-03 
   6.82024000E+02    1.52306000E-02 
   1.54973000E+02    7.61269000E-02 
   4.44553000E+01    2.60801000E-01 
   1.30290000E+01    6.16462000E-01 
   1.82773000E+00    2.21006000E-01 
SP   3    1.000000
   2.09642000E+01    1.14660000E-01   4.02487000E-02 
   4.80331000E+00    9.19999000E-01   2.37594000E-01 
   1.45933000E+00   -3.03068000E-03   8.15854000E-01 
SP   1    1.000000
   4.83456000E-01    1.00000000E+00   1.00000000E+00 
SP   1    1.000000
   1.45585000E-01    1.00000000E+00   1.00000000E+00 
SP   1    1.000000
   4.38000000E-02    1.00000000E+00   1.00000000E+00 
D    1    1.000000
   6.26000000E-01    1.00000000E+00 

4    0
S    6    1.000000
   4.56324000E+03    1.96665000E-03 
   6.82024000E+02    1.52306000E-02 
   1.54973000E+02    7.61269000E-02 
   4.44553000E+01    2.60801000E-01 
   1.30290000E+01    6.16462000E-01 
   1.82773000E+00    2.21006000E-01 
SP   3    1.000000
   2.09642000E+01    1.14660000E-01   4.02487000E-02 
   4.80331000E+00    9.19999000E-01   2.37594000E-01 
   1.45933000E+00   -3.03068000E-03   8.15854000E-01 
SP   1    1.000000
   4.83456000E-01    1.00000000E+00   1.00000000E+00 
SP   1    1.000000
   1.45585000E-01    1.00000000E+00   1.00000000E+00 
SP   1    1.000000
   4.38000000E-02    1.00000000E+00   1.00000000E+00 
D    1    1.000000
   6.26000000E-01    1.00000000E+00 

5    0
S    3    1.000000
   3.38650000E+01    2.54938000E-02 
   5.09479000E+00    1.90373000E-01 
   1.15879000E+00    8.52161000E-01 
S    1    1.000000
   3.25840000E-01    1.00000000E+00 
S    1    1.000000
   1.02741000E-01    1.00000000E+00 

6    0
S    3    1.000000
   3.38650000E+01    2.54938000E-02 
   5.09479000E+00    1.90373000E-01 
   1.15879000E+00    8.52161000E-01 
S    1    1.000000
   3.25840000E-01    1.00000000E+00 
S    1    1.000000
   1.02741000E-01    1.00000000E+00 

7    0
S    6    1.000000
   6.29348000E+03    1.96979000E-03 
   9.49044000E+02    1.49613000E-02 
   2.18776000E+02    7.35006000E-02 
   6.36916000E+01    2.48937000E-01 
   1.88282000E+01    6.02460000E-01 
   2.72023000E+00    2.56202000E-01 
SP   3    1.000000
   3.06331000E+01    1.11906000E-01   3.83119000E-02 
   7.02614000E+00    9.21666000E-01   2.37403000E-01 
   2.11205000E+00   -2.56919000E-03   8.17592000E-01 
SP   1    1.000000
   6.84009000E-01    1.00000000E+00   1.00000000E+00 
SP   1    1.000000
   2.00878000E-01    1.00000000E+00   1.00000000E+00 
SP   1    1.000000
   6.39000000E-02    1.00000000E+00   1.00000000E+00 
D    1    1.000000
   9.13000000E-01    1.00000000E+00 

8    0
S    6    1.000000
   8.58850000E+03    1.89515000E-03 
   1.29723000E+03    1.43859000E-02 
   2.99296000E+02    7.07320000E-02 
   8.73771000E+01    2.40001000E-01 
   2.56789000E+01    5.94797000E-01 
   3.74004000E+00    2.80802000E-01 
SP   3    1.000000
   4.21175000E+01    1.13889000E-01   3.65114000E-02 
   9.62837000E+00    9.20811000E-01   2.37153000E-01 
   2.85332000E+00   -3.27447000E-03   8.19702000E-01 
SP   1    1.000000
   9.05661000E-01    1.00000000E+00   1.00000000E+00 
SP   1    1.000000
   2.55611000E-01    1.00000000E+00   1.00000000E+00 
SP   1    1.000000
   8.45000000E-02    1.00000000E+00   1.00000000E+00 
D    1    1.000000
   1.29200000E+00    1.00000000E+00 

9    0
S    6    1.000000
   8.58850000E+03    1.89515000E-03 
   1.29723000E+03    1.43859000E-02 
   2.99296000E+02    7.07320000E-02 
   8.73771000E+01    2.40001000E-01 
   2.56789000E+01    5.94797000E-01 
   3.74004000E+00    2.80802000E-01 
SP   3    1.000000
   4.21175000E+01    1.13889000E-01   3.65114000E-02 
   9.62837000E+00    9.20811000E-01   2.37153000E-01 
   2.85332000E+00   -3.27447000E-03   8.19702000E-01 
SP   1    1.000000
   9.05661000E-01    1.00000000E+00   1.00000000E+00 
SP   1    1.000000
   2.55611000E-01    1.00000000E+00   1.00000000E+00 
SP   1    1.000000
   8.45000000E-02    1.00000000E+00   1.00000000E+00 
D    1    1.000000
   1.29200000E+00    1.00000000E+00 

10    0
S    6    1.000000
   4.56324000E+03    1.96665000E-03 
   6.82024000E+02    1.52306000E-02 
   1.54973000E+02    7.61269000E-02 
   4.44553000E+01    2.60801000E-01 
   1.30290000E+01    6.16462000E-01 
   1.82773000E+00    2.21006000E-01 
SP   3    1.000000
   2.09642000E+01    1.14660000E-01   4.02487000E-02 
   4.80331000E+00    9.19999000E-01   2.37594000E-01 
   1.45933000E+00   -3.03068000E-03   8.15854000E-01 
SP   1    1.000000
   4.83456000E-01    1.00000000E+00   1.00000000E+00 
SP   1    1.000000
   1.45585000E-01    1.00000000E+00   1.00000000E+00 
SP   1    1.000000
   4.38000000E-02    1.00000000E+00   1.00000000E+00 
D    1    1.000000
   6.26000000E-01    1.00000000E+00 

11    0
S    3    1.000000
   3.38650000E+01    2.54938000E-02 
   5.09479000E+00    1.90373000E-01 
   1.15879000E+00    8.52161000E-01 
S    1    1.000000
   3.25840000E-01    1.00000000E+00 
S    1    1.000000
   1.02741000E-01    1.00000000E+00 

12    0
S    6    1.000000
   4.56324000E+03    1.96665000E-03 
   6.82024000E+02    1.52306000E-02 
   1.54973000E+02    7.61269000E-02 
   4.44553000E+01    2.60801000E-01 
   1.30290000E+01    6.16462000E-01 
   1.82773000E+00    2.21006000E-01 
SP   3    1.000000
   2.09642000E+01    1.14660000E-01   4.02487000E-02 
   4.80331000E+00    9.19999000E-01   2.37594000E-01 
   1.45933000E+00   -3.03068000E-03   8.15854000E-01 
SP   1    1.000000
   4.83456000E-01    1.00000000E+00   1.00000000E+00 
SP   1    1.000000
   1.45585000E-01    1.00000000E+00   1.00000000E+00 
SP   1    1.000000
   4.38000000E-02    1.00000000E+00   1.00000000E+00 
D    1    1.000000
   6.26000000E-01    1.00000000E+00 

13    0
S    3    1.000000
   3.38650000E+01    2.54938000E-02 
   5.09479000E+00    1.90373000E-01 
   1.15879000E+00    8.52161000E-01 
S    1    1.000000
   3.25840000E-01    1.00000000E+00 
S    1    1.000000
   1.02741000E-01    1.00000000E+00 

14    0
S    6    1.000000
   4.39700000E+05    8.13000000E-04 
   6.60300000E+04    6.28500000E-03 
   1.51400000E+04    3.19200000E-02 
   4.31700000E+03    1.28800000E-01 
   1.41400000E+03    3.94600000E-01 
   5.23900000E+02    5.41300000E-01 
S    3    1.000000
   5.23900000E+02    1.83100000E-01 
   2.07700000E+02    6.17600000E-01 
   8.65400000E+01    2.53800000E-01 
S    1    1.000000
   3.05200000E+01    1.00000000E+00 
S    1    1.000000
   1.29800000E+01    1.00000000E+00 
S    1    1.000000
   4.41200000E+00    1.00000000E+00 
S    1    1.000000
   1.86200000E+00    1.00000000E+00 
S    1    1.000000
   3.93200000E-01    1.00000000E+00 
S    1    1.000000
   1.40000000E-01    1.00000000E+00 
P    3    1.000000
   2.95700000E+03    2.22600000E-02 
   7.00300000E+02    1.80200000E-01 
   2.24600000E+02    8.62400000E-01 
P    3    1.000000
   8.25900000E+01    3.44000000E-01 
   3.31900000E+01    5.07100000E-01 
   1.42000000E+01    2.59000000E-01 
P    3    1.000000
   1.42000000E+01    7.96500000E-02 
   7.43800000E+00    3.73400000E-01 
   3.52600000E+00    6.04900000E-01 
P    1    1.000000
   1.59500000E+00    1.00000000E+00 
P    1    1.000000
   8.46200000E-01    1.00000000E+00 
P    1    1.000000
   3.18600000E-01    1.00000000E+00 
P    1    1.000000
   1.09600000E-01    1.00000000E+00 
D    4    1.000000
   1.34800000E+02    1.83100000E-02 
   3.63900000E+01    1.35000000E-01 
   1.21600000E+01    4.26100000E-01 
   4.34100000E+00    6.04300000E-01 
D    1    1.000000
   1.53500000E+00    1.00000000E+00 
SP   1    1.000000
   3.90000000E-02    1.00000000E+00   1.00000000E+00 
D    1    1.000000
   4.15000000E-01    1.00000000E+00 

[MO]
Sym=X
Ene= -0.138442
Spin=Alpha
Occup=1
     1   -3.278976886934e-05
     2   -5.259108509528e-05
     3    1.792895607742e-03
     4   -2.565431516223e-04
     5    8.308532107104e-02
     6    1.521522083983e-04
     7    2.958206917961e-03
     8   -3.951631259622e-04
     9    1.361832797709e-01
    10    2.418467361286e-05
    11    1.697409230693e-03
    12   -2.514215974265e-04
    13    8.385998069094e-02
    14    4.447768745720e-04
    15    1.490644716573e-03
    16    1.900674191127e-04
    17    3.596074583954e-02
    18    1.482243460874e-04
    19   -5.196485671108e-03
    20   -1.291373394639e-02
    21   -1.783016719119e-04
    22   -2.820770010766e-04
    23    5.732969103945e-05
    24    9.013763764809e-05
    25    7.249776736378e-04
    26   -4.814901432473e-05
    27    2.849778382956e-02
    28   -2.425493929668e-04
    29    1.183016331020e-03
    30   -9.587433503209e-05
    31    4.734885757646e-02
    32   -5.205532334528e-05
    33    3.926356868235e-04
    34    1.660913035763e-06
    35    2.344753157446e-02
    36   -1.004703140008e-03
    37    8.304387015245e-05
    38   -1.774711299266e-04
    39   -2.377015397653e-02
    40    3.825088457679e-04
    41   -9.555572141534e-03
    42   -1.026185661341e-03
    43   -2.137000459154e-04
    44   -1.905904489971e-05
    45   -1.013072652503e-04
    46   -1.642191640607e-04
    47    3.950646556002e-04
    48   -2.018931366755e-05
    49    4.060246777136e-03
    50    4.774944511377e-04
    51    6.648852863657e-04
    52   -3.047686801583e-05
    53    6.562330229381e-03
    54    8.567019654379e-04
    55    3.578183253027e-04
    56    3.507891629962e-05
    57   -9.864482369838e-03
    58    6.853262390739e-04
    59   -5.294432259774e-05
    60   -4.018361784559e-04
    61    2.163819702995e-02
    62    1.802355115720e-04
    63   -4.674339380793e-03
    64    7.791204415031e-05
    65   -6.388756077438e-05
    66    2.193959972030e-05
    67   -3.195503758864e-05
    68   -5.166735228413e-05
    69    3.383804506483e-03
    70   -3.191934805010e-04
    71    1.450759685069e-01
    72    1.418662848797e-04
    73    5.508408858345e-03
    74   -5.290130726842e-04
    75    2.364366364978e-01
    76    2.096424028504e-04
    77    4.565320231225e-03
    78   -5.775496168177e-04
    79    1.894088767578e-01
    80   -1.394000580848e-03
    81   -1.137608851294e-03
    82    9.868048127215e-04
    83   -4.757169953000e-02
    84    1.876900549171e-04
    85   -4.624394492073e-03
    86    8.078220428904e-05
    87   -1.333956048111e-04
    88    4.197406578525e-05
    89    5.580413361996e-05
    90    3.448240228304e-05
    91    6.309846019410e-06
    92   -2.623805065354e-05
    93   -3.016106685425e-05
    94    1.222731616490e-05
    95    4.083876055888e-05
    96    6.605911837063e-05
    97   -4.216508049809e-04
    98    6.444916529220e-05
    99   -4.086069381590e-03
   100   -2.261287305159e-04
   101   -6.644380601376e-04
   102    1.006367050632e-04
   103   -6.066980936687e-03
   104   -1.857133282407e-04
   105   -1.217298839408e-04
   106    6.817459618896e-05
   107   -6.194153596061e-03
   108    3.015832842592e-04
   109    4.042802452121e-04
   110   -6.052110678818e-05
   111   -6.381881064159e-03
   112    6.465350508059e-06
   113    2.685650048750e-04
   114   -6.535038178412e-05
   115    1.578326422586e-04
   116   -8.204728511292e-06
   117   -5.542513227305e-05
   118   -9.027001113542e-05
   119    5.896628046277e-04
   120   -1.222320133155e-04
   121    1.330990436050e-03
   122    2.582647595130e-04
   123    8.610514928324e-04
   124   -1.692299646025e-04
   125    1.987585223081e-03
   126    3.285212046839e-04
   127    7.884644114984e-04
   128   -6.111604932260e-05
   129    2.789487558749e-03
   130   -2.370222721864e-04
   131    5.708025821877e-05
   132   -6.627459545720e-05
   133    3.082958255306e-03
   134    1.062709142748e-05
   135    9.555068941978e-05
   136   -1.395207405393e-04
   137    9.510952598192e-07
   138    2.854669514740e-05
   139   -3.110266912334e-05
   140   -5.077080042618e-05
   141    4.933041113520e-04
   142    5.636838728030e-05
   143    8.526924216769e-04
   144    1.414042192086e-04
   145    7.186618116268e-04
   146    7.582295492214e-05
   147    1.276512072934e-03
   148    1.496525866600e-04
   149    6.860793444754e-04
   150    6.765199988846e-06
   151    2.110698869766e-03
   152   -1.714490861480e-04
   153    5.541864652713e-05
   154    4.571881698016e-05
   155    2.993037974797e-03
   156    5.932176709114e-06
   157    1.197958280465e-04
   158    1.684928561208e-04
   159    2.801925975789e-06
   160   -1.966597313620e-05
   161   -7.513773507233e-06
   162   -1.219152495859e-05
   163    1.897087902119e-03
   164   -2.958122926131e-04
   165    8.285735129253e-02
   166    3.920459462510e-05
   167    3.114967094395e-03
   168   -4.795907215933e-04
   169    1.358161944158e-01
   170   -3.383292552669e-04
   171    1.761103708761e-03
   172   -3.920840829900e-04
   173    8.350879374686e-02
   174    1.858751970945e-03
   175    4.990414031179e-04
   176    2.853169644967e-04
   177    3.595910382964e-02
   178    2.599413422911e-04
   179   -4.877503260158e-03
   180    1.304683637706e-02
   181   -9.242051177497e-05
   182    3.276692035991e-04
   183    6.501613840770e-05
   184    6.225431792739e-05
   185   -1.547247159474e-05
   186    4.160701575648e-05
   187    6.533726510924e-05
   188    6.496167251419e-04
   189   -7.352373000686e-05
   190    2.828764136210e-02
   191   -1.759269917592e-04
   192    1.070660385392e-03
   193   -1.147107362843e-04
   194    4.699685366262e-02
   195    1.127171085563e-04
   196    2.704901077304e-04
   197   -1.189634108548e-05
   198    2.317606975569e-02
   199   -9.681424138379e-04
   200   -5.839086325102e-04
   201   -1.560167001024e-04
   202   -2.375549430467e-02
   203    3.918403476348e-04
   204   -9.498007993465e-03
   205    1.273298611871e-03
   206   -1.982904622585e-04
   207    9.207846064251e-05
   208   -7.741212885300e-05
   209   -9.369002799117e-05
   210   -1.818756154986e-06
   211    9.924859282652e-06
   212    3.216744707468e-05
   213   -8.725796263651e-05
   214   -1.050355040824e-04
   215    2.057779385801e-04
   216    2.748919599317e-04
   217   -5.552759406053e-04
   218   -4.013753987337e-05
   219    1.967303900473e-04
   220   -3.803616365865e-05
   221    8.435992544173e-03
   222    1.624030927236e-03
   223   -3.139266552906e-04
   224    6.963350686226e-02
   225   -4.234803982385e-03
   226    8.187741402907e-04
   227   -1.815569301011e-01
   228   -1.542208134679e-03
   229    3.051851570146e-04
   230   -6.666047113983e-02
   231    3.337620559564e-03
   232   -6.645249245298e-04
   233    1.443391342947e-01
   234    8.281678994015e-03
   235   -1.592150914504e-03
   236    3.538389912936e-01
   237    4.247312362259e-03
   238   -8.948437424612e-04
   239    1.807362624168e-01
   240    5.883981115459e-04
   241   -1.473786226925e-02
   242    1.901616099770e-04
   243   -3.468552706308e-04
   244    4.607546423389e-05
   245    8.670466810741e-05
   246   -1.986484065544e-03
   247    2.198125428180e-05
   248   -5.003603532256e-05
   249    6.090018779305e-06
   250    2.587483345000e-04
   251    3.638437969854e-04
   252   -6.269831329259e-05
   253    1.269837788633e-02
   254   -1.312493887016e-03
   255    3.256716827541e-02
   256   -4.092358546410e-04
   257    7.648952341081e-04
   258   -1.054792076197e-04
Sym=X
Ene= -0.203422
Spin=Alpha
Occup=1
     1   -7.370049578103e-06
     2   -1.185593883536e-05
     3    1.824989548211e-03
     4   -1.932399960544e-04
     5    7.666695045204e-02
     6    3.535811316185e-05
     7    2.950476353024e-03
     8   -3.170059806085e-04
     9    1.241634616880e-01
    10    1.126314916600e-05
    11    2.832857650905e-03
    12   -2.327424008486e-04
    13    1.194558738289e-01
    14   -8.451246446087e-04
    15   -7.144773952652e-06
    16    1.710652697507e-04
    17    3.185241384945e-04
    18    3.901622218022e-04
    19   -1.109660849837e-02
    20   -1.134823871956e-02
    21   -2.874543572351e-04
    22   -2.505787459937e-04
    23    2.374439795204e-06
    24    4.272994270581e-06
    25   -1.173714688495e-03
    26    4.374575010182e-05
    27   -4.760370951803e-02
    28   -1.449576413893e-05
    29   -1.933004079704e-03
    30    8.094937263952e-05
    31   -7.836880228656e-02
    32   -8.261143332131e-05
    33   -1.410349578440e-03
    34    6.927821779567e-05
    35   -6.300613943369e-02
    36    6.892730013605e-04
    37    2.963713572495e-06
    38   -1.296407766184e-04
    39    8.821263329200e-05
    40    7.239959905264e-04
    41   -1.656083924359e-02
    42    1.231092907828e-02
    43   -3.470638408889e-04
    44    3.261534129137e-04
    45    2.130262382685e-05
    46    3.542147316666e-05
    47   -3.191816674203e-03
    48    3.674561892539e-04
    49   -1.317928516968e-01
    50   -1.026678594459e-04
    51   -5.243887834995e-03
    52    5.997030900441e-04
    53   -2.165327412976e-01
    54   -5.240105627347e-04
    55   -5.097373042579e-03
    56    6.164092662261e-04
    57   -2.035891883222e-01
    58   -9.945740683694e-04
    59   -3.284418813318e-04
    60    5.444619493118e-05
    61   -2.688510967130e-02
    62    6.168627889957e-06
    63   -3.254577567287e-05
    64    3.871146862401e-05
    65   -1.049908930610e-06
    66   -1.974669494658e-06
    67    2.979646817000e-05
    68    4.739006853086e-05
    69    2.657374469072e-03
    70   -3.295397250623e-04
    71    1.143859496581e-01
    72   -1.422098255061e-04
    73    4.301572176280e-03
    74   -5.338353147986e-04
    75    1.852173311482e-01
    76    2.981622726384e-05
    77    3.621521607656e-03
    78   -3.970003653318e-04
    79    1.546795025557e-01
    80    1.124376727480e-03
    81    8.680204551948e-04
    82    3.421231512748e-06
    83    2.834562051200e-02
    84   -7.644308651231e-04
    85    1.893567070486e-02
    86   -2.040703966602e-04
    87    4.417072384774e-04
    88   -6.353610881490e-05
    89    1.263940966916e-05
    90    8.010029396272e-06
    91   -1.004241119024e-05
    92   -7.899476974140e-05
    93   -9.933399652950e-05
    94   -2.435300850181e-05
    95    5.677063352899e-06
    96    9.626827484670e-06
    97    1.953680678500e-04
    98   -1.937098200468e-05
    99    6.921827104812e-03
   100   -3.310728152109e-05
   101    3.033314290148e-04
   102   -2.740539403644e-05
   103    1.031116077983e-02
   104    3.035917888575e-06
   105    1.671501682763e-05
   106   -3.691157953220e-05
   107    9.058998961925e-03
   108    4.574884939854e-05
   109    3.954493456991e-04
   110   -1.192849225269e-04
   111    3.155002777823e-02
   112   -7.239079124262e-04
   113    1.781462220292e-02
   114   -2.476228297005e-04
   115    3.301106495008e-04
   116   -5.926260883964e-05
   117   -1.034679670800e-05
   118   -1.673191195678e-05
   119    8.105890280653e-04
   120   -1.883597105470e-04
   121    4.534562984904e-02
   122    5.409570812817e-05
   123    1.216114894257e-03
   124   -2.830633883259e-04
   125    6.763454437142e-02
   126    9.279254560532e-05
   127    1.175553349592e-03
   128   -2.374439071645e-04
   129    6.451888886878e-02
   130    1.055032078526e-04
   131   -2.003020917184e-05
   132    3.484025008522e-05
   133   -1.530304715204e-03
   134    5.853209244516e-05
   135   -9.875648126316e-04
   136    3.665922692423e-03
   137   -7.625990718376e-07
   138    7.748534453267e-05
   139   -1.149291510358e-05
   140   -1.868788078481e-05
   141    7.589571873953e-04
   142   -5.700384941619e-05
   143    4.520660188905e-02
   144    6.070386305985e-05
   145    1.137804451173e-03
   146   -8.374770132676e-05
   147    6.742785601064e-02
   148    1.113226413001e-04
   149    1.100682123184e-03
   150   -1.122441617150e-04
   151    6.431885196816e-02
   152    1.331004031869e-04
   153   -2.801020058504e-05
   154   -3.598784645163e-05
   155   -1.542239508728e-03
   156    2.348114026644e-05
   157   -1.078915686050e-03
   158   -3.629349886121e-03
   159   -2.206001972242e-05
   160   -6.831839767565e-05
   161   -1.524068900321e-05
   162   -2.455912069341e-05
   163    1.750877316572e-03
   164   -2.456399604856e-04
   165    7.625453280918e-02
   166    6.961705271439e-05
   167    2.834565520153e-03
   168   -3.971793353812e-04
   169    1.234909636757e-01
   170    1.297107739062e-04
   171    2.752079346168e-03
   172   -4.259997807565e-04
   173    1.188609192586e-01
   174   -9.387631681481e-04
   175   -1.627077380892e-04
   176   -7.968220434761e-05
   177    2.321722080008e-04
   178    4.896391725872e-04
   179   -1.083511313903e-02
   180    1.163754234256e-02
   181   -2.234126921785e-04
   182    3.185712915547e-04
   183    5.503191276761e-05
   184    5.728209886902e-05
   185    4.746436579670e-06
   186    9.720906747733e-06
   187    1.564553612186e-05
   188   -1.129796271733e-03
   189    1.986498127294e-04
   190   -4.800021889312e-02
   191   -4.604573080709e-05
   192   -1.865015104209e-03
   193    3.213567467191e-04
   194   -7.901456543948e-02
   195   -3.464621686800e-05
   196   -1.358268771905e-03
   197    2.672384505745e-04
   198   -6.357934327533e-02
   199    8.718041832878e-04
   200   -1.789793809016e-04
   201    3.346108906268e-05
   202    9.446817660010e-05
   203    6.174866430625e-04
   204   -1.683316222667e-02
   205   -1.187315157354e-02
   206   -4.254248667245e-04
   207   -2.248637393298e-04
   208   -4.627482487881e-05
   209   -5.924490212362e-05
   210   -1.926376603037e-05
   211   -2.260996805948e-06
   212   -7.340159166525e-06
   213    2.002671150865e-05
   214    2.365578332231e-05
   215   -4.625506542818e-05
   216   -6.656562929556e-05
   217    1.571715454923e-04
   218   -2.817174331420e-05
   219   -2.029278728040e-04
   220    2.942520914360e-05
   221   -8.677509843270e-03
   222   -1.675381589269e-03
   223    2.428915604402e-04
   224   -7.164009197990e-02
   225    4.380304190831e-03
   226   -6.347406950004e-04
   227    1.873128054869e-01
   228    1.639963380729e-03
   229   -2.395837989823e-04
   230    7.027651881523e-02
   231   -3.641239808793e-03
   232    5.301616032047e-04
   233   -1.561183521470e-01
   234   -8.609924271193e-03
   235    1.244392202124e-03
   236   -3.680745934784e-01
   237   -5.890586893717e-03
   238    8.382349884624e-04
   239   -2.522941914522e-01
   240    3.456799655371e-04
   241   -8.521669263311e-03
   242    1.074455058040e-04
   243   -1.894197168361e-04
   244    2.521293622719e-05
   245    2.647556402714e-05
   246   -8.349967889953e-04
   247    1.365660338198e-05
   248   -1.686005139518e-05
   249    2.407593081825e-06
   250    5.069032915378e-06
   251   -3.717204324690e-04
   252    4.793066426124e-05
   253   -1.645712396980e-02
   254   -4.339101526211e-04
   255    1.094982134611e-02
   256   -1.469166202472e-04
   257    2.363778551290e-04
   258   -3.024910904464e-05
Sym=X
Ene= -0.281905
Spin=Alpha
Occup=1
     1   -1.175315292698e-03
     2   -1.938553731264e-03
     3    4.468206114874e-03
     4   -1.293557416218e-02
     5   -2.003265997544e-04
     6    7.497392174735e-03
     7    6.261408362678e-03
     8   -1.984851286552e-02
     9   -3.042324826644e-04
    10   -4.508736850572e-02
    11   -9.404828686447e-03
    12   -2.570470998935e-02
    13    1.565831767056e-04
    14   -1.117875031285e-01
    15    3.172127581392e-02
    16    5.814720681768e-02
    17   -6.663704664057e-04
    18    9.230575171835e-04
    19    8.986054381250e-05
    20   -1.342654938837e-04
    21   -1.178452608402e-03
    22    6.314768827130e-03
    23    1.673716006007e-03
    24    2.411345486309e-03
    25    1.944509134291e-03
    26    3.681156725994e-02
    27   -9.270888627505e-07
    28   -5.334789267952e-03
    29    5.700663161731e-03
    30    5.515858767014e-02
    31   -7.396712479629e-05
    32    1.531146705587e-02
    33   -6.428109591112e-02
    34    5.115019547567e-02
    35    1.561250409455e-03
    36    1.050687507566e-02
    37    2.537678524351e-02
    38   -3.975564683171e-02
    39   -6.454149706639e-04
    40   -6.906812028598e-05
    41   -9.117719746987e-05
    42    3.160906078889e-05
    43    3.631368893103e-03
    44   -1.495416273290e-03
    45   -1.797614851165e-02
    46   -2.971088849141e-02
    47    1.053330462553e-01
    48   -2.065059875395e-03
    49   -2.520167199299e-03
    50    8.804469128069e-02
    51    1.795461478361e-01
    52   -3.354743521683e-03
    53   -4.295633490485e-03
    54    3.194642174656e-01
    55    2.090632755006e-01
    56   -3.349211833102e-03
    57   -4.955717052988e-03
    58    6.523177482817e-02
    59   -1.273430519778e-01
    60   -1.672482311220e-03
    61    2.861278140041e-03
    62   -1.982766084784e-03
    63   -3.457889378767e-04
    64   -2.366600013836e-05
    65    1.156321659679e-02
    66   -2.275897745786e-04
    67   -8.356136666680e-03
    68   -1.328149331691e-02
    69    1.528244806877e-02
    70    2.921790797668e-04
    71   -5.508789877049e-04
    72    3.840376795398e-02
    73    2.222555257842e-02
    74    3.810398289445e-04
    75   -8.381849952436e-04
    76    1.866382592871e-02
    77    1.631663316535e-02
    78    4.474227572358e-04
    79   -6.492381968723e-04
    80    2.370062136350e-01
    81   -6.495546059194e-02
    82    2.149064240998e-03
    83    1.682970112759e-03
    84    6.079732910800e-04
    85    7.593065644420e-05
    86   -5.616386595485e-06
    87    7.132320312003e-05
    88    2.201998785977e-05
    89   -1.399500475155e-02
    90   -1.656941157424e-02
    91   -7.180345906153e-03
    92    1.520006982161e-02
    93    1.581481814595e-02
    94    1.338735502428e-03
    95   -1.815784212035e-03
    96   -3.111105178987e-03
    97   -5.897921268725e-02
    98    7.900190486503e-04
    99    1.378857646122e-03
   100    7.376535982891e-03
   101   -9.684777185715e-02
   102    1.276185607123e-03
   103    2.265307115533e-03
   104    2.856264294722e-02
   105    8.117801131738e-02
   106   -7.923653335255e-04
   107   -1.880628668853e-03
   108    1.388992961812e-01
   109    2.019705876015e-01
   110   -2.955383781344e-03
   111   -4.659016697346e-03
   112    5.595462929463e-03
   113   -1.157373877263e-03
   114   -1.922751076224e-04
   115    5.974750192157e-02
   116   -1.674829289752e-03
   117    1.441142341545e-03
   118    2.284730443172e-03
   119    1.986931177424e-01
   120    2.363271568505e-02
   121   -4.436767995358e-03
   122   -1.000438352516e-02
   123    2.909382338188e-01
   124    3.702978168723e-02
   125   -6.486572294391e-03
   126   -3.389118606725e-02
   127    2.691864522125e-01
   128    2.563668483907e-02
   129   -6.024074562052e-03
   130   -1.121641090861e-01
   131    8.899751622238e-05
   132   -2.757690784414e-02
   133   -7.629183693307e-05
   134    1.645505396827e-03
   135    2.438042861155e-04
   136   -1.938719255463e-04
   137   -6.612487153260e-03
   138    9.167788066995e-03
   139    1.485713577477e-03
   140    2.357320699970e-03
   141    1.967118309992e-01
   142   -2.795440356664e-02
   143   -4.688628515496e-03
   144   -1.024043508660e-02
   145    2.879384049121e-01
   146   -4.335142603086e-02
   147   -6.870819091189e-03
   148   -3.440784057547e-02
   149    2.666578730198e-01
   150   -3.137477437347e-02
   151   -6.336598348141e-03
   152   -1.113833227991e-01
   153    5.857493055676e-04
   154    2.740601727485e-02
   155    4.879019057482e-05
   156    1.636952761642e-03
   157    2.027973058700e-04
   158    2.179643096979e-04
   159   -6.984033572299e-03
   160   -8.760773509433e-03
   161   -1.184988281387e-03
   162   -1.955995139369e-03
   163    4.557370247465e-03
   164    1.184367382910e-02
   165   -1.240615928357e-04
   166    7.513807443581e-03
   167    6.347415904615e-03
   168    1.821485217822e-02
   169   -1.822151281204e-04
   170   -4.450104716576e-02