[Molden Format]
[Atoms] (Angs)
  C      1    6     -0.60308027      1.24884959      0.02595850
  C      2    6      0.78318760      1.23153607     -0.00621390
  C      3    6      1.43790248      0.00979129     -0.02475940
  C      4    6     -1.30034920      0.04558663      0.03879402
  H      5    1     -1.13531042      2.19180962      0.04090714
  H      6    1      1.35342608      2.15108582     -0.01688747
  N      7    7      2.91159486     -0.00948016     -0.05899691
  O      8    8      3.45893135     -1.09359226     -0.07501963
  O      9    8      3.48723719      1.05994155     -0.06906801
  C     10    6     -0.63489100     -1.17551740      0.01999630
  H     11    1     -1.19175769     -2.10420457      0.03034090
  C     12    6      0.75132891     -1.19445736     -0.01220662
  H     13    1      1.29720829     -2.12860384     -0.02748658
 Br     14   35     -3.19270661      0.07025578      0.08272467
[GTO]
1    0
S    6    1.000000
   4.56324000E+03    1.96665000E-03 
   6.82024000E+02    1.52306000E-02 
   1.54973000E+02    7.61269000E-02 
   4.44553000E+01    2.60801000E-01 
   1.30290000E+01    6.16462000E-01 
   1.82773000E+00    2.21006000E-01 
SP   3    1.000000
   2.09642000E+01    1.14660000E-01   4.02487000E-02 
   4.80331000E+00    9.19999000E-01   2.37594000E-01 
   1.45933000E+00   -3.03068000E-03   8.15854000E-01 
SP   1    1.000000
   4.83456000E-01    1.00000000E+00   1.00000000E+00 
SP   1    1.000000
   1.45585000E-01    1.00000000E+00   1.00000000E+00 
SP   1    1.000000
   4.38000000E-02    1.00000000E+00   1.00000000E+00 
D    1    1.000000
   6.26000000E-01    1.00000000E+00 

2    0
S    6    1.000000
   4.56324000E+03    1.96665000E-03 
   6.82024000E+02    1.52306000E-02 
   1.54973000E+02    7.61269000E-02 
   4.44553000E+01    2.60801000E-01 
   1.30290000E+01    6.16462000E-01 
   1.82773000E+00    2.21006000E-01 
SP   3    1.000000
   2.09642000E+01    1.14660000E-01   4.02487000E-02 
   4.80331000E+00    9.19999000E-01   2.37594000E-01 
   1.45933000E+00   -3.03068000E-03   8.15854000E-01 
SP   1    1.000000
   4.83456000E-01    1.00000000E+00   1.00000000E+00 
SP   1    1.000000
   1.45585000E-01    1.00000000E+00   1.00000000E+00 
SP   1    1.000000
   4.38000000E-02    1.00000000E+00   1.00000000E+00 
D    1    1.000000
   6.26000000E-01    1.00000000E+00 

3    0
S    6    1.000000
   4.56324000E+03    1.96665000E-03 
   6.82024000E+02    1.52306000E-02 
   1.54973000E+02    7.61269000E-02 
   4.44553000E+01    2.60801000E-01 
   1.30290000E+01    6.16462000E-01 
   1.82773000E+00    2.21006000E-01 
SP   3    1.000000
   2.09642000E+01    1.14660000E-01   4.02487000E-02 
   4.80331000E+00    9.19999000E-01   2.37594000E-01 
   1.45933000E+00   -3.03068000E-03   8.15854000E-01 
SP   1    1.000000
   4.83456000E-01    1.00000000E+00   1.00000000E+00 
SP   1    1.000000
   1.45585000E-01    1.00000000E+00   1.00000000E+00 
SP   1    1.000000
   4.38000000E-02    1.00000000E+00   1.00000000E+00 
D    1    1.000000
   6.26000000E-01    1.00000000E+00 

4    0
S    6    1.000000
   4.56324000E+03    1.96665000E-03 
   6.82024000E+02    1.52306000E-02 
   1.54973000E+02    7.61269000E-02 
   4.44553000E+01    2.60801000E-01 
   1.30290000E+01    6.16462000E-01 
   1.82773000E+00    2.21006000E-01 
SP   3    1.000000
   2.09642000E+01    1.14660000E-01   4.02487000E-02 
   4.80331000E+00    9.19999000E-01   2.37594000E-01 
   1.45933000E+00   -3.03068000E-03   8.15854000E-01 
SP   1    1.000000
   4.83456000E-01    1.00000000E+00   1.00000000E+00 
SP   1    1.000000
   1.45585000E-01    1.00000000E+00   1.00000000E+00 
SP   1    1.000000
   4.38000000E-02    1.00000000E+00   1.00000000E+00 
D    1    1.000000
   6.26000000E-01    1.00000000E+00 

5    0
S    3    1.000000
   3.38650000E+01    2.54938000E-02 
   5.09479000E+00    1.90373000E-01 
   1.15879000E+00    8.52161000E-01 
S    1    1.000000
   3.25840000E-01    1.00000000E+00 
S    1    1.000000
   1.02741000E-01    1.00000000E+00 

6    0
S    3    1.000000
   3.38650000E+01    2.54938000E-02 
   5.09479000E+00    1.90373000E-01 
   1.15879000E+00    8.52161000E-01 
S    1    1.000000
   3.25840000E-01    1.00000000E+00 
S    1    1.000000
   1.02741000E-01    1.00000000E+00 

7    0
S    6    1.000000
   6.29348000E+03    1.96979000E-03 
   9.49044000E+02    1.49613000E-02 
   2.18776000E+02    7.35006000E-02 
   6.36916000E+01    2.48937000E-01 
   1.88282000E+01    6.02460000E-01 
   2.72023000E+00    2.56202000E-01 
SP   3    1.000000
   3.06331000E+01    1.11906000E-01   3.83119000E-02 
   7.02614000E+00    9.21666000E-01   2.37403000E-01 
   2.11205000E+00   -2.56919000E-03   8.17592000E-01 
SP   1    1.000000
   6.84009000E-01    1.00000000E+00   1.00000000E+00 
SP   1    1.000000
   2.00878000E-01    1.00000000E+00   1.00000000E+00 
SP   1    1.000000
   6.39000000E-02    1.00000000E+00   1.00000000E+00 
D    1    1.000000
   9.13000000E-01    1.00000000E+00 

8    0
S    6    1.000000
   8.58850000E+03    1.89515000E-03 
   1.29723000E+03    1.43859000E-02 
   2.99296000E+02    7.07320000E-02 
   8.73771000E+01    2.40001000E-01 
   2.56789000E+01    5.94797000E-01 
   3.74004000E+00    2.80802000E-01 
SP   3    1.000000
   4.21175000E+01    1.13889000E-01   3.65114000E-02 
   9.62837000E+00    9.20811000E-01   2.37153000E-01 
   2.85332000E+00   -3.27447000E-03   8.19702000E-01 
SP   1    1.000000
   9.05661000E-01    1.00000000E+00   1.00000000E+00 
SP   1    1.000000
   2.55611000E-01    1.00000000E+00   1.00000000E+00 
SP   1    1.000000
   8.45000000E-02    1.00000000E+00   1.00000000E+00 
D    1    1.000000
   1.29200000E+00    1.00000000E+00 

9    0
S    6    1.000000
   8.58850000E+03    1.89515000E-03 
   1.29723000E+03    1.43859000E-02 
   2.99296000E+02    7.07320000E-02 
   8.73771000E+01    2.40001000E-01 
   2.56789000E+01    5.94797000E-01 
   3.74004000E+00    2.80802000E-01 
SP   3    1.000000
   4.21175000E+01    1.13889000E-01   3.65114000E-02 
   9.62837000E+00    9.20811000E-01   2.37153000E-01 
   2.85332000E+00   -3.27447000E-03   8.19702000E-01 
SP   1    1.000000
   9.05661000E-01    1.00000000E+00   1.00000000E+00 
SP   1    1.000000
   2.55611000E-01    1.00000000E+00   1.00000000E+00 
SP   1    1.000000
   8.45000000E-02    1.00000000E+00   1.00000000E+00 
D    1    1.000000
   1.29200000E+00    1.00000000E+00 

10    0
S    6    1.000000
   4.56324000E+03    1.96665000E-03 
   6.82024000E+02    1.52306000E-02 
   1.54973000E+02    7.61269000E-02 
   4.44553000E+01    2.60801000E-01 
   1.30290000E+01    6.16462000E-01 
   1.82773000E+00    2.21006000E-01 
SP   3    1.000000
   2.09642000E+01    1.14660000E-01   4.02487000E-02 
   4.80331000E+00    9.19999000E-01   2.37594000E-01 
   1.45933000E+00   -3.03068000E-03   8.15854000E-01 
SP   1    1.000000
   4.83456000E-01    1.00000000E+00   1.00000000E+00 
SP   1    1.000000
   1.45585000E-01    1.00000000E+00   1.00000000E+00 
SP   1    1.000000
   4.38000000E-02    1.00000000E+00   1.00000000E+00 
D    1    1.000000
   6.26000000E-01    1.00000000E+00 

11    0
S    3    1.000000
   3.38650000E+01    2.54938000E-02 
   5.09479000E+00    1.90373000E-01 
   1.15879000E+00    8.52161000E-01 
S    1    1.000000
   3.25840000E-01    1.00000000E+00 
S    1    1.000000
   1.02741000E-01    1.00000000E+00 

12    0
S    6    1.000000
   4.56324000E+03    1.96665000E-03 
   6.82024000E+02    1.52306000E-02 
   1.54973000E+02    7.61269000E-02 
   4.44553000E+01    2.60801000E-01 
   1.30290000E+01    6.16462000E-01 
   1.82773000E+00    2.21006000E-01 
SP   3    1.000000
   2.09642000E+01    1.14660000E-01   4.02487000E-02 
   4.80331000E+00    9.19999000E-01   2.37594000E-01 
   1.45933000E+00   -3.03068000E-03   8.15854000E-01 
SP   1    1.000000
   4.83456000E-01    1.00000000E+00   1.00000000E+00 
SP   1    1.000000
   1.45585000E-01    1.00000000E+00   1.00000000E+00 
SP   1    1.000000
   4.38000000E-02    1.00000000E+00   1.00000000E+00 
D    1    1.000000
   6.26000000E-01    1.00000000E+00 

13    0
S    3    1.000000
   3.38650000E+01    2.54938000E-02 
   5.09479000E+00    1.90373000E-01 
   1.15879000E+00    8.52161000E-01 
S    1    1.000000
   3.25840000E-01    1.00000000E+00 
S    1    1.000000
   1.02741000E-01    1.00000000E+00 

14    0
S    6    1.000000
   4.39700000E+05    8.13000000E-04 
   6.60300000E+04    6.28500000E-03 
   1.51400000E+04    3.19200000E-02 
   4.31700000E+03    1.28800000E-01 
   1.41400000E+03    3.94600000E-01 
   5.23900000E+02    5.41300000E-01 
S    3    1.000000
   5.23900000E+02    1.83100000E-01 
   2.07700000E+02    6.17600000E-01 
   8.65400000E+01    2.53800000E-01 
S    1    1.000000
   3.05200000E+01    1.00000000E+00 
S    1    1.000000
   1.29800000E+01    1.00000000E+00 
S    1    1.000000
   4.41200000E+00    1.00000000E+00 
S    1    1.000000
   1.86200000E+00    1.00000000E+00 
S    1    1.000000
   3.93200000E-01    1.00000000E+00 
S    1    1.000000
   1.40000000E-01    1.00000000E+00 
P    3    1.000000
   2.95700000E+03    2.22600000E-02 
   7.00300000E+02    1.80200000E-01 
   2.24600000E+02    8.62400000E-01 
P    3    1.000000
   8.25900000E+01    3.44000000E-01 
   3.31900000E+01    5.07100000E-01 
   1.42000000E+01    2.59000000E-01 
P    3    1.000000
   1.42000000E+01    7.96500000E-02 
   7.43800000E+00    3.73400000E-01 
   3.52600000E+00    6.04900000E-01 
P    1    1.000000
   1.59500000E+00    1.00000000E+00 
P    1    1.000000
   8.46200000E-01    1.00000000E+00 
P    1    1.000000
   3.18600000E-01    1.00000000E+00 
P    1    1.000000
   1.09600000E-01    1.00000000E+00 
D    4    1.000000
   1.34800000E+02    1.83100000E-02 
   3.63900000E+01    1.35000000E-01 
   1.21600000E+01    4.26100000E-01 
   4.34100000E+00    6.04300000E-01 
D    1    1.000000
   1.53500000E+00    1.00000000E+00 
SP   1    1.000000
   3.90000000E-02    1.00000000E+00   1.00000000E+00 
D    1    1.000000
   4.15000000E-01    1.00000000E+00 

[MO]
Sym=X
Ene= -0.097314
Spin=Alpha
Occup=1
     1    1.726147521246e-05
     2    2.761997768395e-05
     3   -2.429912759623e-03
     4    1.428436656644e-04
     5   -8.921892493168e-02
     6   -8.630225604553e-05
     7   -3.904792926002e-03
     8    2.698508315156e-04
     9   -1.458065193214e-01
    10    4.314315053879e-04
    11   -2.362211315340e-03
    12   -1.466155613447e-05
    13   -9.259124230415e-02
    14   -2.703185304949e-03
    15    2.000720340592e-04
    16    5.127135804325e-04
    17   -2.209592099758e-02
    18    2.727550302755e-04
    19   -5.575502198888e-03
    20    1.024087151660e-02
    21   -1.220072674933e-04
    22    2.833046175539e-04
    23   -3.003212620740e-05
    24   -4.817400658291e-05
    25   -1.804874914894e-03
    26    3.813031408325e-04
    27   -9.511651346489e-02
    28    1.308236741603e-04
    29   -3.019076963174e-03
    30    6.361751815640e-04
    31   -1.558623980447e-01
    32   -7.448158345929e-05
    33   -1.821460429699e-03
    34    5.678005921881e-04
    35   -1.006534507526e-01
    36    1.579496360999e-04
    37    3.529738126926e-04
    38   -5.678043527043e-05
    39    1.764459975798e-02
    40   -1.540643769661e-04
    41    5.090470355822e-03
    42    1.104433131407e-02
    43    8.741932784308e-05
    44    3.061756359248e-04
    45    5.585862122664e-05
    46    8.892610305802e-05
    47   -2.762479246642e-03
    48    2.728238112585e-04
    49   -1.056825681929e-01
    50   -2.507525963962e-04
    51   -4.516793463295e-03
    52    4.584472859753e-04
    53   -1.726135393726e-01
    54   -3.396424617375e-04
    55   -3.433483599042e-03
    56    5.210902220017e-04
    57   -1.307433901133e-01
    58    1.269707056988e-03
    59   -7.136792110955e-04
    60   -5.587764346947e-04
    61   -3.856565250211e-02
    62   -4.107458278963e-04
    63    1.054776471588e-02
    64   -1.396182562705e-04
    65    1.128866297722e-04
    66   -2.279590332582e-05
    67   -9.349956440722e-05
    68   -1.495147374211e-04
    69   -2.324538895192e-03
    70    4.011093417876e-04
    71   -1.008396621883e-01
    72    4.289900531475e-04
    73   -3.796893024184e-03
    74    6.417713209377e-04
    75   -1.638827493888e-01
    76    1.398066751238e-04
    77   -2.693469836660e-03
    78    1.642086216928e-04
    79   -1.144024857862e-01
    80   -5.456625886309e-04
    81    1.046065226278e-03
    82    1.911993215798e-03
    83    3.552153445540e-02
    84    2.430742386042e-04
    85   -6.195534689762e-03
    86    8.148817165560e-05
    87   -1.800934456623e-04
    88    8.421529294699e-05
    89    4.420923596044e-05
    90    6.973882536706e-05
    91    9.319588059401e-05
    92    3.094532335599e-04
    93    3.682900894842e-04
    94    4.285893445169e-05
    95    2.584728626003e-05
    96    4.121267744090e-05
    97    1.025898642998e-03
    98   -5.731184864749e-05
    99    2.341932633304e-02
   100   -1.026489819210e-04
   101    1.573827324242e-03
   102   -7.977564895850e-05
   103    3.580457296090e-02
   104   -1.778956955374e-04
   105    1.056388379684e-03
   106   -2.399253610102e-04
   107    3.199968956107e-02
   108   -7.047285555686e-05
   109    7.261279545352e-04
   110   -1.246489433949e-05
   111    4.094104184357e-02
   112   -5.420856022015e-04
   113    1.297641515920e-02
   114   -1.730659213603e-04
   115    2.113792700185e-04
   116   -4.003591598871e-06
   117    2.796206886440e-05
   118    4.562119644657e-05
   119    3.838557160944e-04
   120   -7.396983294703e-05
   121    3.465270885820e-02
   122   -1.285594364734e-04
   123    5.903041130029e-04
   124   -1.146586219254e-04
   125    5.190287511910e-02
   126   -2.684169201930e-04
   127    4.688443476659e-04
   128   -2.096830246350e-04
   129    4.496883663552e-02
   130    1.041374190708e-04
   131   -2.749651910156e-04
   132    3.520923206617e-05
   133   -9.731414971087e-03
   134    6.325807513302e-05
   135   -1.365344598293e-03
   136    3.805583900240e-03
   137   -2.391966669244e-05
   138    7.776640570604e-05
   139    2.740564225989e-05
   140    4.504207111289e-05
   141    6.111475786572e-04
   142   -3.670777256532e-04
   143    3.462067211843e-02
   144   -1.260818957548e-04
   145    9.298605746218e-04
   146   -5.375931870145e-04
   147    5.185577912481e-02
   148   -1.246105775529e-04
   149    7.627221862416e-04
   150   -4.115688418402e-04
   151    4.492250084027e-02
   152   -6.471408685145e-05
   153   -2.252615105205e-04
   154    4.687878815544e-05
   155   -9.728686190146e-03
   156    2.632394690460e-05
   157   -1.463578379025e-03
   158   -3.766405939149e-03
   159   -7.049940745174e-05
   160   -7.397343431892e-05
   161    7.004635274560e-05
   162    1.120031048631e-04
   163   -2.259157257261e-03
   164    2.040948899816e-04
   165   -8.922844813892e-02
   166   -3.244544298318e-04
   167   -3.636814236343e-03
   168    3.517376958472e-04
   169   -1.458221879313e-01
   170   -2.429475448828e-04
   171   -2.224892564151e-03
   172    1.281855685187e-04
   173   -9.259107693015e-02
   174    1.845260429409e-03
   175   -1.700971425307e-03
   176    9.841572216546e-04
   177   -2.207187558786e-02
   178    1.827906146087e-04
   179   -5.844485183235e-03
   180   -1.009344606551e-02
   181   -1.775837977001e-04
   182   -2.255551028838e-04
   183    5.538803438291e-05
   184    8.773811439520e-05
   185    3.367475659791e-05
   186   -4.372141354740e-05
   187   -6.952549245754e-05
   188   -1.918079074576e-03
   189    2.190668044128e-04
   190   -9.511655294375e-02
   191    1.825521283074e-04
   192   -3.200783525926e-03
   193    3.352053836691e-04
   194   -1.558602598859e-01
   195    3.277333813130e-04
   196   -1.895427985635e-03
   197    2.985714324707e-04
   198   -1.006704463628e-01
   199   -2.245563342734e-04
   200   -4.184682805345e-04
   201   -7.376965400579e-04
   202    1.767835473045e-02
   203   -2.518752044428e-04
   204    4.799041317200e-03
   205   -1.117180625128e-02
   206    3.221659180906e-05
   207   -3.038925270670e-04
   208    2.100105930153e-04
   209    2.338533369805e-04
   210    6.736463757326e-05
   211    3.813023535920e-06
   212    1.233583656064e-05
   213   -3.327900331614e-05
   214   -4.163043349304e-05
   215    8.360512086804e-05
   216    1.028814722439e-04
   217   -1.992416810554e-04
   218   -1.779126306492e-04
   219   -6.354871131721e-05
   220   -2.897921042539e-05
   221   -2.715861922829e-03
   222   -5.246305932434e-04
   223   -2.391966442419e-04
   224   -2.241599760459e-02
   225    1.366364641313e-03
   226    6.251392453693e-04
   227    5.832209006729e-02
   228    4.861670062288e-04
   229    2.387965992090e-04
   230    2.091452805343e-02
   231   -1.040890437792e-03
   232   -5.304075276601e-04
   233   -4.448229070390e-02
   234   -2.686214229186e-03
   235   -1.212540324048e-03
   236   -1.135272709415e-01
   237   -1.154561216616e-03
   238   -8.362183903500e-04
   239   -4.623855321083e-02
   240   -3.869441633755e-04
   241    9.869608818072e-03
   242   -1.276311249539e-04
   243    2.177932621762e-04
   244   -2.531026402576e-05
   245   -6.545023373970e-05
   246    1.607733435273e-03
   247   -1.943674766128e-05
   248    3.588313752571e-05
   249   -5.273206941639e-06
   250    1.913731547013e-04
   251   -1.708135741874e-04
   252   -5.638883820452e-05
   253   -9.823016759065e-03
   254    6.690678244463e-04
   255   -1.697145642630e-02
   256    2.178307473000e-04
   257   -3.809020784249e-04
   258    2.893430143245e-05
Sym=X
Ene= -0.109821
Spin=Alpha
Occup=1
     1    4.107703176442e-03
     2    6.652542308992e-03
     3   -1.031947013955e-01
     4   -1.322375740311e-02
     5    2.560871411386e-03
     6   -1.989189483639e-02
     7   -1.464719811626e-01
     8   -1.391434350623e-02
     9    3.693094254496e-03
    10    1.932142506991e-02
    11   -9.911169073621e-02
    12   -1.937276433050e-02
    13    2.460869884683e-03
    14   -3.528161885116e-01
    15   -8.239323591737e-02
    16   -9.586985114969e-03
    17    1.929093722096e-03
    18    6.520060129669e-04
    19    4.194400589333e-04
    20    6.978477055696e-05
    21   -1.658220365715e-02
    22   -2.033757327357e-03
    23   -2.194425776842e-03
    24   -3.509102853831e-03
    25    1.167724559236e-01
    26    1.754775744527e-02
    27   -2.429992491167e-03
    28    5.949413546113e-03
    29    1.690369557118e-01
    30    3.443151648037e-02
    31   -3.448939428705e-03
    32    3.556107224368e-02
    33    1.046190320996e-01
    34    3.708196904267e-02
    35   -2.083543132048e-03
    36    1.925644211907e-01
    37   -1.458899518588e-01
    38    5.047829518387e-02
    39    3.476791043568e-03
    40   -1.750335442450e-03
    41    2.412663040796e-04
    42   -1.824212148687e-04
    43   -1.290708865602e-02
    44    8.491945839383e-03
    45   -1.143452456668e-02
    46   -1.853687797518e-02
    47   -3.785797274718e-02
    48    4.708027188019e-04
    49    1.142807479954e-03
    50    5.142063345484e-02
    51   -5.710696678859e-02
    52    7.152763148472e-04
    53    1.759704939505e-03
    54    1.068461499216e-01
    55    1.170418482413e-03
    56   -8.464642976345e-05
    57    2.794305522824e-04
    58    3.071010676053e-01
    59    7.304952697389e-03
    60   -1.935953397788e-07
    61   -8.084684171212e-05
    62    5.077566977320e-04
    63    7.370390022182e-04
    64    6.618966448694e-05
    65   -3.145806985977e-02
    66    8.236409864386e-04
    67   -7.158441328743e-03
    68   -1.135366838291e-02
    69    9.292248324863e-02
    70   -1.252210619956e-03
    71   -1.937122216080e-03
    72    3.657113304905e-02
    73    1.492573227026e-01
    74   -2.019648682774e-03
    75   -3.108297674856e-03
    76   -5.306922941343e-02
    77    1.091718667497e-01
    78   -1.390423035442e-03
    79   -2.285417943804e-03
    80    6.693181286273e-02
    81   -2.895733605608e-03
    82    1.261157029821e-05
    83    2.027213770344e-06
    84    1.906730863516e-03
    85    7.647665325303e-04
    86    5.498868424968e-05
    87   -2.897071186839e-02
    88    7.376043789491e-04
    89    3.374041302076e-02
    90    4.696794919286e-02
    91    2.941940743514e-02
    92    6.674648746598e-02
    93    8.042132284018e-02
    94    1.772624400512e-02
    95    7.055594439439e-03
    96    1.135044743272e-02
    97    9.312217638917e-02
    98   -1.188353705351e-03
    99   -2.097663019763e-03
   100   -3.188860457135e-02
   101    1.404365261412e-01
   102   -1.791406548124e-03
   103   -3.156159978975e-03
   104   -4.853888945378e-02
   105    1.230199482630e-01
   106   -1.576353405588e-03
   107   -2.797701908476e-03
   108   -8.435632662550e-03
   109    5.699502666655e-02
   110   -8.577495701823e-04
   111   -1.412161710872e-03
   112   -3.013161125039e-03
   113   -2.950764949870e-04
   114   -1.397421041569e-05
   115    6.515885797402e-03
   116   -1.660462101511e-04
   117    8.144866593845e-03
   118    1.328644037031e-02
   119    1.654348988650e-02
   120    4.748532550326e-02
   121   -1.994624546964e-04
   122   -3.919699702780e-02
   123    2.544329829367e-02
   124    6.970928410922e-02
   125   -3.166397491940e-04
   126   -6.525976953655e-02
   127    1.813629243147e-02
   128    3.905630092467e-02
   129   -2.650556869074e-04
   130   -3.435250479198e-02
   131   -1.149342715484e-02
   132   -1.406242802579e-02
   133    2.537051327189e-04
   134   -2.213572119198e-03
   135    6.370860927696e-05
   136   -3.596582003297e-06
   137   -6.565084389324e-03
   138    1.766942388188e-03
   139    8.155176407475e-03
   140    1.330321053550e-02
   141    1.526643218098e-02
   142   -4.795790010551e-02
   143   -5.653846875466e-04
   144   -3.924531293929e-02
   145    2.357243041012e-02
   146   -7.043035351346e-02
   147   -8.555294783504e-04
   148   -6.535344370505e-02
   149    1.708195280856e-02
   150   -3.957005146182e-02
   151   -6.262266529196e-04
   152   -3.419900375105e-02
   153   -1.113739734948e-02
   154    1.434654605146e-02
   155    3.090669315212e-04
   156   -2.216774740515e-03
   157    6.076283071474e-05
   158    6.633583300760e-05
   159   -6.651085002066e-03
   160   -1.415272416296e-03
   161    4.094982164600e-03
   162    6.632066131464e-03
   163   -1.028463987296e-01
   164    1.598585047215e-02
   165    2.618073308341e-03
   166   -1.983127354439e-02
   167   -1.461039596408e-01
   168    1.782876311838e-02
   169    3.748029341342e-03
   170    1.949635594991e-02
   171   -9.855859110855e-02
   172    2.210057960879e-02
   173    2.535258626042e-03
   174   -3.530717608852e-01
   175   -8.219400830830e-02
   176    1.178384822268e-02
   177    1.970739997749e-03
   178    6.536006333650e-04
   179    4.291252871050e-04
   180   -4.514002746111e-06
   181   -1.644235854964e-02
   182    2.904385121557e-03
   183    3.371532352519e-02
   184    4.694340768528e-02
   185    2.942155513087e-02
   186   -2.195744216929e-03
   187   -3.510943336636e-03
   188    1.162906985014e-01
   189   -2.055701841465e-02
   190   -2.541908883204e-03
   191    5.962217486955e-03
   192    1.681087329898e-01
   193   -3.877694095996e-02
   194   -3.662110519380e-03
   195    3.540225276897e-02
   196    1.036128648198e-01
   197   -3.983890749609e-02
   198   -2.286550809902e-03
   199    1.929797935524e-01
   200   -1.472471258932e-01
   201   -4.666658963800e-02
   202    3.258439044453e-03
   203   -1.746103372125e-03
   204    2.098484162000e-04
   205    2.579283851931e-04
   206   -1.334318579267e-02
   207   -7.798231318570e-03
   208    6.673578652174e-02
   209    8.039566785864e-02
   210    1.772513094568e-02
   211   -4.926526415191e-04
   212   -1.586576946696e-03
   213    4.212395711285e-03
   214    5.820275880843e-03
   215   -1.254265658360e-02
   216   -1.090909028579e-02
   217    1.816700551733e-02
   218    6.392739064874e-02
   219   -6.696207524080e-03
   220    9.486192360405e-05
   221    1.613793008743e-04
   222   -5.523652632924e-02
   223    7.824339406764e-04
   224    1.331214706081e-03
   225    1.435774578070e-01
   226   -2.033847093828e-03
   227   -3.460351535707e-03
   228    5.638952303598e-02
   229   -8.030776152634e-04
   230   -1.355502584370e-03
   231   -1.217005760489e-01
   232    1.731635206236e-03
   233    2.924388613348e-03
   234   -2.729171259779e-01
   235    3.876522242856e-03
   236    6.578156475323e-03
   237   -1.039038543188e-01
   238    1.527053584504e-03
   239    2.518265113599e-03
   240   -6.133823922643e-03
   241   -5.718091532348e-04
   242    1.532433059847e-06
   243    1.301526301780e-02
   244   -3.419462169430e-04
   245    1.731004371037e-04
   246    1.411266921998e-06
   247   -1.010563620921e-06
   248    6.226760536381e-05
   249   -1.809644334765e-06
   250   -1.441530709453e-02
   251   -7.888476533163e-03
   252    1.259591005225e-04
   253    2.017957165245e-04
   254    1.048001393602e-02
   255    9.730633512432e-04
   256   -2.791243989490e-06
   257   -2.222880147706e-02
   258    5.887984998161e-04
Sym=X
Ene= -0.211261
Spin=Alpha
Occup=1
     1    4.394463209384e-06
     2    6.889834804969e-06
     3    3.028048772641e-03
     4   -3.495490431075e-04
     5    1.307584440740e-01
     6   -1.308171338738e-05
     7    4.937006858220e-03
     8   -5.701211569058e-04
     9    2.133841924677e-01
    10   -9.669641430576e-05
    11    4.260380461288e-03
    12   -4.789692003792e-04
    13    1.867666128631e-01
    14   -7.906935899963e-04
    15    5.474525072893e-05
    16   -1.044953732783e-04
    17    1.951260885568e-02
    18   -5.589357909780e-04
    19    1.403154406668e-02
    20    5.974369129445e-04
    21    3.214497883764e-04
    22   -3.201782131240e-05
    23   -3.878631850805e-06
    24   -6.339831820613e-06
    25    3.044245470368e-03
    26   -3.805634331079e-04
    27    1.308360787803e-01
    28    1.123888730161e-05
    29    4.967797942283e-03
    30   -6.198456451485e-04
    31    2.137813005358e-01
    32    1.607455310899e-04
    33    4.280794525464e-03
    34   -5.642343476657e-04
    35    1.860552365495e-01
    36   -3.138096117067e-04
    37   -3.682638656216e-04
    38    2.034580272593e-04
    39    9.367733688482e-03
    40    5.626918566228e-04
    41   -1.403368644397e-02
    42    6.675613075488e-04
    43   -3.209835064174e-04
    44    4.765508041197e-05
    45    1.356467849349e-06
    46    2.181048890962e-06
    47   -3.674337058379e-06
    48    3.276970109172e-05
    49    4.597565262782e-05
    50   -6.156158882649e-06
    51   -7.421366512055e-06
    52    4.730283679185e-05
    53    7.934277621653e-05
    54   -7.422151776518e-06
    55   -1.021696474602e-05
    56   -5.598522376670e-05
    57    5.784098620975e-05
    58    2.716638524413e-04
    59   -1.775241619138e-05
    60    1.050481977914e-03
    61    1.870483520607e-05
    62    1.189683840364e-04
    63    3.675870718363e-04
    64    2.789883195477e-02
    65    8.716019199168e-05
    66    6.459528148737e-04
    67    1.904921871863e-06
    68    3.033596179264e-06
    69   -3.834636707223e-06
    70   -1.021921388317e-05
    71   -3.628936598419e-05
    72   -9.146520152560e-06
    73   -5.347446622577e-06
    74   -9.319598678422e-06
    75   -6.149564532914e-05
    76    3.239627186678e-06
    77   -1.890170401216e-06
    78   -6.592228454250e-06
    79   -4.360146824155e-05
    80   -1.221033487737e-04
    81   -2.534971425454e-05
    82   -2.943837394939e-04
    83   -1.258021230018e-05
    84    1.171763000255e-04
    85    3.556932761670e-04
    86    2.753677039997e-02
    87    8.552750973184e-05
    88    6.342842876614e-04
    89    1.050726874091e-05
    90    4.789679522430e-06
    91    1.660237161229e-05
    92   -7.055582589028e-06
    93   -1.202484752136e-05
    94    2.817633007406e-06
    95   -3.897450181411e-07
    96   -6.518134209067e-07
    97   -1.753128011600e-06
    98    3.949563798098e-06
    99   -4.279983347938e-07
   100    3.042964180815e-06
   101   -2.225336814534e-06
   102    4.406589974687e-06
   103   -5.987344413404e-07
   104   -1.221084923041e-05
   105   -1.456796129745e-05
   106    1.733114662701e-05
   107    2.412942226334e-06
   108   -6.220216049309e-05
   109   -7.797513379614e-06
   110   -2.662722919117e-04
   111   -1.878005993332e-05
   112    6.107812941353e-06
   113    1.279835598799e-05
   114    1.420011274209e-03
   115    2.800404826212e-07
   116    3.851690988005e-05
   117   -1.250865455962e-06
   118   -2.020022919797e-06
   119   -2.450079664241e-05
   120   -3.069669308803e-05
   121    7.908591447165e-04
   122    5.329956703819e-06
   123   -3.067150406608e-05
   124   -4.633809374692e-05
   125    1.494443032115e-03
   126    1.961332098474e-05
   127   -3.204439610892e-05
   128   -3.483870693277e-05
   129    1.045412671083e-03
   130   -1.197973396118e-04
   131   -1.553107037143e-05
   132   -1.793964210046e-07
   133   -6.359452381612e-04
   134   -1.555055956186e-05
   135    3.982706591183e-04
   136    8.928351330330e-05
   137    1.285838410269e-05
   138   -7.598861158485e-07
   139    4.215987101420e-07
   140    7.376665743708e-07
   141   -6.234422021496e-06
   142   -1.828199239458e-05
   143   -8.188976796839e-04
   144   -2.106843110739e-06
   145   -1.408645399966e-05
   146   -2.509554471866e-05
   147   -1.536484561502e-03
   148   -5.693711742464e-06
   149   -1.114361100081e-05
   150   -2.912330764600e-05
   151   -1.085782977966e-03
   152    1.773215273837e-04
   153    6.122265857479e-06
   154   -1.078501055834e-05
   155    6.387530476683e-04
   156    1.599583448443e-05
   157   -3.952305666860e-04
   158    1.017568570770e-04
   159   -1.029343364399e-05
   160    3.410753704168e-06
   161   -3.301524779597e-06
   162   -5.336122128584e-06
   163   -3.017742115000e-03
   164    3.744479447678e-04
   165   -1.308186461985e-01
   166    1.059656106100e-05
   167   -4.921047311404e-03
   168    6.104521328568e-04
   169   -2.134819636648e-01
   170    7.690260239159e-05