[Molden Format]
[Atoms] (Angs)
  C      1    6     -0.60308027      1.24884959      0.02595850
  C      2    6      0.78318760      1.23153607     -0.00621390
  C      3    6      1.43790248      0.00979129     -0.02475940
  C      4    6     -1.30034920      0.04558663      0.03879402
  H      5    1     -1.13531042      2.19180962      0.04090714
  H      6    1      1.35342608      2.15108582     -0.01688747
  N      7    7      2.91159486     -0.00948016     -0.05899691
  O      8    8      3.45893135     -1.09359226     -0.07501963
  O      9    8      3.48723719      1.05994155     -0.06906801
  C     10    6     -0.63489100     -1.17551740      0.01999630
  H     11    1     -1.19175769     -2.10420457      0.03034090
  C     12    6      0.75132891     -1.19445736     -0.01220662
  H     13    1      1.29720829     -2.12860384     -0.02748658
 Br     14   35     -3.19270661      0.07025578      0.08272467
[GTO]
1    0
S    6    1.000000
   4.56324000E+03    1.96665000E-03 
   6.82024000E+02    1.52306000E-02 
   1.54973000E+02    7.61269000E-02 
   4.44553000E+01    2.60801000E-01 
   1.30290000E+01    6.16462000E-01 
   1.82773000E+00    2.21006000E-01 
SP   3    1.000000
   2.09642000E+01    1.14660000E-01   4.02487000E-02 
   4.80331000E+00    9.19999000E-01   2.37594000E-01 
   1.45933000E+00   -3.03068000E-03   8.15854000E-01 
SP   1    1.000000
   4.83456000E-01    1.00000000E+00   1.00000000E+00 
SP   1    1.000000
   1.45585000E-01    1.00000000E+00   1.00000000E+00 
SP   1    1.000000
   4.38000000E-02    1.00000000E+00   1.00000000E+00 
D    1    1.000000
   6.26000000E-01    1.00000000E+00 

2    0
S    6    1.000000
   4.56324000E+03    1.96665000E-03 
   6.82024000E+02    1.52306000E-02 
   1.54973000E+02    7.61269000E-02 
   4.44553000E+01    2.60801000E-01 
   1.30290000E+01    6.16462000E-01 
   1.82773000E+00    2.21006000E-01 
SP   3    1.000000
   2.09642000E+01    1.14660000E-01   4.02487000E-02 
   4.80331000E+00    9.19999000E-01   2.37594000E-01 
   1.45933000E+00   -3.03068000E-03   8.15854000E-01 
SP   1    1.000000
   4.83456000E-01    1.00000000E+00   1.00000000E+00 
SP   1    1.000000
   1.45585000E-01    1.00000000E+00   1.00000000E+00 
SP   1    1.000000
   4.38000000E-02    1.00000000E+00   1.00000000E+00 
D    1    1.000000
   6.26000000E-01    1.00000000E+00 

3    0
S    6    1.000000
   4.56324000E+03    1.96665000E-03 
   6.82024000E+02    1.52306000E-02 
   1.54973000E+02    7.61269000E-02 
   4.44553000E+01    2.60801000E-01 
   1.30290000E+01    6.16462000E-01 
   1.82773000E+00    2.21006000E-01 
SP   3    1.000000
   2.09642000E+01    1.14660000E-01   4.02487000E-02 
   4.80331000E+00    9.19999000E-01   2.37594000E-01 
   1.45933000E+00   -3.03068000E-03   8.15854000E-01 
SP   1    1.000000
   4.83456000E-01    1.00000000E+00   1.00000000E+00 
SP   1    1.000000
   1.45585000E-01    1.00000000E+00   1.00000000E+00 
SP   1    1.000000
   4.38000000E-02    1.00000000E+00   1.00000000E+00 
D    1    1.000000
   6.26000000E-01    1.00000000E+00 

4    0
S    6    1.000000
   4.56324000E+03    1.96665000E-03 
   6.82024000E+02    1.52306000E-02 
   1.54973000E+02    7.61269000E-02 
   4.44553000E+01    2.60801000E-01 
   1.30290000E+01    6.16462000E-01 
   1.82773000E+00    2.21006000E-01 
SP   3    1.000000
   2.09642000E+01    1.14660000E-01   4.02487000E-02 
   4.80331000E+00    9.19999000E-01   2.37594000E-01 
   1.45933000E+00   -3.03068000E-03   8.15854000E-01 
SP   1    1.000000
   4.83456000E-01    1.00000000E+00   1.00000000E+00 
SP   1    1.000000
   1.45585000E-01    1.00000000E+00   1.00000000E+00 
SP   1    1.000000
   4.38000000E-02    1.00000000E+00   1.00000000E+00 
D    1    1.000000
   6.26000000E-01    1.00000000E+00 

5    0
S    3    1.000000
   3.38650000E+01    2.54938000E-02 
   5.09479000E+00    1.90373000E-01 
   1.15879000E+00    8.52161000E-01 
S    1    1.000000
   3.25840000E-01    1.00000000E+00 
S    1    1.000000
   1.02741000E-01    1.00000000E+00 

6    0
S    3    1.000000
   3.38650000E+01    2.54938000E-02 
   5.09479000E+00    1.90373000E-01 
   1.15879000E+00    8.52161000E-01 
S    1    1.000000
   3.25840000E-01    1.00000000E+00 
S    1    1.000000
   1.02741000E-01    1.00000000E+00 

7    0
S    6    1.000000
   6.29348000E+03    1.96979000E-03 
   9.49044000E+02    1.49613000E-02 
   2.18776000E+02    7.35006000E-02 
   6.36916000E+01    2.48937000E-01 
   1.88282000E+01    6.02460000E-01 
   2.72023000E+00    2.56202000E-01 
SP   3    1.000000
   3.06331000E+01    1.11906000E-01   3.83119000E-02 
   7.02614000E+00    9.21666000E-01   2.37403000E-01 
   2.11205000E+00   -2.56919000E-03   8.17592000E-01 
SP   1    1.000000
   6.84009000E-01    1.00000000E+00   1.00000000E+00 
SP   1    1.000000
   2.00878000E-01    1.00000000E+00   1.00000000E+00 
SP   1    1.000000
   6.39000000E-02    1.00000000E+00   1.00000000E+00 
D    1    1.000000
   9.13000000E-01    1.00000000E+00 

8    0
S    6    1.000000
   8.58850000E+03    1.89515000E-03 
   1.29723000E+03    1.43859000E-02 
   2.99296000E+02    7.07320000E-02 
   8.73771000E+01    2.40001000E-01 
   2.56789000E+01    5.94797000E-01 
   3.74004000E+00    2.80802000E-01 
SP   3    1.000000
   4.21175000E+01    1.13889000E-01   3.65114000E-02 
   9.62837000E+00    9.20811000E-01   2.37153000E-01 
   2.85332000E+00   -3.27447000E-03   8.19702000E-01 
SP   1    1.000000
   9.05661000E-01    1.00000000E+00   1.00000000E+00 
SP   1    1.000000
   2.55611000E-01    1.00000000E+00   1.00000000E+00 
SP   1    1.000000
   8.45000000E-02    1.00000000E+00   1.00000000E+00 
D    1    1.000000
   1.29200000E+00    1.00000000E+00 

9    0
S    6    1.000000
   8.58850000E+03    1.89515000E-03 
   1.29723000E+03    1.43859000E-02 
   2.99296000E+02    7.07320000E-02 
   8.73771000E+01    2.40001000E-01 
   2.56789000E+01    5.94797000E-01 
   3.74004000E+00    2.80802000E-01 
SP   3    1.000000
   4.21175000E+01    1.13889000E-01   3.65114000E-02 
   9.62837000E+00    9.20811000E-01   2.37153000E-01 
   2.85332000E+00   -3.27447000E-03   8.19702000E-01 
SP   1    1.000000
   9.05661000E-01    1.00000000E+00   1.00000000E+00 
SP   1    1.000000
   2.55611000E-01    1.00000000E+00   1.00000000E+00 
SP   1    1.000000
   8.45000000E-02    1.00000000E+00   1.00000000E+00 
D    1    1.000000
   1.29200000E+00    1.00000000E+00 

10    0
S    6    1.000000
   4.56324000E+03    1.96665000E-03 
   6.82024000E+02    1.52306000E-02 
   1.54973000E+02    7.61269000E-02 
   4.44553000E+01    2.60801000E-01 
   1.30290000E+01    6.16462000E-01 
   1.82773000E+00    2.21006000E-01 
SP   3    1.000000
   2.09642000E+01    1.14660000E-01   4.02487000E-02 
   4.80331000E+00    9.19999000E-01   2.37594000E-01 
   1.45933000E+00   -3.03068000E-03   8.15854000E-01 
SP   1    1.000000
   4.83456000E-01    1.00000000E+00   1.00000000E+00 
SP   1    1.000000
   1.45585000E-01    1.00000000E+00   1.00000000E+00 
SP   1    1.000000
   4.38000000E-02    1.00000000E+00   1.00000000E+00 
D    1    1.000000
   6.26000000E-01    1.00000000E+00 

11    0
S    3    1.000000
   3.38650000E+01    2.54938000E-02 
   5.09479000E+00    1.90373000E-01 
   1.15879000E+00    8.52161000E-01 
S    1    1.000000
   3.25840000E-01    1.00000000E+00 
S    1    1.000000
   1.02741000E-01    1.00000000E+00 

12    0
S    6    1.000000
   4.56324000E+03    1.96665000E-03 
   6.82024000E+02    1.52306000E-02 
   1.54973000E+02    7.61269000E-02 
   4.44553000E+01    2.60801000E-01 
   1.30290000E+01    6.16462000E-01 
   1.82773000E+00    2.21006000E-01 
SP   3    1.000000
   2.09642000E+01    1.14660000E-01   4.02487000E-02 
   4.80331000E+00    9.19999000E-01   2.37594000E-01 
   1.45933000E+00   -3.03068000E-03   8.15854000E-01 
SP   1    1.000000
   4.83456000E-01    1.00000000E+00   1.00000000E+00 
SP   1    1.000000
   1.45585000E-01    1.00000000E+00   1.00000000E+00 
SP   1    1.000000
   4.38000000E-02    1.00000000E+00   1.00000000E+00 
D    1    1.000000
   6.26000000E-01    1.00000000E+00 

13    0
S    3    1.000000
   3.38650000E+01    2.54938000E-02 
   5.09479000E+00    1.90373000E-01 
   1.15879000E+00    8.52161000E-01 
S    1    1.000000
   3.25840000E-01    1.00000000E+00 
S    1    1.000000
   1.02741000E-01    1.00000000E+00 

14    0
S    6    1.000000
   4.39700000E+05    8.13000000E-04 
   6.60300000E+04    6.28500000E-03 
   1.51400000E+04    3.19200000E-02 
   4.31700000E+03    1.28800000E-01 
   1.41400000E+03    3.94600000E-01 
   5.23900000E+02    5.41300000E-01 
S    3    1.000000
   5.23900000E+02    1.83100000E-01 
   2.07700000E+02    6.17600000E-01 
   8.65400000E+01    2.53800000E-01 
S    1    1.000000
   3.05200000E+01    1.00000000E+00 
S    1    1.000000
   1.29800000E+01    1.00000000E+00 
S    1    1.000000
   4.41200000E+00    1.00000000E+00 
S    1    1.000000
   1.86200000E+00    1.00000000E+00 
S    1    1.000000
   3.93200000E-01    1.00000000E+00 
S    1    1.000000
   1.40000000E-01    1.00000000E+00 
P    3    1.000000
   2.95700000E+03    2.22600000E-02 
   7.00300000E+02    1.80200000E-01 
   2.24600000E+02    8.62400000E-01 
P    3    1.000000
   8.25900000E+01    3.44000000E-01 
   3.31900000E+01    5.07100000E-01 
   1.42000000E+01    2.59000000E-01 
P    3    1.000000
   1.42000000E+01    7.96500000E-02 
   7.43800000E+00    3.73400000E-01 
   3.52600000E+00    6.04900000E-01 
P    1    1.000000
   1.59500000E+00    1.00000000E+00 
P    1    1.000000
   8.46200000E-01    1.00000000E+00 
P    1    1.000000
   3.18600000E-01    1.00000000E+00 
P    1    1.000000
   1.09600000E-01    1.00000000E+00 
D    4    1.000000
   1.34800000E+02    1.83100000E-02 
   3.63900000E+01    1.35000000E-01 
   1.21600000E+01    4.26100000E-01 
   4.34100000E+00    6.04300000E-01 
D    1    1.000000
   1.53500000E+00    1.00000000E+00 
SP   1    1.000000
   3.90000000E-02    1.00000000E+00   1.00000000E+00 
D    1    1.000000
   4.15000000E-01    1.00000000E+00 

[MO]
Sym=X
Ene= -0.081781
Spin=Alpha
Occup=1
     1   -3.961762896922e-04
     2   -6.191337484717e-04
     3   -1.378434116875e-03
     4   -2.573663905905e-03
     5    3.439794736558e-02
     6    1.643445921017e-03
     7   -1.706374485108e-03
     8   -3.717303067349e-03
     9    5.756011073385e-02
    10    1.991928171780e-03
    11   -9.382760474209e-04
    12   -2.610624567995e-03
    13    4.181031941013e-02
    14   -5.797489248439e-03
    15   -1.788969522362e-03
    16   -8.098298140448e-04
    17   -6.460589349940e-03
    18   -1.569179210050e-04
    19    3.928143566684e-03
    20    2.132411091300e-04
    21   -6.612490979172e-04
    22   -4.795958317065e-05
    23    3.530491560628e-04
    24    5.652299875121e-04
    25    2.866792409793e-03
    26    2.114335891062e-04
    27    3.882387697162e-02
    28   -1.657738999538e-03
    29    4.158785861217e-03
    30    4.372739529486e-04
    31    5.967923694924e-02
    32   -1.631294937449e-03
    33    3.806000869262e-03
    34    1.076172741227e-03
    35    6.519314774665e-02
    36    3.941574297793e-03
    37   -3.681380819632e-03
    38    1.044882483173e-03
    39    2.052529593100e-02
    40    5.540082127676e-05
    41   -2.109586347736e-03
    42    5.853835921789e-04
    43   -1.076095201364e-04
    44    3.377710143414e-04
    45   -3.237449295879e-05
    46   -5.599599079769e-05
    47    3.344695626426e-04
    48   -4.002154583896e-05
    49    5.859724897101e-04
    50    7.357791719372e-05
    51    5.506756858346e-04
    52   -4.872215897625e-05
    53    9.596211101431e-04
    54    1.849662871112e-03
    55   -6.092301472394e-05
    56   -1.533057037443e-06
    57    8.209370794094e-04
    58    2.985103879806e-03
    59    9.622518373514e-04
    60    2.251921554738e-03
    61    7.064891536269e-05
    62   -1.190660064477e-07
    63    1.401642189190e-04
    64    1.301465457967e-02
    65   -2.871870383445e-04
    66    3.162692056071e-04
    67   -4.350669209977e-04
    68   -6.695148237596e-04
    69    6.418598760495e-03
    70   -3.869612976067e-05
    71   -4.749714917140e-04
    72    1.941897357501e-03
    73    1.024649420363e-02
    74   -6.507110564591e-05
    75   -7.732823302522e-04
    76   -3.408295742390e-03
    77    6.157769053029e-03
    78   -8.239836182280e-05
    79   -6.764239285671e-04
    80    2.234267265243e-03
    81   -4.174250566650e-03
    82   -9.665338837929e-04
    83    2.085085840250e-04
    84    7.507726630460e-05
    85    2.028783725953e-04
    86    7.493977398025e-03
    87   -9.561636256579e-04
    88    2.021822512294e-04
    89   -1.811037916418e-04
    90    3.974254985128e-05
    91    6.338956737278e-04
    92    9.448913122172e-04
    93    1.298029718228e-03
    94    3.046281868244e-04
    95   -4.945292585513e-05
    96   -7.948304389373e-05
    97    5.048988311010e-04
    98    3.569149889616e-05
    99   -1.576814287776e-04
   100    2.424876727187e-04
   101    7.616633861294e-04
   102    5.923802957177e-05
   103   -2.439923280410e-04
   104    2.463233280410e-04
   105    9.905927823590e-04
   106   -8.920868896336e-05
   107   -2.104715067949e-04
   108   -1.414963276450e-03
   109    8.300643598476e-04
   110   -1.043144101822e-04
   111   -2.188225849484e-04
   112    2.366136071565e-04
   113    6.339009199719e-04
   114    5.442933195840e-02
   115    3.454812117696e-04
   116    1.307932825105e-03
   117    2.163685714466e-04
   118    3.548464803023e-04
   119   -4.646231291897e-03
   120    1.000068488625e-03
   121   -2.070949606173e-01
   122   -1.079097261532e-03
   123   -6.892170985021e-03
   124    1.464717463777e-03
   125   -3.073968816646e-01
   126   -1.377734168604e-03
   127   -6.572990920672e-03
   128    1.149437799815e-03
   129   -2.938853979298e-01
   130   -4.805474285375e-05
   131   -1.041371767902e-03
   132    1.953147781695e-05
   133   -3.749944647341e-02
   134   -4.645697005899e-04
   135    9.115020420154e-03
   136   -1.391275445336e-02
   137    1.285857750858e-04
   138   -3.328772578312e-04
   139    2.145736814783e-04
   140    3.520224058262e-04
   141    5.245276262340e-03
   142   -1.337670853536e-03
   143    2.066246208472e-01
   144   -1.062922556553e-03
   145    7.798549202773e-03
   146   -1.959225086127e-03
   147    3.066896694301e-01
   148   -1.315631822189e-03
   149    7.455628730465e-03
   150   -1.617392689031e-03
   151    2.932760204866e-01
   152    1.049344268877e-05
   153    7.005834254935e-04
   154   -2.027563923392e-05
   155    3.757937015096e-02
   156    2.801202676110e-04
   157   -9.459236600806e-03
   158   -1.362016804029e-02
   159   -3.338174424414e-04
   160   -3.092266958634e-04
   161   -4.013198138840e-04
   162   -6.269440995004e-04
   163   -2.824790673249e-03
   164    2.593909680210e-03
   165   -3.426281641063e-02
   166    1.657319034378e-03
   167   -4.158896569066e-03
   168    3.750848132359e-03
   169   -5.736940976856e-02
   170    2.169267451775e-03
   171   -2.603963650066e-03
   172    2.571414120762e-03
   173   -4.162187279048e-02
   174   -4.595009461084e-03
   175    4.354757319234e-04
   176   -2.601494838082e-04
   177    6.275985162212e-03
   178    1.506227473112e-04
   179   -3.752263985666e-03
   180    2.669031795481e-04
   181   -8.310917480040e-04
   182    1.112592632789e-04
   183   -1.765215702413e-04
   184    4.691081593380e-05
   185    6.313295434094e-04
   186    3.447653716340e-04
   187    5.530669603976e-04
   188    1.009840042504e-03
   189   -1.762967399737e-04
   190   -3.813329223418e-02
   191   -1.626272104759e-03
   192    1.290255185781e-03
   193   -3.815616943056e-04
   194   -5.853520420111e-02
   195   -1.810107925827e-03
   196    8.988563217369e-04
   197   -9.848093396595e-04
   198   -6.439060530464e-02
   199    6.484825879805e-03
   200   -1.741122518178e-03
   201    6.836531613971e-04
   202   -2.029763631325e-02
   203   -1.169252509652e-04
   204    2.183499640016e-03
   205    6.607197512723e-04
   206   -8.888271086577e-06
   207   -2.919137074229e-04
   208    8.665790691604e-04
   209    1.196917370121e-03
   210    2.949631683499e-04
   211   -8.336219557151e-05
   212   -2.694387558320e-04
   213    7.242998604594e-04
   214    9.266739363501e-04
   215   -1.896213004416e-03
   216   -2.137877850195e-03
   217    4.073974656838e-03
   218    5.020782784454e-03
   219   -3.844503637848e-04
   220    2.918365356661e-06
   221   -3.634830970329e-05
   222   -3.171061676186e-03
   223    2.404617871518e-05
   224   -3.000815514766e-04
   225    8.233741103467e-03
   226   -6.196134424150e-05
   227    7.837495755579e-04
   228    3.202014215476e-03
   229   -2.485392764501e-05
   230    2.873068173475e-04
   231   -6.842663619893e-03
   232    5.093867530191e-05
   233   -6.300546426913e-04
   234   -1.556073972948e-02
   235    1.140338432190e-04
   236   -1.538458666316e-03
   237   -5.428400086245e-03
   238    1.142028228771e-05
   239   -9.450571788646e-04
   240   -4.530915838192e-04
   241    7.097787161438e-06
   242   -3.811802046297e-04
   243    8.205321328671e-04
   244   -3.372826848047e-05
   245   -1.291186219295e-05
   246    5.309604314868e-06
   247   -1.254085251259e-04
   248    2.467686487613e-05
   249   -4.132744301679e-06
   250   -3.231679521174e-03
   251   -1.111416841769e-03
   252    2.097499523608e-05
   253   -7.474692303368e-06
   254    7.619990774699e-04
   255   -3.915727463757e-05
   256    1.028237886613e-03
   257   -1.375220006503e-03
   258    6.368302012518e-05
Sym=X
Ene= -0.081961
Spin=Alpha
Occup=1
     1    1.014710940390e-02
     2    1.583848883692e-02
     3    5.791642110462e-02
     4    6.340182268003e-02
     5    6.544413717026e-04
     6   -4.168161543090e-02
     7    8.095180890010e-02
     8    9.096288949232e-02
     9    1.404737861085e-03
    10   -6.008300894185e-02
    11    4.700969035170e-02
    12    6.229968961530e-02
    13    1.205374895118e-03
    14    1.252363255425e-01
    15    1.716059681095e-02
    16    1.060976810079e-02
    17   -4.168128000569e-04
    18    9.040943051744e-05
    19   -3.187806859770e-04
    20   -1.604338972126e-04
    21    1.974595340344e-02
    22    1.724411872541e-03
    23   -9.113279544293e-03
    24   -1.462271773786e-02
    25   -5.222288181340e-02
    26   -4.776478740887e-03
    27    2.930538069013e-03
    28    4.311072235615e-02
    29   -7.313561266882e-02
    30   -1.054389049436e-02
    31    4.358647027802e-03
    32    4.693235682287e-02
    33   -7.042096003673e-02
    34   -2.730972403297e-02
    35    4.280221996658e-03
    36   -1.408853167756e-01
    37    6.795171963812e-02
    38   -6.583970956060e-03
    39   -9.501277966876e-04
    40    8.625539610940e-04
    41   -1.652959289286e-04
    42    1.910727640689e-04
    43    1.841530932152e-03
    44   -8.377858874911e-03
    45   -4.614841109890e-04
    46   -7.005084124349e-04
    47    3.997264631784e-04
    48    1.684530199563e-04
    49    1.498390111107e-04
    50    4.374249560767e-03
    51    1.092216101790e-03
    52    2.372194663601e-04
    53    2.332331069313e-04
    54   -2.070374023127e-02
    55    2.096742305381e-02
    56   -1.925542220973e-04
    57   -3.562949733976e-04
    58   -4.957491960218e-02
    59   -3.438446042742e-02
    60    2.153638024254e-03
    61    9.618791706548e-04
    62    1.355694116843e-03
    63   -2.100050379538e-04
    64    4.688754460769e-04
    65    9.965463590995e-03
    66   -2.708358065097e-04
    67    1.105084252206e-02
    68    1.699120940116e-02
    69   -1.673549223628e-01
    70    2.227393397151e-03
    71    4.680176170669e-03
    72   -4.932066942036e-02
    73   -2.673018406202e-01
    74    3.568014774822e-03
    75    7.501968432639e-03
    76    9.066342345701e-02
    77   -1.603462132594e-01
    78    2.132687992514e-03
    79    4.733385078763e-03
    80   -4.287524404613e-02
    81    1.009894266423e-01
    82   -3.145108998145e-03
    83   -2.619624238360e-03
    84   -1.172165718853e-03
    85   -6.544721699071e-04
    86    2.361199162346e-04
    87    2.600750117530e-02
    88   -6.792116825180e-04
    89    3.068157487377e-03
    90   -3.038085622197e-03
    91   -1.767545047485e-02
    92   -2.360071321655e-02
    93   -3.258855887888e-02
    94   -7.832059077405e-03
    95    8.886076583083e-04
    96    1.402963895012e-03
    97   -1.859201972748e-02
    98    2.420956374092e-04
    99    3.476250650937e-04
   100   -4.277761158534e-03
   101   -2.863072071231e-02
   102    3.757441700567e-04
   103    5.351406064423e-04
   104   -4.413169591399e-03
   105   -1.965642200964e-02
   106    2.904732221205e-04
   107    3.471549556590e-04
   108    4.056452195572e-02
   109   -5.432630436313e-03
   110    3.652931213241e-05
   111    3.230053960670e-05
   112    1.227686109471e-03
   113    4.315855485045e-05
   114    2.065501252442e-03
   115    6.338905156312e-04
   116    3.350141219373e-05
   117   -5.458004313700e-03
   118   -8.961276656313e-03
   119    7.750391923179e-03
   120   -1.187131247061e-02
   121   -8.158780226561e-03
   122    2.692297882839e-02
   123    1.096736467642e-02
   124   -1.687601688096e-02
   125   -1.209684005386e-02
   126    3.200560223634e-02
   127    9.652462199432e-03
   128   -1.017536018739e-02
   129   -1.150960146898e-02
   130   -6.037476145779e-03
   131    4.144223711895e-03
   132    4.863762769343e-04
   133   -1.495486586342e-03
   134    7.866988224624e-04
   135    3.620903671703e-04
   136   -5.480702553225e-04
   137    9.328796555891e-04
   138    1.235526124871e-04
   139   -5.446218172021e-03
   140   -8.942107501103e-03
   141    8.539890307440e-03
   142    1.158302684714e-02
   143    7.660145098439e-03
   144    2.687076965285e-02
   145    1.212092039382e-02
   146    1.646344450008e-02
   147    1.137909379024e-02
   148    3.192428228653e-02
   149    1.061827013713e-02
   150    9.819194385309e-03
   151    1.090322418461e-02
   152   -6.106515756071e-03
   153    4.207838149593e-03
   154   -5.619466435192e-04
   155    1.362317213186e-03
   156    8.161595918976e-04
   157   -3.459726543313e-04
   158   -5.135177633895e-04
   159    8.996542996699e-04
   160   -2.008858073344e-04
   161    1.019504965990e-02
   162    1.591553473224e-02
   163    5.621008787103e-02
   164   -6.490404294821e-02
   165   -2.283554222010e-03
   166   -4.188874460356e-02
   167    7.849099919353e-02
   168   -9.306053933561e-02
   169   -3.437737865655e-03
   170   -6.009602561267e-02
   171    4.532499864612e-02
   172   -6.343756782578e-02
   173   -2.291247163706e-03
   174    1.236414431051e-01
   175    1.933874511745e-02
   176   -1.261089369595e-02
   177   -4.322039957371e-05
   178    1.108308252114e-04
   179   -6.193048737193e-04
   180    9.456795271622e-05
   181    1.961695625958e-02
   182   -2.792328102021e-03
   183    2.994385462412e-03
   184   -3.132641799859e-03
   185   -1.767399517965e-02
   186   -9.082285968469e-03
   187   -1.457281453893e-02
   188   -5.217127871335e-02
   189    5.838410988173e-03
   190    2.284101605455e-05
   191    4.296344155658e-02
   192   -7.296002451630e-02
   193    1.200356429317e-02
   194   -9.276754902679e-05
   195    4.682292619093e-02
   196   -6.976513639745e-02
   197    2.880865510479e-02
   198   -5.240398924821e-04
   199   -1.396446498698e-01
   200    7.047793684958e-02
   201    6.234234452612e-03
   202   -2.530843428141e-03
   203    8.534000858297e-04
   204    3.535462358766e-05
   205   -1.590694343910e-04
   206    2.268653845905e-03
   207    8.225485790203e-03
   208   -2.340667462448e-02
   209   -3.232093605504e-02
   210   -7.782043489357e-03
   211    2.168219049042e-03
   212    7.007658841030e-03
   213   -1.883452244196e-02
   214   -2.411763832058e-02
   215    4.937294166761e-02
   216    5.549539530100e-02
   217   -1.054759075499e-01
   218   -1.318633686071e-01
   219    1.003122864097e-02
   220   -1.208159277152e-04
   221   -1.946873696079e-04
   222    8.274031494441e-02
   223   -9.962861455766e-04
   224   -1.605551483406e-03
   225   -2.148351347609e-01
   226    2.584717650186e-03
   227    4.165428270681e-03
   228   -8.357599085270e-02
   229    1.019442249624e-03
   230    1.643192750363e-03
   231    1.785993324709e-01
   232   -2.166889147136e-03
   233   -3.505806384715e-03
   234    4.060653038097e-01
   235   -4.882930937607e-03
   236   -7.813320763120e-03
   237    1.413265135790e-01
   238   -1.542213224303e-03
   239   -2.508317273461e-03
   240    1.172480935928e-02
   241    8.898984840127e-04
   242   -2.297854988952e-05
   243   -2.148631780895e-02
   244    5.561378755086e-04
   245    2.996127744492e-04
   246    1.544643887531e-05
   247   -4.499561519013e-06
   248   -6.505364616993e-04
   249    1.638853747180e-05
   250    7.610782814731e-02
   251    2.677940056123e-02
   252   -3.274185048529e-04
   253   -5.479208608777e-04
   254   -1.961767953882e-02
   255   -1.456672119404e-03
   256    5.326705762064e-05
   257    3.604509161130e-02
   258   -9.334153185364e-04
Sym=X
Ene= -0.252660
Spin=Alpha
Occup=1
     1   -2.096455030925e-06
     2   -3.649704540657e-06
     3    1.859289237082e-03
     4   -2.262761678009e-04
     5    8.062485608804e-02
     6    1.647267437440e-05
     7    3.013324805055e-03
     8   -3.647748485193e-04
     9    1.305623822169e-01
    10   -8.544604524493e-05
    11    2.859906107503e-03
    12   -3.031068403756e-04
    13    1.244904741495e-01
    14   -1.531789924205e-03
    15   -1.225003715386e-04
    16    2.173798441076e-04
    17   -8.700259260088e-04
    18    3.365733949495e-04
    19   -9.733860557946e-03
    20   -1.138177832818e-02
    21   -2.597297440418e-04
    22   -2.379127689942e-04
    23   -2.574293166184e-06
    24   -4.211959479588e-06
    25   -8.623499615876e-04
    26    1.138232469003e-04
    27   -3.751773292571e-02
    28    9.667362393032e-06
    29   -1.428453160529e-03
    30    1.872419935687e-04
    31   -6.192534024540e-02
    32    4.102577349080e-06
    33   -1.213159013862e-03
    34    1.813947996736e-04
    35   -5.157725515200e-02
    36    8.375267523783e-04
    37   -2.323165367022e-04
    38   -6.392935173335e-05
    39    4.894046678125e-04
    40    7.081172482024e-04
    41   -1.636142505575e-02
    42    1.097923296566e-02
    43   -3.524142489954e-04
    44    3.027733455672e-04
    45    1.181352324113e-06
    46    1.926225335616e-06
    47   -2.757739075111e-03
    48    3.221852199851e-04
    49   -1.185402536558e-01
    50   -2.757489185765e-06
    51   -4.525963199028e-03
    52    5.319229120131e-04
    53   -1.949054753582e-01
    54   -1.178006292359e-04
    55   -4.394769825088e-03
    56    6.067684052254e-04
    57   -1.856344218379e-01
    58   -7.584170862791e-04
    59   -4.282519307279e-04
    60    1.984631597863e-04
    61   -2.432327963567e-02
    62    4.628573385088e-05
    63   -1.082403649223e-03
    64    9.898889958157e-05
    65   -2.224886435142e-05
    66    6.836743693343e-06
    67    4.253448635831e-07
    68    7.779137459936e-07
    69    2.612539601428e-03
    70   -2.956165974346e-04
    71    1.124977812268e-01
    72   -1.094508110024e-05
    73    4.219359228547e-03
    74   -4.805320972041e-04
    75    1.820608461427e-01
    76    1.450011679751e-04
    77    3.506432293954e-03
    78   -4.050498647170e-04
    79    1.497097015849e-01
    80    1.483474168325e-03
    81    8.216421540878e-04
    82    1.326771971811e-05
    83    2.943323480600e-02
    84   -8.345114060336e-04
    85    2.066838751289e-02
    86   -1.764015595054e-04
    87    4.845752044753e-04
    88   -6.188958764905e-05
    89    4.303212508013e-06
    90   -9.205664656490e-07
    91   -1.602735130027e-05
    92    1.280517609989e-05
    93    9.527752509887e-06
    94   -1.262358334279e-05
    95   -6.393439112818e-07
    96   -9.154299365097e-07
    97    6.537385878876e-05
    98    9.460655463126e-06
    99    2.877940826237e-03
   100   -4.827177215845e-07
   101    9.358653036841e-05
   102    2.058051314255e-05
   103    4.028610208528e-03
   104    5.420066093757e-05
   105    5.090264586519e-05
   106   -8.547064533613e-05
   107    3.891711130029e-03
   108    1.891492135953e-04
   109    5.538524700145e-04
   110   -5.161284210139e-05
   111    2.666277748374e-02
   112   -6.454541950281e-04
   113    1.600828842537e-02
   114   -2.685015806198e-04
   115    3.673456496727e-04
   116   -3.100946219256e-05
   117    8.807685887903e-07
   118    1.410375540348e-06
   119    8.552157729365e-04
   120   -1.989315107971e-04
   121    4.014988374348e-02
   122   -4.773575521092e-06
   123    1.274370180848e-03
   124   -2.948208392451e-04
   125    5.982729859471e-02
   126   -4.266190147358e-05
   127    1.249260105306e-03
   128   -2.867347329045e-04
   129    5.793193718636e-02
   130   -2.136387676920e-07
   131   -9.331151749396e-06
   132    2.129417032080e-06
   133   -4.434987637402e-04
   134    4.725573215760e-05
   135   -7.614364700534e-04
   136    3.075145549958e-03
   137   -1.031752685400e-06
   138    7.183865684382e-05
   139   -2.328619707899e-07
   140   -2.754714895592e-07
   141    9.697010049950e-04
   142   -1.926106867612e-04
   143    3.964939359779e-02
   144    2.411777386197e-06
   145    1.445612877588e-03
   146   -2.843343796393e-04
   147    5.908267140293e-02
   148    3.666647787186e-05
   149    1.395532819330e-03
   150   -2.792503333539e-04
   151    5.721986400191e-02
   152   -6.238528072577e-05
   153    8.069985585216e-06
   154    6.656764575957e-06
   155   -5.178809592241e-04
   156    1.661178001145e-05
   157   -8.224398754791e-04
   158   -3.020782535122e-03
   159   -3.442967075726e-05
   160   -6.828935056296e-05
   161   -6.237857041136e-06
   162   -1.002937986731e-05
   163    1.864966026345e-03
   164   -2.302343982175e-04
   165    7.973027632639e-02
   166    3.218878553351e-05
   167    3.014924608697e-03
   168   -3.687922930281e-04
   169    1.291056940129e-01
   170    3.938047696004e-06