[Molden Format]
[Atoms] (Angs)
  C      1    6     -0.60308027      1.24884959      0.02595850
  C      2    6      0.78318760      1.23153607     -0.00621390
  C      3    6      1.43790248      0.00979129     -0.02475940
  C      4    6     -1.30034920      0.04558663      0.03879402
  H      5    1     -1.13531042      2.19180962      0.04090714
  H      6    1      1.35342608      2.15108582     -0.01688747
  N      7    7      2.91159486     -0.00948016     -0.05899691
  O      8    8      3.45893135     -1.09359226     -0.07501963
  O      9    8      3.48723719      1.05994155     -0.06906801
  C     10    6     -0.63489100     -1.17551740      0.01999630
  H     11    1     -1.19175769     -2.10420457      0.03034090
  C     12    6      0.75132891     -1.19445736     -0.01220662
  H     13    1      1.29720829     -2.12860384     -0.02748658
 Br     14   35     -3.19270661      0.07025578      0.08272467
[GTO]
1    0
S    6    1.000000
   4.56324000E+03    1.96665000E-03 
   6.82024000E+02    1.52306000E-02 
   1.54973000E+02    7.61269000E-02 
   4.44553000E+01    2.60801000E-01 
   1.30290000E+01    6.16462000E-01 
   1.82773000E+00    2.21006000E-01 
SP   3    1.000000
   2.09642000E+01    1.14660000E-01   4.02487000E-02 
   4.80331000E+00    9.19999000E-01   2.37594000E-01 
   1.45933000E+00   -3.03068000E-03   8.15854000E-01 
SP   1    1.000000
   4.83456000E-01    1.00000000E+00   1.00000000E+00 
SP   1    1.000000
   1.45585000E-01    1.00000000E+00   1.00000000E+00 
SP   1    1.000000
   4.38000000E-02    1.00000000E+00   1.00000000E+00 
D    1    1.000000
   6.26000000E-01    1.00000000E+00 

2    0
S    6    1.000000
   4.56324000E+03    1.96665000E-03 
   6.82024000E+02    1.52306000E-02 
   1.54973000E+02    7.61269000E-02 
   4.44553000E+01    2.60801000E-01 
   1.30290000E+01    6.16462000E-01 
   1.82773000E+00    2.21006000E-01 
SP   3    1.000000
   2.09642000E+01    1.14660000E-01   4.02487000E-02 
   4.80331000E+00    9.19999000E-01   2.37594000E-01 
   1.45933000E+00   -3.03068000E-03   8.15854000E-01 
SP   1    1.000000
   4.83456000E-01    1.00000000E+00   1.00000000E+00 
SP   1    1.000000
   1.45585000E-01    1.00000000E+00   1.00000000E+00 
SP   1    1.000000
   4.38000000E-02    1.00000000E+00   1.00000000E+00 
D    1    1.000000
   6.26000000E-01    1.00000000E+00 

3    0
S    6    1.000000
   4.56324000E+03    1.96665000E-03 
   6.82024000E+02    1.52306000E-02 
   1.54973000E+02    7.61269000E-02 
   4.44553000E+01    2.60801000E-01 
   1.30290000E+01    6.16462000E-01 
   1.82773000E+00    2.21006000E-01 
SP   3    1.000000
   2.09642000E+01    1.14660000E-01   4.02487000E-02 
   4.80331000E+00    9.19999000E-01   2.37594000E-01 
   1.45933000E+00   -3.03068000E-03   8.15854000E-01 
SP   1    1.000000
   4.83456000E-01    1.00000000E+00   1.00000000E+00 
SP   1    1.000000
   1.45585000E-01    1.00000000E+00   1.00000000E+00 
SP   1    1.000000
   4.38000000E-02    1.00000000E+00   1.00000000E+00 
D    1    1.000000
   6.26000000E-01    1.00000000E+00 

4    0
S    6    1.000000
   4.56324000E+03    1.96665000E-03 
   6.82024000E+02    1.52306000E-02 
   1.54973000E+02    7.61269000E-02 
   4.44553000E+01    2.60801000E-01 
   1.30290000E+01    6.16462000E-01 
   1.82773000E+00    2.21006000E-01 
SP   3    1.000000
   2.09642000E+01    1.14660000E-01   4.02487000E-02 
   4.80331000E+00    9.19999000E-01   2.37594000E-01 
   1.45933000E+00   -3.03068000E-03   8.15854000E-01 
SP   1    1.000000
   4.83456000E-01    1.00000000E+00   1.00000000E+00 
SP   1    1.000000
   1.45585000E-01    1.00000000E+00   1.00000000E+00 
SP   1    1.000000
   4.38000000E-02    1.00000000E+00   1.00000000E+00 
D    1    1.000000
   6.26000000E-01    1.00000000E+00 

5    0
S    3    1.000000
   3.38650000E+01    2.54938000E-02 
   5.09479000E+00    1.90373000E-01 
   1.15879000E+00    8.52161000E-01 
S    1    1.000000
   3.25840000E-01    1.00000000E+00 
S    1    1.000000
   1.02741000E-01    1.00000000E+00 

6    0
S    3    1.000000
   3.38650000E+01    2.54938000E-02 
   5.09479000E+00    1.90373000E-01 
   1.15879000E+00    8.52161000E-01 
S    1    1.000000
   3.25840000E-01    1.00000000E+00 
S    1    1.000000
   1.02741000E-01    1.00000000E+00 

7    0
S    6    1.000000
   6.29348000E+03    1.96979000E-03 
   9.49044000E+02    1.49613000E-02 
   2.18776000E+02    7.35006000E-02 
   6.36916000E+01    2.48937000E-01 
   1.88282000E+01    6.02460000E-01 
   2.72023000E+00    2.56202000E-01 
SP   3    1.000000
   3.06331000E+01    1.11906000E-01   3.83119000E-02 
   7.02614000E+00    9.21666000E-01   2.37403000E-01 
   2.11205000E+00   -2.56919000E-03   8.17592000E-01 
SP   1    1.000000
   6.84009000E-01    1.00000000E+00   1.00000000E+00 
SP   1    1.000000
   2.00878000E-01    1.00000000E+00   1.00000000E+00 
SP   1    1.000000
   6.39000000E-02    1.00000000E+00   1.00000000E+00 
D    1    1.000000
   9.13000000E-01    1.00000000E+00 

8    0
S    6    1.000000
   8.58850000E+03    1.89515000E-03 
   1.29723000E+03    1.43859000E-02 
   2.99296000E+02    7.07320000E-02 
   8.73771000E+01    2.40001000E-01 
   2.56789000E+01    5.94797000E-01 
   3.74004000E+00    2.80802000E-01 
SP   3    1.000000
   4.21175000E+01    1.13889000E-01   3.65114000E-02 
   9.62837000E+00    9.20811000E-01   2.37153000E-01 
   2.85332000E+00   -3.27447000E-03   8.19702000E-01 
SP   1    1.000000
   9.05661000E-01    1.00000000E+00   1.00000000E+00 
SP   1    1.000000
   2.55611000E-01    1.00000000E+00   1.00000000E+00 
SP   1    1.000000
   8.45000000E-02    1.00000000E+00   1.00000000E+00 
D    1    1.000000
   1.29200000E+00    1.00000000E+00 

9    0
S    6    1.000000
   8.58850000E+03    1.89515000E-03 
   1.29723000E+03    1.43859000E-02 
   2.99296000E+02    7.07320000E-02 
   8.73771000E+01    2.40001000E-01 
   2.56789000E+01    5.94797000E-01 
   3.74004000E+00    2.80802000E-01 
SP   3    1.000000
   4.21175000E+01    1.13889000E-01   3.65114000E-02 
   9.62837000E+00    9.20811000E-01   2.37153000E-01 
   2.85332000E+00   -3.27447000E-03   8.19702000E-01 
SP   1    1.000000
   9.05661000E-01    1.00000000E+00   1.00000000E+00 
SP   1    1.000000
   2.55611000E-01    1.00000000E+00   1.00000000E+00 
SP   1    1.000000
   8.45000000E-02    1.00000000E+00   1.00000000E+00 
D    1    1.000000
   1.29200000E+00    1.00000000E+00 

10    0
S    6    1.000000
   4.56324000E+03    1.96665000E-03 
   6.82024000E+02    1.52306000E-02 
   1.54973000E+02    7.61269000E-02 
   4.44553000E+01    2.60801000E-01 
   1.30290000E+01    6.16462000E-01 
   1.82773000E+00    2.21006000E-01 
SP   3    1.000000
   2.09642000E+01    1.14660000E-01   4.02487000E-02 
   4.80331000E+00    9.19999000E-01   2.37594000E-01 
   1.45933000E+00   -3.03068000E-03   8.15854000E-01 
SP   1    1.000000
   4.83456000E-01    1.00000000E+00   1.00000000E+00 
SP   1    1.000000
   1.45585000E-01    1.00000000E+00   1.00000000E+00 
SP   1    1.000000
   4.38000000E-02    1.00000000E+00   1.00000000E+00 
D    1    1.000000
   6.26000000E-01    1.00000000E+00 

11    0
S    3    1.000000
   3.38650000E+01    2.54938000E-02 
   5.09479000E+00    1.90373000E-01 
   1.15879000E+00    8.52161000E-01 
S    1    1.000000
   3.25840000E-01    1.00000000E+00 
S    1    1.000000
   1.02741000E-01    1.00000000E+00 

12    0
S    6    1.000000
   4.56324000E+03    1.96665000E-03 
   6.82024000E+02    1.52306000E-02 
   1.54973000E+02    7.61269000E-02 
   4.44553000E+01    2.60801000E-01 
   1.30290000E+01    6.16462000E-01 
   1.82773000E+00    2.21006000E-01 
SP   3    1.000000
   2.09642000E+01    1.14660000E-01   4.02487000E-02 
   4.80331000E+00    9.19999000E-01   2.37594000E-01 
   1.45933000E+00   -3.03068000E-03   8.15854000E-01 
SP   1    1.000000
   4.83456000E-01    1.00000000E+00   1.00000000E+00 
SP   1    1.000000
   1.45585000E-01    1.00000000E+00   1.00000000E+00 
SP   1    1.000000
   4.38000000E-02    1.00000000E+00   1.00000000E+00 
D    1    1.000000
   6.26000000E-01    1.00000000E+00 

13    0
S    3    1.000000
   3.38650000E+01    2.54938000E-02 
   5.09479000E+00    1.90373000E-01 
   1.15879000E+00    8.52161000E-01 
S    1    1.000000
   3.25840000E-01    1.00000000E+00 
S    1    1.000000
   1.02741000E-01    1.00000000E+00 

14    0
S    6    1.000000
   4.39700000E+05    8.13000000E-04 
   6.60300000E+04    6.28500000E-03 
   1.51400000E+04    3.19200000E-02 
   4.31700000E+03    1.28800000E-01 
   1.41400000E+03    3.94600000E-01 
   5.23900000E+02    5.41300000E-01 
S    3    1.000000
   5.23900000E+02    1.83100000E-01 
   2.07700000E+02    6.17600000E-01 
   8.65400000E+01    2.53800000E-01 
S    1    1.000000
   3.05200000E+01    1.00000000E+00 
S    1    1.000000
   1.29800000E+01    1.00000000E+00 
S    1    1.000000
   4.41200000E+00    1.00000000E+00 
S    1    1.000000
   1.86200000E+00    1.00000000E+00 
S    1    1.000000
   3.93200000E-01    1.00000000E+00 
S    1    1.000000
   1.40000000E-01    1.00000000E+00 
P    3    1.000000
   2.95700000E+03    2.22600000E-02 
   7.00300000E+02    1.80200000E-01 
   2.24600000E+02    8.62400000E-01 
P    3    1.000000
   8.25900000E+01    3.44000000E-01 
   3.31900000E+01    5.07100000E-01 
   1.42000000E+01    2.59000000E-01 
P    3    1.000000
   1.42000000E+01    7.96500000E-02 
   7.43800000E+00    3.73400000E-01 
   3.52600000E+00    6.04900000E-01 
P    1    1.000000
   1.59500000E+00    1.00000000E+00 
P    1    1.000000
   8.46200000E-01    1.00000000E+00 
P    1    1.000000
   3.18600000E-01    1.00000000E+00 
P    1    1.000000
   1.09600000E-01    1.00000000E+00 
D    4    1.000000
   1.34800000E+02    1.83100000E-02 
   3.63900000E+01    1.35000000E-01 
   1.21600000E+01    4.26100000E-01 
   4.34100000E+00    6.04300000E-01 
D    1    1.000000
   1.53500000E+00    1.00000000E+00 
SP   1    1.000000
   3.90000000E-02    1.00000000E+00   1.00000000E+00 
D    1    1.000000
   4.15000000E-01    1.00000000E+00 

[MO]
Sym=X
Ene= -0.094221
Spin=Alpha
Occup=1
     1   -1.552404496075e-03
     2   -2.608862334557e-03
     3   -2.670403364800e-02
     4    2.687820738977e-02
     5    8.894931749603e-04
     6    7.110502337166e-03
     7   -4.298159428020e-02
     8    4.424024976092e-02
     9    1.438469900755e-03
    10    7.066937268626e-02
    11   -4.695222740586e-02
    12   -4.661574683126e-03
    13    1.363661655483e-03
    14   -7.145018059287e-01
    15   -4.409361054313e-02
    16    1.504134972388e-02
    17    9.761494782616e-04
    18    2.728497139160e-04
    19    1.671607329278e-04
    20    2.053053086935e-04
    21   -3.900320850537e-03
    22   -7.735352376298e-03
    23   -4.241187014886e-03
    24   -6.926731107975e-03
    25    3.285952031389e-02
    26   -2.631660734447e-02
    27   -2.518280433215e-04
    28    2.227853909980e-02
    29    5.145381589435e-02
    30   -3.710578354935e-02
    31   -3.518722750612e-04
    32   -2.319936700765e-02
    33   -5.304515518234e-03
    34    6.636784410829e-03
    35    8.478573598593e-04
    36   -3.902151478331e-02
    37   -2.730277105772e-01
    38    1.119825537587e-01
    39    6.679646854183e-03
    40    1.254245475735e-04
    41    7.751703779580e-05
    42    8.533878035737e-05
    43   -3.272729560865e-03
    44   -6.296642517843e-03
    45   -1.403702271037e-05
    46   -2.326336723614e-05
    47    8.387394093788e-04
    48    5.194277221114e-02
    49    8.218047797684e-04
    50    6.901237512387e-05
    51    1.315303176262e-03
    52    8.013787573271e-02
    53    1.331845851818e-03
    54    2.968392503469e-04
    55    1.526490176482e-03
    56    8.912769276394e-02
    57    1.150906554669e-03
    58    1.880656441330e-03
    59    2.970903441134e-03
    60    2.554915016654e-01
    61    7.547183174045e-04
    62   -1.958403979766e-07
    63   -5.474707665812e-05
    64    1.245608774571e-04
    65   -7.811243616082e-05
    66   -4.255513276514e-03
    67   -5.831390797314e-07
    68   -8.527831834010e-07
    69   -4.000321532769e-04
    70   -2.243818961118e-02
    71   -3.386826510424e-04
    72   -5.434220853200e-06
    73   -5.248199071815e-04
    74   -2.603408535604e-02
    75   -5.311698933793e-04
    76    2.491518529471e-04
    77   -1.255749710531e-03
    78   -9.849160002583e-02
    79   -7.542732221765e-04
    80   -1.917579276083e-03
    81    2.278342206249e-03
    82    2.074479207038e-01
    83    6.645908879204e-04
    84   -6.153721128933e-06
    85    1.338556238458e-04
    86   -2.338257953090e-04
    87    3.181294701708e-04
    88    1.081150595454e-02
    89    3.453497661133e-02
    90    4.781892419052e-02
    91    2.499694714943e-02
    92   -6.745074789976e-03
    93   -1.279810288149e-02
    94   -1.890468739132e-02
    95   -1.084697409534e-05
    96   -1.790600295723e-05
    97    2.685414352267e-05
    98    1.046943737752e-02
    99   -7.350807429801e-05
   100    5.408444626859e-05
   101    9.473998060737e-05
   102    2.063982985864e-02
   103   -9.880244415865e-05
   104    6.752690173454e-05
   105   -8.095955899641e-04
   106   -6.616615867648e-02
   107   -3.308510405694e-04
   108    1.438966591111e-04
   109    1.137658825412e-03
   110    6.092684714394e-02
   111   -9.124461195900e-05
   112    9.667520007124e-06
   113   -2.375033259461e-05
   114   -5.313663308856e-04
   115    7.343327375203e-04
   116    2.535524239280e-02
   117    1.168803973081e-03
   118    1.833258945300e-03
   119   -1.091079051670e-01
   120   -9.053783959691e-02
   121    1.821231707579e-03
   122   -6.743283466736e-03
   123   -1.633440652706e-01
   124   -1.325838751930e-01
   125    2.737504640537e-03
   126   -3.974846731333e-02
   127   -1.472154780266e-01
   128   -1.322927201353e-01
   129    2.414569808824e-03
   130    6.176671254580e-02
   131   -1.769655359591e-02
   132    1.249299351514e-02
   133    4.571713152958e-04
   134   -9.381934929631e-05
   135   -2.087848238088e-04
   136    2.457405556946e-05
   137    9.050459927213e-03
   138   -3.813321754041e-03
   139   -1.163321393686e-03
   140   -1.824719169781e-03
   141    1.071524490736e-01
   142   -9.340966309804e-02
   143   -2.774516868615e-03
   144    6.711821800853e-03
   145    1.604812984681e-01
   146   -1.368847639875e-01
   147   -4.147863744073e-03
   148    3.965198934843e-02
   149    1.443195536593e-01
   150   -1.361666372017e-01
   151   -3.751851892530e-03
   152   -6.199410880034e-02
   153    1.796586911385e-02
   154    1.214932037288e-02
   155   -2.897584832670e-04
   156    9.807369970475e-05
   157    2.056689441613e-04
   158    1.128242249429e-04
   159   -9.251152311058e-03
   160   -3.351683007601e-03
   161    1.573656127783e-03
   162    2.642611266490e-03
   163    2.763384747637e-02
   164    2.617413361932e-02
   165   -5.463728099309e-04
   166   -7.187477648596e-03
   167    4.447309685243e-02
   168    4.311826591315e-02
   169   -8.847286537863e-04
   170   -7.125699885550e-02
   171    4.684234227149e-02
   172   -6.013002757194e-03
   173   -1.036370562166e-03
   174    7.143765453641e-01
   175    4.346356247861e-02
   176    1.452122310116e-02
   177   -1.117161172245e-03
   178   -2.707133295962e-04
   179   -4.522388459407e-05
   180    1.622201694802e-04
   181    3.528026327687e-03
   182   -7.962782486784e-03
   183   -3.467236756182e-02
   184   -4.802868772291e-02
   185   -2.517441779619e-02
   186    4.216008203600e-03
   187    6.886006054320e-03
   188   -3.369321716138e-02
   189   -2.552525593330e-02
   190    1.108764187166e-03
   191   -2.216279945815e-02
   192   -5.262061465616e-02
   193   -3.585151097464e-02
   194    1.772574990668e-03
   195    2.355783373930e-02
   196    5.041587007303e-03
   197    6.493557639498e-03
   198    3.228628265731e-04
   199    3.955211767536e-02
   200    2.750329678735e-01
   201    1.042931418541e-01
   202   -6.041543957259e-03
   203   -1.262470803932e-04
   204   -6.154077628604e-05
   205    2.114761981520e-04
   206    2.962652889293e-03
   207   -6.449561205655e-03
   208    6.720202043077e-03
   209    1.276200977791e-02
   210    1.888880048848e-02
   211    2.156851064164e-07
   212    7.564606005100e-07
   213   -2.620217193817e-06
   214    1.051248361316e-08
   215   -2.592321971007e-06
   216    2.041174245942e-05
   217   -4.006856902310e-05
   218   -1.366622690073e-06
   219   -1.263448161376e-04
   220   -1.008220524500e-02
   221   -8.396163932265e-05
   222   -1.043082857843e-03
   223   -8.321756603937e-02
   224   -6.930751696322e-04
   225    2.725153476222e-03
   226    2.172528682962e-01
   227    1.809071635546e-03
   228    1.010332740952e-03
   229    8.179917214324e-02
   230    6.736233747005e-04
   231   -2.229125801135e-03
   232   -1.796923184306e-01
   233   -1.476144364548e-03
   234   -5.292950518965e-03
   235   -4.214444083658e-01
   236   -3.524905016718e-03
   237   -3.289136858943e-03
   238   -2.570571813854e-01
   239   -2.062081938530e-03
   240    4.730017130546e-06
   241    5.630915530437e-05
   242   -7.955681479536e-05
   243    7.816400589819e-05
   244    3.820734574024e-03
   245    2.545084731833e-06
   246    7.747472744398e-06
   247   -2.662238319741e-06
   248    5.029875185342e-06
   249    2.580750739735e-04
   250   -2.919771625827e-04
   251   -3.619917946792e-04
   252   -2.202836468841e-02
   253   -1.014666566799e-04
   254   -9.329669458128e-06
   255   -1.490945807230e-04
   256    2.367710245856e-04
   257   -2.128262343306e-04
   258   -1.003294571774e-02
Sym=X
Ene= -0.135272
Spin=Alpha
Occup=1
     1    1.019243450488e-02
     2    1.614702045068e-02
     3    1.599807108498e-02
     4    5.552804953451e-02
     5   -2.826224212130e-04
     6   -4.553933835144e-02
     7    2.492879294787e-02
     8    7.863929175212e-02
     9   -4.670579070377e-04
    10   -1.354785838259e-01
    11   -3.076295000839e-02
    12    7.806602690184e-02
    13    8.354741469907e-04
    14    2.953275528404e-01
    15   -7.662910816408e-01
    16   -4.443550005468e-01
    17    1.654392803161e-02
    18   -7.776581852088e-04
    19   -6.290633327133e-05
    20    2.410673656743e-04
    21   -8.633730470839e-04
    22   -1.024281081414e-02
    23   -5.922282132221e-03
    24   -9.559345677751e-03
    25   -6.698538571607e-04
    26   -3.317125199165e-02
    27   -2.270522633634e-04
    28    2.844103860814e-02
    29    6.609152578615e-04
    30   -4.750545581077e-02
    31   -3.925333558438e-04
    32    7.598443725749e-02
    33   -6.523650297541e-02
    34   -4.130096896953e-02
    35    1.208077580158e-03
    36   -9.534625200455e-03
    37   -7.405575174529e-01
    38    4.245470674760e-01
    39    1.830603776689e-02
    40    5.719042444146e-04
    41    1.711412072546e-05
    42    2.710012756229e-04
    43   -1.089669560354e-03
    44   -1.107118957865e-02
    45   -1.748203788579e-05
    46   -2.880391147222e-05
    47    6.864492805598e-04
    48    4.174659397513e-02
    49   -4.884542224177e-05
    50    8.182577973929e-05
    51    1.052859857622e-03
    52    6.215671441723e-02
    53   -9.341734649241e-05
    54    4.647543366430e-04
    55    8.133276745263e-04
    56    4.546529825354e-02
    57   -9.475181975050e-05
    58   -1.597413239604e-03
    59    1.071038045917e-02
    60    8.206970034826e-01
    61    2.027473548373e-03
    62   -2.883407522153e-06
    63   -8.609059637207e-06
    64    1.476362162541e-04
    65   -1.514111764306e-04
    66   -6.849842435305e-03
    67   -2.205630564281e-06
    68   -3.402851012399e-06
    69   -9.380209403262e-04
    70   -6.888748090168e-02
    71   -1.015309535401e-04
    72    1.301877060026e-05
    73   -1.355891306114e-03
    74   -9.963570714816e-02
    75   -1.335162547963e-04
    76   -7.662162375740e-05
    77   -3.157429608260e-04
    78   -1.092251707701e-02
    79    8.933545519881e-05
    80    2.464515414518e-03
    81   -1.363767495459e-02
    82   -1.060181871042e+00
    83   -2.655638677760e-03
    84    5.371127585722e-06
    85   -6.696314440924e-05
    86    4.936359611205e-04
    87   -5.480966306133e-04
    88   -2.166052565334e-02
    89    3.031282327265e-02
    90    4.451954162818e-02
    91    5.600672109384e-03
    92   -2.705273565771e-02
    93   -3.695738321166e-02
    94   -1.865745878597e-02
    95   -8.002296502778e-06
    96   -1.319725541140e-05
    97    2.973543556627e-05
    98    9.840944898535e-03
    99    4.845542668416e-05
   100    3.758698911374e-05
   101    8.615417249460e-05
   102    1.866830028662e-02
   103    8.372490470687e-05
   104    9.206812744032e-05
   105   -5.435660176253e-04
   106   -4.725764268235e-02
   107   -1.040720893204e-04
   108    2.207471074573e-04
   109    1.113950959057e-03
   110    7.145946315493e-02
   111    2.346026017836e-04
   112    4.298413860133e-06
   113    8.086654152986e-05
   114   -6.056719829774e-04
   115    7.493774054923e-04
   116    2.573131077457e-02
   117    2.080462066024e-03
   118    3.358627618366e-03
   119   -1.048857887634e-01
   120   -8.686371603988e-02
   121    2.237266705721e-03
   122   -1.208874958641e-02
   123   -1.571360972314e-01
   124   -1.272199072369e-01
   125    3.359249173653e-03
   126   -3.512415596170e-02
   127   -1.428112477759e-01
   128   -1.237680345032e-01
   129    3.031209880107e-03
   130    7.034524391978e-02
   131   -1.157421321723e-02
   132    1.488732515227e-02
   133    3.136506597861e-04
   134   -2.438120568241e-04
   135   -2.303817033822e-04
   136    6.334928675846e-05
   137    8.911706459101e-03
   138   -3.608587144950e-03
   139   -2.076499287138e-03
   140   -3.352529852908e-03
   141    1.030595982094e-01
   142   -8.963196620785e-02
   143   -2.642802736637e-03
   144    1.206416128040e-02
   145    1.544624098084e-01
   146   -1.313720496506e-01
   147   -3.951316909814e-03
   148    3.503169179292e-02
   149    1.401815312622e-01
   150   -1.275114654225e-01
   151   -3.611047014141e-03
   152   -7.064767263247e-02
   153    1.200771966548e-02
   154    1.461460720710e-02
   155   -2.559861752795e-04
   156    2.491533848423e-04
   157    2.109522679987e-04
   158    9.674734170951e-05
   159   -9.103507143246e-03
   160   -3.157670079475e-03
   161   -1.019718002173e-02
   162   -1.615502776224e-02
   163   -1.440729013382e-02
   164    5.592525480347e-02
   165    5.289603836549e-04
   166    4.556520043797e-02
   167   -2.267601628510e-02
   168    7.927687859983e-02
   169    8.123730149837e-04
   170    1.355521613131e-01
   171    3.298341852139e-02
   172    7.741841083846e-02
   173   -4.984972935562e-04
   174   -2.946399642523e-01
   175    7.558166973999e-01
   176   -4.652548033754e-01
   177   -1.873666447309e-02
   178    7.822715349557e-04
   179   -1.385432463699e-05
   180    2.384238184079e-04
   181    3.371850448320e-04
   182   -1.029383797523e-02
   183   -3.037932450821e-02
   184   -4.457819399263e-02
   185   -5.562913019657e-03
   186    5.917082693116e-03
   187    9.550460743713e-03
   188   -3.191962529868e-04
   189   -3.325371034258e-02
   190   -1.295095003500e-04
   191   -2.840569972964e-02
   192   -2.068090486739e-03
   193   -4.758458578255e-02
   194   -1.570390514610e-04
   195   -7.616436597425e-02
   196    6.389377285984e-02
   197   -4.317220104319e-02
   198   -1.635311167498e-03
   199    7.783394626226e-03
   200    7.528257520801e-01
   201    4.057983219374e-01
   202   -1.636819709634e-02
   203   -5.674571377267e-04
   204   -7.945039792106e-05
   205    2.455651616269e-04
   206    5.258654698943e-04
   207   -1.110334935434e-02
   208    2.703940614476e-02
   209    3.690851050406e-02
   210    1.865244717478e-02
   211    4.867946058876e-07
   212    1.497947152134e-06
   213   -3.286805553245e-06
   214   -8.664801239877e-06
   215    2.174548893149e-05
   216   -7.456521470467e-06
   217    2.728021022991e-05
   218   -1.248912738006e-04
   219    1.281449695938e-04
   220    9.501189886578e-03
   221    3.420162965130e-05
   222    1.057806486108e-03
   223    7.841836033477e-02
   224    2.823238718298e-04
   225   -2.761589995312e-03
   226   -2.046769658518e-01
   227   -7.370010379003e-04
   228   -1.032213920749e-03
   229   -7.726913781524e-02
   230   -2.753988731634e-04
   231    2.275114222431e-03
   232    1.699691971749e-01
   233    6.055926873711e-04
   234    5.346851105677e-03
   235    3.966361295134e-01
   236    1.432998158610e-03
   237    3.418155507096e-03
   238    2.574280702745e-01
   239    8.898388448527e-04
   240    5.006662912325e-06
   241   -1.180517033124e-05
   242    1.579572279648e-05
   243   -2.426557262818e-05
   244   -8.912925219121e-04
   245   -2.757774193441e-06
   246   -1.713754739946e-06
   247    1.126727171460e-06
   248   -1.567572766210e-06
   249   -1.172726838821e-04
   250    1.284111042987e-04
   251    3.261835764410e-04
   252    2.201641336279e-02
   253    6.249948175315e-05
   254   -8.897772562888e-07
   255    3.403853075601e-05
   256   -9.193268932788e-05
   257    9.108927953937e-05
   258    3.899979894783e-03
Sym=X
Ene= -0.233356
Spin=Alpha
Occup=1
     1   -4.414400613253e-06
     2   -7.142603848986e-06
     3   -3.036141379524e-03
     4    3.593768469059e-04
     5   -1.297300816551e-01
     6    1.393001065747e-05
     7   -4.941814638576e-03
     8    5.872136254607e-04
     9   -2.114609551272e-01
    10    1.548976736475e-04
    11   -4.289620279747e-03
    12    4.758307336550e-04
    13   -1.865452900988e-01
    14    3.959758509936e-04
    15   -9.856282779460e-05
    16    1.020882858985e-04
    17   -2.132011385077e-02
    18    5.534310165211e-04
    19   -1.388921452185e-02
    20   -5.850399690391e-04
    21   -3.212393093287e-04
    22    2.716212579557e-05
    23   -8.888684033609e-07
    24   -1.372052753205e-06
    25   -2.965044941810e-03
    26    3.547766223742e-04
    27   -1.290758125497e-01
    28    1.096108345759e-05
    29   -4.857347512710e-03
    30    5.846886904140e-04
    31   -2.115454726026e-01
    32   -1.661986063581e-04
    33   -4.154884193117e-03
    34    5.469456152982e-04
    35   -1.818440640997e-01
    36   -2.205283011831e-04
    37    2.141567444736e-04
    38   -5.617397788637e-05
    39   -6.238279227127e-03
    40   -5.692927051816e-04
    41    1.418902666240e-02
    42   -5.856682089866e-04
    43    3.215258201213e-04
    44   -4.888951430380e-05
    45    3.393526465284e-06
    46    5.577952250809e-06
    47   -1.105996476051e-05
    48    1.674162048968e-05
    49   -1.958621428382e-06
    50   -1.731574161036e-05
    51   -1.907508706800e-05
    52    2.745201450419e-05
    53   -6.904335728452e-06
    54   -4.454156583281e-05
    55   -1.395113270334e-05
    56    1.036698269138e-04
    57    4.298124513391e-06
    58   -1.145287959714e-04
    59    4.702645964086e-05
    60   -6.129867653315e-04
    61   -9.608053010346e-06
    62   -1.133302311871e-04
    63   -3.536258891916e-04
    64   -2.671061109610e-02
    65   -8.458918192834e-05
    66   -6.197264974130e-04
    67    2.066988468740e-07
    68    3.528460572352e-07
    69    1.590135897418e-06
    70    1.158064265702e-05
    71    1.310568903703e-05
    72   -8.118176540042e-07
    73    2.129543530543e-06
    74    1.540402671265e-05
    75    2.368872796297e-05
    76   -3.819742110881e-06
    77    1.918810856912e-06
    78   -4.672152031240e-05
    79    7.645831617080e-06
    80    3.683891104515e-05
    81    2.299018440897e-05
    82    4.651399277065e-04
    83    1.223538212967e-05
    84   -1.161462972700e-04
    85   -3.513272461550e-04
    86   -2.727466229286e-02
    87   -8.345113109697e-05
    88   -6.196794413128e-04
    89    1.371101367470e-05
    90    2.796076730366e-05
    91    1.260064704949e-07
    92    1.170620173693e-05
    93    1.429585259110e-05
    94   -4.351175455301e-06
    95    8.321691467101e-07
    96    1.385726870296e-06
    97    7.823119185247e-06
    98   -8.626723052482e-07
    99   -6.260158940885e-06
   100   -4.343274860673e-06
   101    1.278243238091e-05
   102    1.709228885269e-06
   103   -9.698399215310e-06
   104   -5.854858403091e-06
   105   -4.321924312703e-06
   106   -3.483132698491e-05
   107   -1.055357174891e-05
   108   -1.866108968307e-05
   109   -3.120486441908e-05
   110    2.204237893744e-04
   111    7.553169424336e-06
   112    3.741250320291e-05
   113    1.032575300702e-04
   114    7.786782183110e-03
   115    1.930865658972e-05
   116    1.823915527730e-04
   117   -6.917220755023e-07
   118   -1.165603650856e-06
   119   -8.738752840870e-04
   120    9.791933746144e-05
   121   -3.602376178712e-02
   122    4.305024211531e-06
   123   -1.303168770050e-03
   124    1.463361722649e-04
   125   -5.380292602189e-02
   126   -1.071425921815e-05
   127   -1.239712392237e-03
   128    1.340095341648e-04
   129   -5.104461431572e-02
   130    1.427194410286e-04
   131   -1.380283839320e-04
   132    2.615742086884e-05
   133   -5.724811709310e-03
   134   -5.877943760578e-05
   135    1.136483875635e-03
   136   -2.456544663724e-03
   137    2.047028348311e-05
   138   -6.233362515616e-05
   139   -5.887477420313e-07
   140   -9.619844914336e-07
   141    8.273125542812e-04
   142   -1.158375718869e-04
   143    3.602287710878e-02
   144    3.806198869058e-06
   145    1.234735282495e-03
   146   -1.731552142501e-04
   147    5.380141112460e-02
   148    1.999083520917e-05
   149    1.176515092499e-03
   150   -1.671734742394e-04
   151    5.104660481247e-02
   152   -1.202235114097e-04
   153    1.423437167957e-04
   154   -1.709504927620e-05
   155    5.724642999868e-03
   156    3.540768948022e-05
   157   -1.200514595355e-03
   158   -2.425178320512e-03
   159   -3.558373967450e-05
   160   -5.220202356140e-05
   161    5.342083713959e-06
   162    8.795139043859e-06
   163    3.032938310749e-03
   164   -3.592199671094e-04
   165    1.297790576947e-01
   166   -1.994402155703e-05
   167    4.936696446138e-03
   168   -5.828332250257e-04
   169    2.115403998614e-01
   170   -1.524295033450e-04