[Molden Format]
[Atoms] (Angs)
  C      1    6     -0.60308027      1.24884959      0.02595850
  C      2    6      0.78318760      1.23153607     -0.00621390
  C      3    6      1.43790248      0.00979129     -0.02475940
  C      4    6     -1.30034920      0.04558663      0.03879402
  H      5    1     -1.13531042      2.19180962      0.04090714
  H      6    1      1.35342608      2.15108582     -0.01688747
  N      7    7      2.91159486     -0.00948016     -0.05899691
  O      8    8      3.45893135     -1.09359226     -0.07501963
  O      9    8      3.48723719      1.05994155     -0.06906801
  C     10    6     -0.63489100     -1.17551740      0.01999630
  H     11    1     -1.19175769     -2.10420457      0.03034090
  C     12    6      0.75132891     -1.19445736     -0.01220662
  H     13    1      1.29720829     -2.12860384     -0.02748658
 Br     14   35     -3.19270661      0.07025578      0.08272467
[GTO]
1    0
S    6    1.000000
   4.56324000E+03    1.96665000E-03 
   6.82024000E+02    1.52306000E-02 
   1.54973000E+02    7.61269000E-02 
   4.44553000E+01    2.60801000E-01 
   1.30290000E+01    6.16462000E-01 
   1.82773000E+00    2.21006000E-01 
SP   3    1.000000
   2.09642000E+01    1.14660000E-01   4.02487000E-02 
   4.80331000E+00    9.19999000E-01   2.37594000E-01 
   1.45933000E+00   -3.03068000E-03   8.15854000E-01 
SP   1    1.000000
   4.83456000E-01    1.00000000E+00   1.00000000E+00 
SP   1    1.000000
   1.45585000E-01    1.00000000E+00   1.00000000E+00 
SP   1    1.000000
   4.38000000E-02    1.00000000E+00   1.00000000E+00 
D    1    1.000000
   6.26000000E-01    1.00000000E+00 

2    0
S    6    1.000000
   4.56324000E+03    1.96665000E-03 
   6.82024000E+02    1.52306000E-02 
   1.54973000E+02    7.61269000E-02 
   4.44553000E+01    2.60801000E-01 
   1.30290000E+01    6.16462000E-01 
   1.82773000E+00    2.21006000E-01 
SP   3    1.000000
   2.09642000E+01    1.14660000E-01   4.02487000E-02 
   4.80331000E+00    9.19999000E-01   2.37594000E-01 
   1.45933000E+00   -3.03068000E-03   8.15854000E-01 
SP   1    1.000000
   4.83456000E-01    1.00000000E+00   1.00000000E+00 
SP   1    1.000000
   1.45585000E-01    1.00000000E+00   1.00000000E+00 
SP   1    1.000000
   4.38000000E-02    1.00000000E+00   1.00000000E+00 
D    1    1.000000
   6.26000000E-01    1.00000000E+00 

3    0
S    6    1.000000
   4.56324000E+03    1.96665000E-03 
   6.82024000E+02    1.52306000E-02 
   1.54973000E+02    7.61269000E-02 
   4.44553000E+01    2.60801000E-01 
   1.30290000E+01    6.16462000E-01 
   1.82773000E+00    2.21006000E-01 
SP   3    1.000000
   2.09642000E+01    1.14660000E-01   4.02487000E-02 
   4.80331000E+00    9.19999000E-01   2.37594000E-01 
   1.45933000E+00   -3.03068000E-03   8.15854000E-01 
SP   1    1.000000
   4.83456000E-01    1.00000000E+00   1.00000000E+00 
SP   1    1.000000
   1.45585000E-01    1.00000000E+00   1.00000000E+00 
SP   1    1.000000
   4.38000000E-02    1.00000000E+00   1.00000000E+00 
D    1    1.000000
   6.26000000E-01    1.00000000E+00 

4    0
S    6    1.000000
   4.56324000E+03    1.96665000E-03 
   6.82024000E+02    1.52306000E-02 
   1.54973000E+02    7.61269000E-02 
   4.44553000E+01    2.60801000E-01 
   1.30290000E+01    6.16462000E-01 
   1.82773000E+00    2.21006000E-01 
SP   3    1.000000
   2.09642000E+01    1.14660000E-01   4.02487000E-02 
   4.80331000E+00    9.19999000E-01   2.37594000E-01 
   1.45933000E+00   -3.03068000E-03   8.15854000E-01 
SP   1    1.000000
   4.83456000E-01    1.00000000E+00   1.00000000E+00 
SP   1    1.000000
   1.45585000E-01    1.00000000E+00   1.00000000E+00 
SP   1    1.000000
   4.38000000E-02    1.00000000E+00   1.00000000E+00 
D    1    1.000000
   6.26000000E-01    1.00000000E+00 

5    0
S    3    1.000000
   3.38650000E+01    2.54938000E-02 
   5.09479000E+00    1.90373000E-01 
   1.15879000E+00    8.52161000E-01 
S    1    1.000000
   3.25840000E-01    1.00000000E+00 
S    1    1.000000
   1.02741000E-01    1.00000000E+00 

6    0
S    3    1.000000
   3.38650000E+01    2.54938000E-02 
   5.09479000E+00    1.90373000E-01 
   1.15879000E+00    8.52161000E-01 
S    1    1.000000
   3.25840000E-01    1.00000000E+00 
S    1    1.000000
   1.02741000E-01    1.00000000E+00 

7    0
S    6    1.000000
   6.29348000E+03    1.96979000E-03 
   9.49044000E+02    1.49613000E-02 
   2.18776000E+02    7.35006000E-02 
   6.36916000E+01    2.48937000E-01 
   1.88282000E+01    6.02460000E-01 
   2.72023000E+00    2.56202000E-01 
SP   3    1.000000
   3.06331000E+01    1.11906000E-01   3.83119000E-02 
   7.02614000E+00    9.21666000E-01   2.37403000E-01 
   2.11205000E+00   -2.56919000E-03   8.17592000E-01 
SP   1    1.000000
   6.84009000E-01    1.00000000E+00   1.00000000E+00 
SP   1    1.000000
   2.00878000E-01    1.00000000E+00   1.00000000E+00 
SP   1    1.000000
   6.39000000E-02    1.00000000E+00   1.00000000E+00 
D    1    1.000000
   9.13000000E-01    1.00000000E+00 

8    0
S    6    1.000000
   8.58850000E+03    1.89515000E-03 
   1.29723000E+03    1.43859000E-02 
   2.99296000E+02    7.07320000E-02 
   8.73771000E+01    2.40001000E-01 
   2.56789000E+01    5.94797000E-01 
   3.74004000E+00    2.80802000E-01 
SP   3    1.000000
   4.21175000E+01    1.13889000E-01   3.65114000E-02 
   9.62837000E+00    9.20811000E-01   2.37153000E-01 
   2.85332000E+00   -3.27447000E-03   8.19702000E-01 
SP   1    1.000000
   9.05661000E-01    1.00000000E+00   1.00000000E+00 
SP   1    1.000000
   2.55611000E-01    1.00000000E+00   1.00000000E+00 
SP   1    1.000000
   8.45000000E-02    1.00000000E+00   1.00000000E+00 
D    1    1.000000
   1.29200000E+00    1.00000000E+00 

9    0
S    6    1.000000
   8.58850000E+03    1.89515000E-03 
   1.29723000E+03    1.43859000E-02 
   2.99296000E+02    7.07320000E-02 
   8.73771000E+01    2.40001000E-01 
   2.56789000E+01    5.94797000E-01 
   3.74004000E+00    2.80802000E-01 
SP   3    1.000000
   4.21175000E+01    1.13889000E-01   3.65114000E-02 
   9.62837000E+00    9.20811000E-01   2.37153000E-01 
   2.85332000E+00   -3.27447000E-03   8.19702000E-01 
SP   1    1.000000
   9.05661000E-01    1.00000000E+00   1.00000000E+00 
SP   1    1.000000
   2.55611000E-01    1.00000000E+00   1.00000000E+00 
SP   1    1.000000
   8.45000000E-02    1.00000000E+00   1.00000000E+00 
D    1    1.000000
   1.29200000E+00    1.00000000E+00 

10    0
S    6    1.000000
   4.56324000E+03    1.96665000E-03 
   6.82024000E+02    1.52306000E-02 
   1.54973000E+02    7.61269000E-02 
   4.44553000E+01    2.60801000E-01 
   1.30290000E+01    6.16462000E-01 
   1.82773000E+00    2.21006000E-01 
SP   3    1.000000
   2.09642000E+01    1.14660000E-01   4.02487000E-02 
   4.80331000E+00    9.19999000E-01   2.37594000E-01 
   1.45933000E+00   -3.03068000E-03   8.15854000E-01 
SP   1    1.000000
   4.83456000E-01    1.00000000E+00   1.00000000E+00 
SP   1    1.000000
   1.45585000E-01    1.00000000E+00   1.00000000E+00 
SP   1    1.000000
   4.38000000E-02    1.00000000E+00   1.00000000E+00 
D    1    1.000000
   6.26000000E-01    1.00000000E+00 

11    0
S    3    1.000000
   3.38650000E+01    2.54938000E-02 
   5.09479000E+00    1.90373000E-01 
   1.15879000E+00    8.52161000E-01 
S    1    1.000000
   3.25840000E-01    1.00000000E+00 
S    1    1.000000
   1.02741000E-01    1.00000000E+00 

12    0
S    6    1.000000
   4.56324000E+03    1.96665000E-03 
   6.82024000E+02    1.52306000E-02 
   1.54973000E+02    7.61269000E-02 
   4.44553000E+01    2.60801000E-01 
   1.30290000E+01    6.16462000E-01 
   1.82773000E+00    2.21006000E-01 
SP   3    1.000000
   2.09642000E+01    1.14660000E-01   4.02487000E-02 
   4.80331000E+00    9.19999000E-01   2.37594000E-01 
   1.45933000E+00   -3.03068000E-03   8.15854000E-01 
SP   1    1.000000
   4.83456000E-01    1.00000000E+00   1.00000000E+00 
SP   1    1.000000
   1.45585000E-01    1.00000000E+00   1.00000000E+00 
SP   1    1.000000
   4.38000000E-02    1.00000000E+00   1.00000000E+00 
D    1    1.000000
   6.26000000E-01    1.00000000E+00 

13    0
S    3    1.000000
   3.38650000E+01    2.54938000E-02 
   5.09479000E+00    1.90373000E-01 
   1.15879000E+00    8.52161000E-01 
S    1    1.000000
   3.25840000E-01    1.00000000E+00 
S    1    1.000000
   1.02741000E-01    1.00000000E+00 

14    0
S    6    1.000000
   4.39700000E+05    8.13000000E-04 
   6.60300000E+04    6.28500000E-03 
   1.51400000E+04    3.19200000E-02 
   4.31700000E+03    1.28800000E-01 
   1.41400000E+03    3.94600000E-01 
   5.23900000E+02    5.41300000E-01 
S    3    1.000000
   5.23900000E+02    1.83100000E-01 
   2.07700000E+02    6.17600000E-01 
   8.65400000E+01    2.53800000E-01 
S    1    1.000000
   3.05200000E+01    1.00000000E+00 
S    1    1.000000
   1.29800000E+01    1.00000000E+00 
S    1    1.000000
   4.41200000E+00    1.00000000E+00 
S    1    1.000000
   1.86200000E+00    1.00000000E+00 
S    1    1.000000
   3.93200000E-01    1.00000000E+00 
S    1    1.000000
   1.40000000E-01    1.00000000E+00 
P    3    1.000000
   2.95700000E+03    2.22600000E-02 
   7.00300000E+02    1.80200000E-01 
   2.24600000E+02    8.62400000E-01 
P    3    1.000000
   8.25900000E+01    3.44000000E-01 
   3.31900000E+01    5.07100000E-01 
   1.42000000E+01    2.59000000E-01 
P    3    1.000000
   1.42000000E+01    7.96500000E-02 
   7.43800000E+00    3.73400000E-01 
   3.52600000E+00    6.04900000E-01 
P    1    1.000000
   1.59500000E+00    1.00000000E+00 
P    1    1.000000
   8.46200000E-01    1.00000000E+00 
P    1    1.000000
   3.18600000E-01    1.00000000E+00 
P    1    1.000000
   1.09600000E-01    1.00000000E+00 
D    4    1.000000
   1.34800000E+02    1.83100000E-02 
   3.63900000E+01    1.35000000E-01 
   1.21600000E+01    4.26100000E-01 
   4.34100000E+00    6.04300000E-01 
D    1    1.000000
   1.53500000E+00    1.00000000E+00 
SP   1    1.000000
   3.90000000E-02    1.00000000E+00   1.00000000E+00 
D    1    1.000000
   4.15000000E-01    1.00000000E+00 

[MO]
Sym=X
Ene= -0.136607
Spin=Alpha
Occup=1
     1   -5.120259141055e-03
     2   -8.254571522278e-03
     3   -3.305326263594e-02
     4    4.111695046696e-03
     5    1.175117890486e-03
     6    2.312540383453e-02
     7   -5.195548653136e-02
     8    1.154813490195e-02
     9    1.887981184610e-03
    10    9.198920555897e-02
    11   -4.480713695854e-02
    12   -3.312635290044e-02
    13    1.513283416727e-03
    14   -7.666550077799e-01
    15    9.888173791591e-02
    16    9.853500397108e-02
    17   -1.963935224439e-03
    18    3.007974733016e-04
    19    1.330167066439e-04
    20    8.532832113891e-05
    21   -3.125620495716e-03
    22   -3.022153246572e-03
    23   -2.322327605195e-03
    24   -3.839314490449e-03
    25    3.247174457983e-02
    26   -1.047010375433e-02
    27   -3.032871544655e-04
    28    1.304210683296e-02
    29    5.102660732398e-02
    30   -1.413018801123e-02
    31   -4.461194793571e-04
    32   -3.570504528323e-02
    33    3.966036704076e-03
    34    2.766964153139e-02
    35    6.565975836505e-04
    36    2.390057592321e-02
    37   -1.255167435243e-01
    38    2.287915120522e-02
    39    2.996837221868e-03
    40    4.199816764207e-05
    41    4.389254261150e-05
    42    3.335784831523e-05
    43   -3.538390360883e-03
    44   -1.458450359812e-03
    45   -5.504171346993e-06
    46   -9.218074496694e-06
    47    4.822717568047e-04
    48    3.156330478933e-02
    49    1.952736654085e-04
    50    2.826037560523e-05
    51    7.789933581549e-04
    52    5.076799360405e-02
    53    3.183898275213e-04
    54    1.025577568622e-04
    55    1.194373469681e-03
    56    7.524745076185e-02
    57    3.442238272325e-04
    58    2.198536249656e-03
    59    4.565840891507e-04
    60    5.975412206686e-02
    61    1.737464516731e-04
    62   -6.492781725399e-08
    63   -1.072057940765e-05
    64    1.303426379889e-04
    65   -2.920572921694e-05
    66   -1.738970265858e-03
    67   -5.808065773989e-07
    68   -8.558526888324e-07
    69    5.989122997568e-05
    70    8.391805030279e-03
    71   -5.515369844500e-05
    72   -5.221501907972e-06
    73    1.453416857087e-04
    74    1.823710393614e-02
    75   -7.950485593219e-05
    76    2.184351017802e-04
    77   -9.487426708288e-04
    78   -8.180670995068e-02
    79   -3.306918857890e-04
    80   -2.442914319285e-03
    81    4.765546591613e-03
    82    4.002762761537e-01
    83    1.034123807434e-03
    84   -3.578353388558e-06
    85    5.733655122899e-05
    86   -2.954763408360e-04
    87    4.391936843875e-04
    88    1.625178089624e-02
    89    2.128526876414e-02
    90    2.864570714664e-02
    91    1.971993178813e-02
    92    5.435990698586e-03
    93    4.339048051919e-03
    94   -1.316271455970e-02
    95   -5.120214109144e-06
    96   -8.446124526867e-06
    97    7.518581624509e-05
    98    9.493709710539e-03
    99    1.212036109242e-05
   100    2.594942237618e-05
   101    1.638342100734e-04
   102    1.852514160917e-02
   103    2.967781345407e-05
   104    1.302229246234e-05
   105   -7.819724389762e-04
   106   -6.213569147695e-02
   107   -1.917684181409e-04
   108    4.503252237270e-05
   109    9.721336454819e-04
   110    5.568999975497e-02
   111    1.007577672871e-04
   112    2.472755460914e-06
   113    4.036152801382e-05
   114   -4.514831608525e-04
   115    6.108355840224e-04
   116    2.205443748676e-02
   117    6.379351520650e-04
   118    9.687506599509e-04
   119   -9.107740069721e-02
   120   -7.745937400919e-02
   121    1.624285494580e-03
   122   -3.755842128105e-03
   123   -1.363626286599e-01
   124   -1.133742311399e-01
   125    2.442456737713e-03
   126   -3.500967530629e-02
   127   -1.218868088033e-01
   128   -1.140313758360e-01
   129    2.125510470462e-03
   130    5.121437196210e-02
   131   -1.549435038541e-02
   132    9.735682262041e-03
   133    3.520042252873e-04
   134   -5.440841101850e-06
   135   -1.747319877889e-04
   136    3.198790416361e-05
   137    7.609995300107e-03
   138   -3.167125979413e-03
   139   -6.355316943055e-04
   140   -9.650806966780e-04
   141    8.922328789572e-02
   142   -7.983819014361e-02
   143   -2.134693683761e-03
   144    3.742666738233e-03
   145    1.336502524679e-01
   146   -1.169350326475e-01
   147   -3.192351421419e-03
   148    3.496215422900e-02
   149    1.191380138517e-01
   150   -1.172219267184e-01
   151   -2.865628271346e-03
   152   -5.130234318116e-02
   153    1.567329249625e-02
   154    9.428096526726e-03
   155   -2.842841129754e-04
   156    7.385327182213e-06
   157    1.620711761668e-04
   158    7.724722174418e-05
   159   -7.771858154580e-03
   160   -2.772190522079e-03
   161    5.129575435348e-03
   162    8.269491074084e-03
   163    3.325688410793e-02
   164    3.248081400019e-03
   165   -1.147422896924e-03
   166   -2.315578245370e-02
   167    5.240164778866e-02
   168    1.018950608404e-02
   169   -1.820942762662e-03
   170   -9.246309077347e-02
   171    4.383412213784e-02
   172   -3.445732281262e-02
   173   -1.636717960160e-03
   174    7.663417246368e-01
   175   -9.758724044221e-02
   176    1.019575901114e-01
   177    2.437913472671e-03
   178   -2.970360864034e-04
   179   -1.170252622365e-04
   180    6.610178086786e-05
   181    2.979686469453e-03
   182   -3.197595009913e-03
   183   -2.134606281163e-02
   184   -2.876205829950e-02
   185   -1.986922748141e-02
   186    2.310810625005e-03
   187    3.820682382036e-03
   188   -3.281543913100e-02
   189   -9.652368127924e-03
   190    4.194279514574e-04
   191   -1.299193463012e-02
   192   -5.149429965124e-02
   193   -1.283563206650e-02
   194    6.485120799172e-04
   195    3.604388269784e-02
   196   -3.519188618557e-03
   197    2.782275877371e-02
   198   -3.215596853329e-04
   199   -2.295088333637e-02
   200    1.249017761236e-01
   201    1.889469997119e-02
   202   -2.856418391671e-03
   203   -4.238985779463e-05
   204   -4.154605756680e-05
   205    4.121027320445e-05
   206    3.470026673880e-03
   207   -1.639450643270e-03
   208   -5.449044479079e-03
   209   -4.348720679363e-03
   210    1.315341729532e-02
   211    1.675043201800e-07
   212    6.200973302197e-07
   213   -2.440017290822e-06
   214    1.449666324968e-06
   215   -6.846334014239e-06
   216    2.430321169898e-05
   217   -5.212612268766e-05
   218    5.107927778160e-05
   219   -1.498236786773e-04
   220   -1.166238895483e-02
   221   -4.124736695553e-05
   222   -1.236857472397e-03
   223   -9.625866051432e-02
   224   -3.404909156780e-04
   225    3.230534518207e-03
   226    2.512814105732e-01
   227    8.889542615171e-04
   228    1.201953282006e-03
   229    9.472321073444e-02
   230    3.319941116960e-04
   231   -2.651365069725e-03
   232   -2.082272393921e-01
   233   -7.297703758521e-04
   234   -6.264982745271e-03
   235   -4.872110443576e-01
   236   -1.728933897446e-03
   237   -3.916006152483e-03
   238   -3.028379824338e-01
   239   -1.040414501373e-03
   240    1.095801424029e-06
   241    1.824615050871e-05
   242   -7.805806408428e-05
   243    7.035915903027e-05
   244    3.252580105735e-03
   245    3.032713231417e-06
   246    1.999423549117e-06
   247   -6.627402641652e-06
   248    4.873208644589e-06
   249    2.569227301367e-04
   250   -2.992610901637e-04
   251   -4.045992145562e-04
   252   -2.498459009867e-02
   253   -7.509088190357e-05
   254   -8.481194389091e-06
   255   -4.922433079412e-05
   256    2.216329395145e-04
   257   -1.956434591785e-04
   258   -9.069576208869e-03
Sym=X
Ene= -0.188744
Spin=Alpha
Occup=1
     1    8.112201308796e-05
     2    1.278533380690e-04
     3   -3.059205232712e-03
     4    8.265113270862e-04
     5   -1.299913991586e-01
     6   -3.629739021168e-04
     7   -4.968542248764e-03
     8    1.267599221096e-03
     9   -2.119150603824e-01
    10   -9.242338502637e-04
    11   -4.851298396173e-03
    12    9.757268677548e-04
    13   -1.867778132532e-01
    14    1.416758513430e-04
    15   -7.538921123892e-03
    16   -4.063336688860e-03
    17   -2.097151194694e-02
    18    5.491843045753e-04
    19   -1.392409502184e-02
    20   -5.882864955199e-04
    21   -3.370281045560e-04
    22   -5.759534392745e-05
    23   -8.116788527946e-05
    24   -1.315457922620e-04
    25   -2.799547590882e-03
    26    1.096371147360e-04
    27   -1.294340582649e-01
    28    3.970674565456e-04
    29   -4.571691702368e-03
    30    2.487740393105e-04
    31   -2.120589875931e-01
    32    5.318852646429e-04
    33   -4.825878259776e-03
    34    4.457801235112e-04
    35   -1.825287133604e-01
    36    7.756654238445e-05
    37   -7.918900755385e-03
    38    4.392080198110e-03
    39   -6.406470537236e-03
    40   -5.664916920549e-04
    41    1.418858227331e-02
    42   -5.947292456118e-04
    43    2.831245784240e-04
    44   -1.345885291497e-04
    45    2.173285178964e-06
    46    3.557981535886e-06
    47    2.585833654128e-06
    48    4.659891606446e-04
    49    3.653176043393e-06
    50   -1.127601864606e-05
    51    3.397355792232e-06
    52    7.251577685013e-04
    53    2.140674319586e-06
    54   -2.227473440019e-05
    55    9.608105380383e-06
    56    8.662002038944e-04
    57    9.530330987366e-06
    58   -1.370058548200e-04
    59    1.500261885604e-04
    60    7.862262522939e-03
    61    1.873905520057e-05
    62   -1.141590541039e-04
    63   -3.575385603173e-04
    64   -2.687810879165e-02
    65   -8.581945009991e-05
    66   -6.859462397039e-04
    67    8.710921545748e-08
    68    1.628167513297e-07
    69   -3.534085911141e-06
    70   -5.007824683111e-04
    71    5.031324818703e-05
    72   -1.187878029168e-07
    73   -4.775809090273e-06
    74   -7.036484978728e-04
    75    8.469255830656e-05
    76   -4.642473246237e-06
    77   -1.485653419161e-06
    78   -3.895885796359e-04
    79    5.702154062733e-05
    80    6.897180144546e-05
    81   -9.977518166499e-05
    82   -8.736329171594e-03
    83   -2.595579781486e-05
    84   -1.161940196501e-04
    85   -3.548874556911e-04
    86   -2.733624444048e-02
    87   -8.701581139970e-05
    88   -7.608336147971e-04
    89    3.243394861059e-04
    90    4.843412031228e-04
    91    1.014038806257e-04
    92   -1.058597765992e-04
    93   -1.698575416130e-04
    94   -2.188470479858e-04
    95    2.505171280506e-07
    96    4.322929642496e-07
    97    5.832946496333e-06
    98    1.511058029911e-04
    99   -1.038036842431e-05
   100   -1.585276812259e-06
   101    1.004293971760e-05
   102    2.897663107768e-04
   103   -1.598307471522e-05
   104    2.487774517220e-07
   105   -9.130074954871e-06
   106   -8.602648412276e-04
   107   -1.862120814437e-05
   108   -1.891027761345e-06
   109   -3.833543888895e-06
   110    1.224780516222e-03
   111    6.956500269204e-06
   112    3.283615986675e-05
   113    8.977117607671e-05
   114    6.744925985400e-03
   115    3.015016776240e-05
   116    5.372541347225e-04
   117    1.983034077057e-05
   118    3.153353602722e-05
   119   -2.277908462390e-03
   120   -1.190064675886e-03
   121   -3.205231394922e-02
   122   -1.176500254267e-04
   123   -3.408596063110e-03
   124   -1.739181483828e-03
   125   -4.790667670416e-02
   126   -5.437888138434e-04
   127   -3.126477404825e-03
   128   -1.725272590955e-03
   129   -4.541006977523e-02
   130    1.066235712952e-03
   131   -3.055527256598e-04
   132    2.118932293882e-04
   133   -5.005426741537e-03
   134   -5.223014733277e-05
   135    9.611368536840e-04
   136   -2.191317714780e-03
   137    1.449416132500e-04
   138   -1.071947396633e-04
   139   -2.013256181840e-05
   140   -3.208279556543e-05
   141    2.225796614597e-03
   142   -1.424131289243e-03
   143    3.203750458061e-02
   144    1.206273885962e-04
   145    3.332084941189e-03
   146   -2.089570658209e-03
   147    4.788449024865e-02
   148    5.432129127314e-04
   149    3.053431149278e-03
   150   -2.049660062027e-03
   151    4.539412608894e-02
   152   -1.064785205656e-03
   153    3.157299528397e-04
   154    1.726534299959e-04
   155    5.008223932225e-03
   156    3.151481133701e-05
   157   -1.018002396677e-03
   158   -2.163008002712e-03
   159   -1.619719986109e-04
   160   -9.267102431060e-05
   161   -7.948800386960e-05
   162   -1.250926359749e-04
   163    3.071894413635e-03
   164    1.078575890975e-04
   165    1.300845617165e-01
   166    3.543348398895e-04
   167    4.986819229196e-03
   168    9.773073525830e-05
   169    2.120666590209e-01
   170    9.212735119304e-04
   171    4.862892862785e-03
   172   -6.678599726534e-05
   173    1.868853947514e-01
   174   -2.794042351378e-04
   175    7.420122521055e-03
   176   -4.381798988947e-03
   177    2.097200341804e-02
   178   -5.546589133334e-04
   179    1.390429769150e-02
   180   -9.381393622007e-04
   181    3.286983273001e-04
   182   -1.455190150985e-04
   183   -3.276645901601e-04
   184   -4.841749273877e-04
   185   -1.034016933202e-04
   186    8.136181752937e-05
   187    1.320496684683e-04
   188    2.802169416066e-03
   189   -6.071046644376e-04
   190    1.294775728867e-01
   191   -4.011355138159e-04
   192    4.577426301774e-03
   193   -9.239432230570e-04
   194    2.121287492426e-01
   195   -5.159779662716e-04
   196    4.835287757721e-03
   197   -5.813128273322e-04
   198    1.825728533960e-01
   199    1.371961268430e-04
   200    8.005858702485e-03
   201    4.186671500771e-03
   202    6.415015605143e-03
   203    5.656942194874e-04
   204   -1.421119357829e-02
   205   -2.252989340153e-04
   206   -2.902395312131e-04
   207   -4.988396420638e-05
   208    1.086603927575e-04
   209    1.775423684581e-04
   210    2.174701882700e-04
   211   -2.529047997767e-07
   212   -8.185965681034e-07
   213    2.210314139449e-06
   214    2.723925248236e-06
   215   -5.404933584270e-06
   216   -6.651979512339e-06
   217    1.188452829563e-05
   218    8.776341553457e-06
   219    2.935681365555e-07
   220    3.755705874940e-05
   221   -4.501996971587e-07
   222    2.424457152590e-06
   223    3.099653029559e-04
   224   -3.725522707699e-06
   225   -6.343518321342e-06
   226   -8.088449569420e-04
   227    9.883671528339e-06
   228   -2.300720945261e-06
   229   -3.058079337430e-04
   230    3.500496212074e-06
   231    5.143014367279e-06
   232    6.723965377216e-04
   233   -8.544965576436e-06
   234    1.228452246501e-05
   235    1.567058632569e-03
   236   -2.144729087700e-05
   237    1.100463019400e-05
   238    1.054168453931e-03
   239   -2.181346279699e-05
   240    7.874588096383e-06
   241    1.910862741794e-05
   242    1.801899419997e-03
   243    5.575491285522e-06
   244    4.213270655525e-05
   245    1.871808736553e-06
   246    4.887394788810e-06
   247    4.231373127106e-04
   248    1.243235975572e-06
   249    9.376967201884e-06
   250    2.180498387469e-06
   251    1.142427661410e-06
   252    1.110601372937e-04
   253   -4.130013678959e-07
   254   -1.643082656527e-05
   255   -4.217652320675e-05
   256   -3.824990589762e-03
   257   -1.186291519006e-05
   258   -8.119394124521e-05
Sym=X
Ene= -0.194953
Spin=Alpha
Occup=1
     1   -9.691955982136e-03
     2   -1.534359993433e-02
     3   -8.736355825416e-03
     4   -4.457928060769e-02
     5   -1.147565820142e-03
     6    4.279421342540e-02
     7   -1.461165144761e-02
     8   -6.340045806100e-02
     9   -1.834929055706e-03
    10    1.314354468943e-01
    11    4.405170654599e-02
    12   -5.667851034924e-02
    13   -2.946945315008e-03
    14   -1.505459530814e-01
    15    7.834441162319e-01
    16    4.494411864055e-01
    17   -1.714079020944e-02
    18    5.864343085522e-04
    19   -8.645561931771e-05
    20   -1.938096498326e-04
    21    4.378066502755e-04
    22    8.017755607516e-03
    23    8.341240381704e-03
    24    1.347256644964e-02
    25   -7.816386765982e-03
    26    2.552448678058e-02
    27   -9.191715279438e-04
    28   -3.940638272702e-02
    29   -1.496853911317e-02
    30    3.544365505784e-02
    31   -1.476248867425e-03
    32   -8.101627104029e-02
    33    6.937455571600e-02
    34    2.009293094415e-02
    35   -3.206269870255e-03
    36   -2.012015959150e-02
    37    8.032356747449e-01
    38   -4.506183490678e-01
    39   -1.987806894079e-02
    40   -2.993574115497e-04
    41    8.575209431786e-05
    42   -2.148548527132e-04
    43    2.821638361941e-03
    44    8.475126499487e-03
    45    1.385886847646e-05
    46    2.280113259215e-05
    47   -6.361489465866e-04
    48   -4.007293032591e-02
    49   -2.055302263304e-05
    50   -6.355091989898e-05
    51   -9.990217473244e-04
    52   -6.178406155291e-02
    53   -2.634418645068e-05
    54   -3.842754064687e-04
    55   -9.706690877079e-04
    56   -6.021357698237e-02
    57   -4.033654895652e-05
    58    1.133712384235e-03
    59   -1.112960817631e-02
    60   -8.546845402807e-01
    61   -2.127468050575e-03
    62    1.319786044176e-06
    63    9.383432673621e-06
    64   -4.007449850550e-04
    65    1.493205144263e-04
    66    6.547426772018e-03
    67    1.046963926124e-06
    68    1.621281719865e-06
    69    7.326164113633e-04
    70    5.421164766122e-02
    71    9.116830571636e-05
    72   -7.389054527487e-06
    73    1.046315279064e-03
    74    7.750298519021e-02
    75    1.215299019771e-04
    76    6.277314080865e-05
    77    3.412327909391e-04
    78    1.635585209384e-02
    79   -2.676755451962e-05
    80   -1.883789491873e-03
    81    1.335734200667e-02
    82    1.031653314980e+00
    83    2.570188656713e-03
    84   -5.235175110148e-06
    85    4.272209633987e-05
    86   -6.655174745359e-04
    87    4.435579069016e-04
    88    1.752432880442e-02
    89   -2.448170257224e-02
    90   -3.712558543925e-02
    91   -5.149715910187e-03
    92    1.558562093804e-02
    93    2.274816118469e-02
    94    1.948353141299e-02
    95    6.378071481246e-06
    96    1.049718876180e-05
    97   -1.010788730284e-04
    98   -1.357667214170e-02
    99   -4.826998703910e-05
   100   -2.980638485317e-05
   101   -2.121714662522e-04
   102   -2.557116509833e-02
   103   -8.687099330269e-05
   104   -6.981181052197e-05
   105    8.430446883007e-04
   106    6.929888879459e-02
   107    1.783949915313e-04
   108   -1.730057101372e-04
   109   -1.356676515131e-03
   110   -9.118944714818e-02
   111   -2.592659013355e-04
   112   -1.431584492566e-06
   113   -9.037185982523e-05
   114    8.950174816522e-04
   115   -9.424704680686e-04
   116   -3.370049501163e-02
   117   -1.913984189182e-03
   118   -3.061428074689e-03
   119    1.333422338980e-01
   120    1.131511936658e-01
   121   -3.254729812297e-03
   122    1.145970398189e-02
   123    1.998151471771e-01
   124    1.656423619100e-01
   125   -4.884297284354e-03
   126    4.565640748507e-02
   127    1.802522628060e-01
   128    1.624592045817e-01
   129   -4.403750591187e-03
   130   -8.487805952214e-02
   131    1.536751762060e-02
   132   -1.732711426980e-02
   133   -4.897195593147e-04
   134    1.846192635508e-04
   135    3.035078056175e-04
   136   -1.069578141900e-04
   137   -1.138730541479e-02
   138    4.580235140551e-03
   139    1.910470631341e-03
   140    3.056057010835e-03
   141   -1.307103534213e-01
   142    1.166419098344e-01
   143    3.849865258702e-03
   144   -1.143919275658e-02
   145   -1.959643518596e-01
   146    1.708766197112e-01
   147    5.755109119994e-03
   148   -4.557603134347e-02
   149   -1.764482586215e-01
   150    1.671559422967e-01
   151    5.256874720392e-03
   152    8.511892104508e-02
   153   -1.584350522007e-02
   154   -1.695924957023e-02
   155    4.075794838520e-04
   156   -1.890313599281e-04
   157   -2.817915151431e-04
   158   -1.571526046676e-04
   159    1.162345540736e-02
   160    3.993832342763e-03
   161    9.695030002657e-03
   162    1.534881582921e-02
   163    7.463045197397e-03
   164   -4.480219965625e-02
   165    9.257339441796e-04
   166   -4.281199840049e-02
   167    1.280110274954e-02
   168   -6.378865954340e-02
   169    1.518095746820e-03
   170   -1.314786047026e-01