[Molden Format]
[Atoms] (Angs)
  C      1    6     -0.60308027      1.24884959      0.02595850
  C      2    6      0.78318760      1.23153607     -0.00621390
  C      3    6      1.43790248      0.00979129     -0.02475940
  C      4    6     -1.30034920      0.04558663      0.03879402
  H      5    1     -1.13531042      2.19180962      0.04090714
  H      6    1      1.35342608      2.15108582     -0.01688747
  N      7    7      2.91159486     -0.00948016     -0.05899691
  O      8    8      3.45893135     -1.09359226     -0.07501963
  O      9    8      3.48723719      1.05994155     -0.06906801
  C     10    6     -0.63489100     -1.17551740      0.01999630
  H     11    1     -1.19175769     -2.10420457      0.03034090
  C     12    6      0.75132891     -1.19445736     -0.01220662
  H     13    1      1.29720829     -2.12860384     -0.02748658
 Br     14   35     -3.19270661      0.07025578      0.08272467
[GTO]
1    0
S    6    1.000000
   4.56324000E+03    1.96665000E-03 
   6.82024000E+02    1.52306000E-02 
   1.54973000E+02    7.61269000E-02 
   4.44553000E+01    2.60801000E-01 
   1.30290000E+01    6.16462000E-01 
   1.82773000E+00    2.21006000E-01 
SP   3    1.000000
   2.09642000E+01    1.14660000E-01   4.02487000E-02 
   4.80331000E+00    9.19999000E-01   2.37594000E-01 
   1.45933000E+00   -3.03068000E-03   8.15854000E-01 
SP   1    1.000000
   4.83456000E-01    1.00000000E+00   1.00000000E+00 
SP   1    1.000000
   1.45585000E-01    1.00000000E+00   1.00000000E+00 
SP   1    1.000000
   4.38000000E-02    1.00000000E+00   1.00000000E+00 
D    1    1.000000
   6.26000000E-01    1.00000000E+00 

2    0
S    6    1.000000
   4.56324000E+03    1.96665000E-03 
   6.82024000E+02    1.52306000E-02 
   1.54973000E+02    7.61269000E-02 
   4.44553000E+01    2.60801000E-01 
   1.30290000E+01    6.16462000E-01 
   1.82773000E+00    2.21006000E-01 
SP   3    1.000000
   2.09642000E+01    1.14660000E-01   4.02487000E-02 
   4.80331000E+00    9.19999000E-01   2.37594000E-01 
   1.45933000E+00   -3.03068000E-03   8.15854000E-01 
SP   1    1.000000
   4.83456000E-01    1.00000000E+00   1.00000000E+00 
SP   1    1.000000
   1.45585000E-01    1.00000000E+00   1.00000000E+00 
SP   1    1.000000
   4.38000000E-02    1.00000000E+00   1.00000000E+00 
D    1    1.000000
   6.26000000E-01    1.00000000E+00 

3    0
S    6    1.000000
   4.56324000E+03    1.96665000E-03 
   6.82024000E+02    1.52306000E-02 
   1.54973000E+02    7.61269000E-02 
   4.44553000E+01    2.60801000E-01 
   1.30290000E+01    6.16462000E-01 
   1.82773000E+00    2.21006000E-01 
SP   3    1.000000
   2.09642000E+01    1.14660000E-01   4.02487000E-02 
   4.80331000E+00    9.19999000E-01   2.37594000E-01 
   1.45933000E+00   -3.03068000E-03   8.15854000E-01 
SP   1    1.000000
   4.83456000E-01    1.00000000E+00   1.00000000E+00 
SP   1    1.000000
   1.45585000E-01    1.00000000E+00   1.00000000E+00 
SP   1    1.000000
   4.38000000E-02    1.00000000E+00   1.00000000E+00 
D    1    1.000000
   6.26000000E-01    1.00000000E+00 

4    0
S    6    1.000000
   4.56324000E+03    1.96665000E-03 
   6.82024000E+02    1.52306000E-02 
   1.54973000E+02    7.61269000E-02 
   4.44553000E+01    2.60801000E-01 
   1.30290000E+01    6.16462000E-01 
   1.82773000E+00    2.21006000E-01 
SP   3    1.000000
   2.09642000E+01    1.14660000E-01   4.02487000E-02 
   4.80331000E+00    9.19999000E-01   2.37594000E-01 
   1.45933000E+00   -3.03068000E-03   8.15854000E-01 
SP   1    1.000000
   4.83456000E-01    1.00000000E+00   1.00000000E+00 
SP   1    1.000000
   1.45585000E-01    1.00000000E+00   1.00000000E+00 
SP   1    1.000000
   4.38000000E-02    1.00000000E+00   1.00000000E+00 
D    1    1.000000
   6.26000000E-01    1.00000000E+00 

5    0
S    3    1.000000
   3.38650000E+01    2.54938000E-02 
   5.09479000E+00    1.90373000E-01 
   1.15879000E+00    8.52161000E-01 
S    1    1.000000
   3.25840000E-01    1.00000000E+00 
S    1    1.000000
   1.02741000E-01    1.00000000E+00 

6    0
S    3    1.000000
   3.38650000E+01    2.54938000E-02 
   5.09479000E+00    1.90373000E-01 
   1.15879000E+00    8.52161000E-01 
S    1    1.000000
   3.25840000E-01    1.00000000E+00 
S    1    1.000000
   1.02741000E-01    1.00000000E+00 

7    0
S    6    1.000000
   6.29348000E+03    1.96979000E-03 
   9.49044000E+02    1.49613000E-02 
   2.18776000E+02    7.35006000E-02 
   6.36916000E+01    2.48937000E-01 
   1.88282000E+01    6.02460000E-01 
   2.72023000E+00    2.56202000E-01 
SP   3    1.000000
   3.06331000E+01    1.11906000E-01   3.83119000E-02 
   7.02614000E+00    9.21666000E-01   2.37403000E-01 
   2.11205000E+00   -2.56919000E-03   8.17592000E-01 
SP   1    1.000000
   6.84009000E-01    1.00000000E+00   1.00000000E+00 
SP   1    1.000000
   2.00878000E-01    1.00000000E+00   1.00000000E+00 
SP   1    1.000000
   6.39000000E-02    1.00000000E+00   1.00000000E+00 
D    1    1.000000
   9.13000000E-01    1.00000000E+00 

8    0
S    6    1.000000
   8.58850000E+03    1.89515000E-03 
   1.29723000E+03    1.43859000E-02 
   2.99296000E+02    7.07320000E-02 
   8.73771000E+01    2.40001000E-01 
   2.56789000E+01    5.94797000E-01 
   3.74004000E+00    2.80802000E-01 
SP   3    1.000000
   4.21175000E+01    1.13889000E-01   3.65114000E-02 
   9.62837000E+00    9.20811000E-01   2.37153000E-01 
   2.85332000E+00   -3.27447000E-03   8.19702000E-01 
SP   1    1.000000
   9.05661000E-01    1.00000000E+00   1.00000000E+00 
SP   1    1.000000
   2.55611000E-01    1.00000000E+00   1.00000000E+00 
SP   1    1.000000
   8.45000000E-02    1.00000000E+00   1.00000000E+00 
D    1    1.000000
   1.29200000E+00    1.00000000E+00 

9    0
S    6    1.000000
   8.58850000E+03    1.89515000E-03 
   1.29723000E+03    1.43859000E-02 
   2.99296000E+02    7.07320000E-02 
   8.73771000E+01    2.40001000E-01 
   2.56789000E+01    5.94797000E-01 
   3.74004000E+00    2.80802000E-01 
SP   3    1.000000
   4.21175000E+01    1.13889000E-01   3.65114000E-02 
   9.62837000E+00    9.20811000E-01   2.37153000E-01 
   2.85332000E+00   -3.27447000E-03   8.19702000E-01 
SP   1    1.000000
   9.05661000E-01    1.00000000E+00   1.00000000E+00 
SP   1    1.000000
   2.55611000E-01    1.00000000E+00   1.00000000E+00 
SP   1    1.000000
   8.45000000E-02    1.00000000E+00   1.00000000E+00 
D    1    1.000000
   1.29200000E+00    1.00000000E+00 

10    0
S    6    1.000000
   4.56324000E+03    1.96665000E-03 
   6.82024000E+02    1.52306000E-02 
   1.54973000E+02    7.61269000E-02 
   4.44553000E+01    2.60801000E-01 
   1.30290000E+01    6.16462000E-01 
   1.82773000E+00    2.21006000E-01 
SP   3    1.000000
   2.09642000E+01    1.14660000E-01   4.02487000E-02 
   4.80331000E+00    9.19999000E-01   2.37594000E-01 
   1.45933000E+00   -3.03068000E-03   8.15854000E-01 
SP   1    1.000000
   4.83456000E-01    1.00000000E+00   1.00000000E+00 
SP   1    1.000000
   1.45585000E-01    1.00000000E+00   1.00000000E+00 
SP   1    1.000000
   4.38000000E-02    1.00000000E+00   1.00000000E+00 
D    1    1.000000
   6.26000000E-01    1.00000000E+00 

11    0
S    3    1.000000
   3.38650000E+01    2.54938000E-02 
   5.09479000E+00    1.90373000E-01 
   1.15879000E+00    8.52161000E-01 
S    1    1.000000
   3.25840000E-01    1.00000000E+00 
S    1    1.000000
   1.02741000E-01    1.00000000E+00 

12    0
S    6    1.000000
   4.56324000E+03    1.96665000E-03 
   6.82024000E+02    1.52306000E-02 
   1.54973000E+02    7.61269000E-02 
   4.44553000E+01    2.60801000E-01 
   1.30290000E+01    6.16462000E-01 
   1.82773000E+00    2.21006000E-01 
SP   3    1.000000
   2.09642000E+01    1.14660000E-01   4.02487000E-02 
   4.80331000E+00    9.19999000E-01   2.37594000E-01 
   1.45933000E+00   -3.03068000E-03   8.15854000E-01 
SP   1    1.000000
   4.83456000E-01    1.00000000E+00   1.00000000E+00 
SP   1    1.000000
   1.45585000E-01    1.00000000E+00   1.00000000E+00 
SP   1    1.000000
   4.38000000E-02    1.00000000E+00   1.00000000E+00 
D    1    1.000000
   6.26000000E-01    1.00000000E+00 

13    0
S    3    1.000000
   3.38650000E+01    2.54938000E-02 
   5.09479000E+00    1.90373000E-01 
   1.15879000E+00    8.52161000E-01 
S    1    1.000000
   3.25840000E-01    1.00000000E+00 
S    1    1.000000
   1.02741000E-01    1.00000000E+00 

14    0
S    6    1.000000
   4.39700000E+05    8.13000000E-04 
   6.60300000E+04    6.28500000E-03 
   1.51400000E+04    3.19200000E-02 
   4.31700000E+03    1.28800000E-01 
   1.41400000E+03    3.94600000E-01 
   5.23900000E+02    5.41300000E-01 
S    3    1.000000
   5.23900000E+02    1.83100000E-01 
   2.07700000E+02    6.17600000E-01 
   8.65400000E+01    2.53800000E-01 
S    1    1.000000
   3.05200000E+01    1.00000000E+00 
S    1    1.000000
   1.29800000E+01    1.00000000E+00 
S    1    1.000000
   4.41200000E+00    1.00000000E+00 
S    1    1.000000
   1.86200000E+00    1.00000000E+00 
S    1    1.000000
   3.93200000E-01    1.00000000E+00 
S    1    1.000000
   1.40000000E-01    1.00000000E+00 
P    3    1.000000
   2.95700000E+03    2.22600000E-02 
   7.00300000E+02    1.80200000E-01 
   2.24600000E+02    8.62400000E-01 
P    3    1.000000
   8.25900000E+01    3.44000000E-01 
   3.31900000E+01    5.07100000E-01 
   1.42000000E+01    2.59000000E-01 
P    3    1.000000
   1.42000000E+01    7.96500000E-02 
   7.43800000E+00    3.73400000E-01 
   3.52600000E+00    6.04900000E-01 
P    1    1.000000
   1.59500000E+00    1.00000000E+00 
P    1    1.000000
   8.46200000E-01    1.00000000E+00 
P    1    1.000000
   3.18600000E-01    1.00000000E+00 
P    1    1.000000
   1.09600000E-01    1.00000000E+00 
D    4    1.000000
   1.34800000E+02    1.83100000E-02 
   3.63900000E+01    1.35000000E-01 
   1.21600000E+01    4.26100000E-01 
   4.34100000E+00    6.04300000E-01 
D    1    1.000000
   1.53500000E+00    1.00000000E+00 
SP   1    1.000000
   3.90000000E-02    1.00000000E+00   1.00000000E+00 
D    1    1.000000
   4.15000000E-01    1.00000000E+00 

[MO]
Sym=X
Ene= -0.095063
Spin=Alpha
Occup=1
     1    1.443955796279e-04
     2    2.290851976616e-04
     3   -2.404322505824e-03
     4    1.540659789007e-04
     5   -8.878415661461e-02
     6   -6.361684521705e-04
     7   -3.861760258072e-03
     8    2.623139493303e-04
     9   -1.451013227743e-01
    10   -2.830187541904e-04
    11   -2.338912198053e-03
    12    3.973789289188e-05
    13   -9.194727316074e-02
    14   -1.744827408942e-03
    15    5.677349153344e-05
    16    1.360149429065e-04
    17   -2.208840719791e-02
    18    2.773549120697e-04
    19   -5.623841136723e-03
    20    1.017751335229e-02
    21   -4.621807350457e-05
    22    3.727506882490e-04
    23   -1.771815525975e-04
    24   -2.829608810687e-04
    25   -1.606200157586e-03
    26    6.025084658276e-04
    27   -9.526472051642e-02
    28    7.691746279197e-04
    29   -2.706073304378e-03
    30    9.974497583018e-04
    31   -1.561068469503e-01
    32    7.830203435235e-04
    33   -1.747614248295e-03
    34    7.212742305644e-04
    35   -1.008646528418e-01
    36   -1.359097705516e-03
    37    1.677762042778e-04
    38    4.637918642869e-04
    39    1.763789132100e-02
    40   -1.618822648037e-04
    41    5.011744328108e-03
    42    1.108904853139e-02
    43    3.094987161918e-05
    44    3.701325513844e-04
    45    1.156506822022e-04
    46    1.840125000347e-04
    47   -3.000767188935e-03
    48    2.603037063820e-04
    49   -1.061735982344e-01
    50   -5.144832155372e-04
    51   -4.907428773105e-03
    52    4.427356450721e-04
    53   -1.734188606004e-01
    54   -6.293486848899e-04
    55   -3.428577427636e-03
    56    5.237142985574e-04
    57   -1.316066871509e-01
    58    3.891284774372e-03
    59   -8.683859320365e-04
    60   -5.964442099515e-04
    61   -3.864227393160e-02
    62   -4.000243236769e-04
    63    1.056341941590e-02
    64   -1.397539803584e-04
    65   -1.019622673776e-05
    66   -2.072208695825e-05
    67   -3.084975242856e-04
    68   -4.939333353451e-04
    69   -3.029203269187e-03
    70    4.130904211160e-04
    71   -1.002150300560e-01
    72    1.378652138936e-03
    73   -4.981461007191e-03
    74    6.615585925660e-04
    75   -1.628712022338e-01
    76    1.451363067845e-03
    77   -3.341719643544e-03
    78    1.659375910153e-04
    79   -1.135791101105e-01
    80   -2.844334521037e-03
    81    1.561050968742e-03
    82    1.905089453767e-03
    83    3.563365338523e-02
    84    2.158459864992e-04
    85   -6.096397806897e-03
    86    7.981060853714e-05
    87   -6.306220494583e-05
    88    8.449479985364e-05
    89   -1.293638405877e-04
    90   -1.665589324754e-04
    91   -2.780224190642e-05
    92    6.785124451655e-04
    93    7.852414799356e-04
    94    1.431794389490e-04
    95    2.470282941194e-05
    96    3.809170998654e-05
    97    1.528696934511e-03
    98   -5.845706765418e-05
    99    2.373767098815e-02
   100   -5.600903644915e-05
   101    2.342544461372e-03
   102   -8.028969808988e-05
   103    3.630977449901e-02
   104   -2.111800522703e-04
   105    1.565435671297e-03
   106   -2.639054683287e-04
   107    3.235874117808e-02
   108   -1.838012615682e-04
   109    7.084236931554e-04
   110    2.751652903436e-05
   111    4.106668510238e-02
   112   -5.584036823013e-04
   113    1.307204680160e-02
   114   -1.752164405327e-04
   115    1.930495745428e-04
   116    4.108349674217e-06
   117    8.630762328941e-05
   118    1.407649918648e-04
   119    2.923140020495e-04
   120    1.549990903659e-04
   121    3.503112742771e-02
   122   -4.075738773887e-04
   123    4.633645325745e-04
   124    2.200226169816e-04
   125    5.247341592681e-02
   126   -6.986376062456e-04
   127    3.361418430538e-04
   128   -6.104195591569e-05
   129    4.543611251289e-02
   130    4.554987641702e-05
   131   -2.919645323816e-04
   132    1.740684127083e-05
   133   -9.734480480597e-03
   134    5.000294552452e-05
   135   -1.384219788916e-03
   136    3.848835049539e-03
   137   -5.238403429254e-05
   138    7.486184266481e-05
   139    8.562751970782e-05
   140    1.400175038557e-04
   141    5.523740753069e-04
   142   -6.434903652252e-04
   143    3.499045777268e-02
   144   -4.035919676110e-04
   145    8.522312825738e-04
   146   -9.417701972377e-04
   147    5.241352840725e-02
   148   -5.369853401919e-04
   149    6.778824976623e-04
   150   -6.258019821740e-04
   151    4.537857401680e-02
   152   -1.779023618434e-04
   153   -2.353007353355e-04
   154    7.205756735342e-05
   155   -9.732897703480e-03
   156    1.242698683679e-05
   157   -1.483176823883e-03
   158   -3.808412503973e-03
   159   -1.033325815899e-04
   160   -7.003716510886e-05
   161    2.019542729910e-04
   162    3.209044443788e-04
   163   -2.265630137160e-03
   164    1.650493611207e-04
   165   -8.879202336905e-02
   166   -8.959228710853e-04
   167   -3.641201908990e-03
   168    3.172594704902e-04
   169   -1.451142031907e-01
   170   -9.489738449807e-04
   171   -2.215161894420e-03
   172    2.905919830435e-05
   173   -9.194595733126e-02
   174    3.006441157889e-03
   175   -1.777959123492e-03
   176    1.345353534059e-03
   177   -2.206414937560e-02
   178    1.874731687601e-04
   179   -5.891382479622e-03
   180   -1.002932549998e-02
   181   -1.105284441163e-04
   182   -3.145804810855e-04
   183   -8.921720459372e-05
   184   -1.118172012675e-04
   185   -7.726070638212e-05
   186   -1.874329584929e-04
   187   -2.988799885363e-04
   188   -1.689709290206e-03
   189    1.690355954575e-06
   190   -9.526542553937e-02
   191    8.048486145792e-04
   192   -2.847294948152e-03
   193   -2.203654906236e-05
   194   -1.561057211649e-01
   195    1.179094882235e-03
   196   -1.774457525634e-03
   197    1.666383821261e-04
   198   -1.008815007436e-01
   199   -2.015451726854e-03
   200   -5.357722958830e-04
   201   -1.246056373119e-03
   202    1.766794110212e-02
   203   -2.607193745270e-04
   204    4.718812283673e-03
   205   -1.121418395681e-02
   206   -2.881439126564e-05
   207   -3.595903865892e-04
   208    5.833243593894e-04
   209    6.529909540611e-04
   210    1.757277174001e-04
   211    2.407614761815e-05
   212    7.786273676433e-05
   213   -2.097428343563e-04
   214   -2.644041746366e-04
   215    5.348346065677e-04
   216    6.329714240262e-04
   217   -1.219213254493e-03
   218   -1.137879586741e-03
   219   -1.057472460529e-05
   220   -3.013856199136e-05
   221   -2.760307521240e-03
   222   -8.783024871434e-05
   223   -2.487534848017e-04
   224   -2.278321870849e-02
   225    2.346580462105e-04
   226    6.498458918296e-04
   227    5.928881298864e-02
   228    4.341490965700e-05
   229    2.484461276464e-04
   230    2.127917703961e-02
   231   -1.061468283539e-04
   232   -5.505569085162e-04
   233   -4.530155370488e-02
   234   -5.758319519391e-04
   235   -1.257397471091e-03
   236   -1.154535797205e-01
   237   -5.153389946250e-04
   238   -8.553477040988e-04
   239   -4.754502088184e-02
   240   -3.088086830032e-04
   241    9.772769089403e-03
   242   -1.265744308715e-04
   243    7.456984776298e-05
   244   -2.039120039202e-05
   245   -6.264769516721e-05
   246    1.581631986028e-03
   247   -1.915289692715e-05
   248    2.810335121196e-05
   249   -4.790737816209e-06
   250    8.948945629991e-04
   251    6.879885621516e-05
   252   -6.082596816221e-05
   253   -9.903260418325e-03
   254    5.463459260523e-04
   255   -1.692722791858e-02
   256    2.171535647761e-04
   257   -1.545163949959e-04
   258    2.216963070265e-05
Sym=X
Ene= -0.118976
Spin=Alpha
Occup=1
     1   -4.075576641278e-03
     2   -6.538008021093e-03
     3    1.036459234653e-01
     4    1.406119973801e-02
     5   -2.533041887146e-03
     6    1.937745622295e-02
     7    1.471947824290e-01
     8    1.520458004802e-02
     9   -3.647416973412e-03
    10   -1.779690097344e-02
    11    9.955927902008e-02
    12    1.993887804213e-02
    13   -2.431279133412e-03
    14    3.467357945195e-01
    15    8.092098747413e-02
    16    9.720787895112e-03
    17   -1.889412166392e-03
    18   -6.262642433431e-04
    19   -4.176982482517e-04
    20   -6.426553433698e-05
    21    1.661774556893e-02
    22    1.611056002366e-03
    23    2.070287224018e-03
    24    3.322600737515e-03
    25   -1.171554309448e-01
    26   -1.924166897596e-02
    27    2.473724999051e-03
    28   -5.487473000965e-03
    29   -1.696251000320e-01
    30   -3.699303427546e-02
    31    3.519578168314e-03
    32   -3.677586195552e-02
    33   -1.038484334260e-01
    34   -3.866765439713e-02
    35    2.104095445290e-03
    36   -1.835109392447e-01
    37    1.444194591560e-01
    38   -5.122586495604e-02
    39   -3.447345082733e-03
    40    1.730678914153e-03
    41   -2.421469360073e-04
    42    1.827970519518e-04
    43    1.279524557468e-02
    44   -8.666336356879e-03
    45    1.113799980604e-02
    46    1.808244166390e-02
    47    3.529315381475e-02
    48   -4.392950650581e-04
    49   -1.045180043755e-03
    50   -5.028754721118e-02
    51    5.301361372575e-02
    52   -6.650492035269e-04
    53   -1.602935335029e-03
    54   -1.096414682398e-01
    55   -5.002043305916e-03
    56    1.275794924663e-04
    57   -1.342969741282e-04
    58   -3.171007026700e-01
    59   -3.854796516516e-03
    60    4.782075362117e-05
    61    1.295594823288e-05
    62   -5.080497393565e-04
    63   -7.423973064086e-04
    64   -6.529279355817e-05
    65    3.133288640135e-02
    66   -8.202725786755e-04
    67    8.643213900716e-03
    68    1.376001439145e-02
    69   -9.233871511780e-02
    70    1.237269748571e-03
    71    1.961356678220e-03
    72   -4.332895918786e-02
    73   -1.479604127268e-01
    74    1.991222097057e-03
    75    3.139597086372e-03
    76    4.757193573161e-02
    77   -1.087049186087e-01
    78    1.396330936678e-03
    79    2.314741408136e-03
    80   -6.185909369900e-02
    81    3.585319456511e-03
    82   -1.908366386607e-04
    83   -2.909023757375e-05
    84   -1.759052569049e-03
    85   -7.507000658570e-04
    86   -5.564540855868e-05
    87    2.880977983084e-02
    88   -7.380232159011e-04
    89   -3.320537990952e-02
    90   -4.616374890124e-02
    91   -2.888658073948e-02
    92   -6.782032545114e-02
    93   -8.167485992125e-02
    94   -1.808025560801e-02
    95   -6.749549276592e-03
    96   -1.086011057473e-02
    97   -9.193744381386e-02
    98    1.178999335379e-03
    99    2.006034865293e-03
   100    3.039300055030e-02
   101   -1.385245531130e-01
   102    1.775923223419e-03
   103    3.010320205399e-03
   104    4.684117022658e-02
   105   -1.239660011403e-01
   106    1.596845606775e-03
   107    2.745329255184e-03
   108    7.492013817926e-03
   109   -5.986803228189e-02
   110    8.932284641830e-04
   111    1.459070456436e-03
   112    2.926885856019e-03
   113    3.028767261972e-04
   114    2.484079647745e-05
   115   -7.390982575788e-03
   116    1.901211280707e-04
   117   -8.455739853333e-03
   118   -1.378688626475e-02
   119   -1.917434391344e-02
   120   -4.805395605906e-02
   121    1.811361753194e-04
   122    4.073215734372e-02
   123   -2.930490090806e-02
   124   -7.055911640471e-02
   125    2.868440928630e-04
   126    6.720373703646e-02
   127   -2.182032504764e-02
   128   -3.957735036294e-02
   129    2.531523405329e-04
   130    3.572912270974e-02
   131    1.146728892362e-02
   132    1.437832314186e-02
   133   -2.525009350396e-04
   134    2.210560645305e-03
   135   -6.162333549830e-05
   136   -2.889110316207e-06
   137    6.652750617640e-03
   138   -1.868955332615e-03
   139   -8.464270339684e-03
   140   -1.380076990734e-02
   141   -1.788441106977e-02
   142    4.858527571634e-02
   143    6.131172443649e-04
   144    4.077236248738e-02
   145   -2.741459836335e-02
   146    7.136675776827e-02
   147    9.238414609662e-04
   148    6.727931974379e-02
   149   -2.075069870124e-02
   150    4.017966682633e-02
   151    7.063756731251e-04
   152    3.557345496989e-02
   153    1.110181581993e-02
   154   -1.466121361737e-02
   155   -2.981793227106e-04
   156    2.213368554401e-03
   157   -6.079477701134e-05
   158   -6.453876966857e-05
   159    6.743569024002e-03
   160    1.513328316792e-03
   161   -4.067008626400e-03
   162   -6.524156132943e-03
   163    1.032637796668e-01
   164   -1.682583288858e-02
   165   -2.590422789126e-03
   166    1.933523592229e-02
   167    1.467735922744e-01
   168   -1.912644270625e-02
   169   -3.702759364848e-03
   170   -1.790970197851e-02
   171    9.898901170135e-02
   172   -2.265546105376e-02
   173   -2.500787145022e-03
   174    3.467446331358e-01
   175    8.091470658823e-02
   176   -1.200936258230e-02
   177   -1.932362302133e-03
   178   -6.277235518771e-04
   179   -4.250851526364e-04
   180   -1.513432762946e-06
   181    1.649910474086e-02
   182   -2.484386877216e-03
   183   -3.317863004061e-02
   184   -4.613755860788e-02
   185   -2.888335301709e-02
   186    2.073193818976e-03
   187    3.326971278582e-03
   188   -1.166215561210e-01
   189    2.226231484801e-02
   190    2.596209410683e-03
   191   -5.506753643923e-03
   192   -1.686183711344e-01
   193    4.135608582515e-02
   194    3.750238324560e-03
   195   -3.665123036150e-02
   196   -1.027846763764e-01
   197    4.139517303619e-02
   198    2.314568623982e-03
   199   -1.839074080692e-01
   200    1.459412762328e-01
   201    4.754245622185e-02
   202   -3.233641043137e-03
   203    1.726577189527e-03
   204   -2.107329602112e-04
   205   -2.574619392680e-04
   206    1.324061379584e-02
   207    7.977465507269e-03
   208   -6.780878391858e-02
   209   -8.164780850748e-02
   210   -1.808039838405e-02
   211    4.576354973058e-04
   212    1.473553537700e-03
   213   -3.909547125056e-03
   214   -5.428748631704e-03
   215    1.173624536366e-02
   216    1.001113544208e-02
   217   -1.636885923569e-02
   218   -6.198557825084e-02
   219    6.597497539378e-03
   220   -9.091451519740e-05
   221   -1.590708109202e-04
   222    5.442234267621e-02
   223   -7.498620317159e-04
   224   -1.312175099133e-03
   225   -1.414522948067e-01
   226    1.948824902212e-03
   227    3.410740179515e-03
   228   -5.553264944998e-02
   229    7.701597381864e-04
   230    1.335780534915e-03
   231    1.198206141105e-01
   232   -1.659346165910e-03
   233   -2.881799915452e-03
   234    2.686744841944e-01
   235   -3.709722745006e-03
   236   -6.479852427975e-03
   237    1.027700258155e-01
   238   -1.442755821829e-03
   239   -2.500120977760e-03
   240    6.060233165141e-03
   241    5.586443839220e-04
   242   -1.708036955477e-06
   243   -1.273243686460e-02
   244    3.341301170881e-04
   245   -1.367345942516e-04
   246   -4.726501001468e-07
   247    8.527363950463e-07
   248   -6.719600441025e-05
   249    1.967374318705e-06
   250    1.347717258890e-02
   251    7.450845249722e-03
   252   -1.142704414439e-04
   253   -1.894852645020e-04
   254   -1.017913112109e-02
   255   -9.424911471875e-04
   256    2.433183262229e-06
   257    2.165056669426e-02
   258   -5.718183372551e-04
Sym=X
Ene= -0.212892
Spin=Alpha
Occup=1
     1    1.133945804140e-05
     2    1.789467698255e-05
     3    3.012399804789e-03
     4   -3.358269010734e-04
     5    1.307698019900e-01
     6   -4.372468040114e-05
     7    4.915323802142e-03
     8   -5.508944732088e-04
     9    2.133983340848e-01
    10   -1.546669881303e-04
    11    4.235726137562e-03
    12   -4.536354327615e-04
    13    1.868049641675e-01
    14   -5.931160543328e-04
    15   -2.352270093045e-04
    16   -2.867544908777e-04
    17    1.955488278172e-02
    18   -5.591587284162e-04
    19    1.403230982193e-02
    20    5.975337555017e-04
    21    3.201515021083e-04
    22   -3.403542969469e-05
    23   -6.417936451239e-06
    24   -1.049527093725e-05
    25    3.069087050257e-03
    26   -3.907606403720e-04
    27    1.308342657518e-01
    28    2.274396850257e-05
    29    5.005423678326e-03
    30   -6.332295798048e-04
    31    2.137896744744e-01
    32    1.975575220692e-04
    33    4.280812402744e-03
    34   -5.754138782029e-04
    35    1.860236405323e-01
    36   -4.420327232376e-04
    37   -6.523953805100e-04
    38    3.842675420386e-04
    39    9.322194741670e-03
    40    5.625508217425e-04
    41   -1.403946494714e-02
    42    6.663427251797e-04
    43   -3.237534929012e-04
    44    4.462120284366e-05
    45    1.743851487246e-06
    46    2.822098504940e-06
    47   -5.061078612421e-06
    48    6.244109019372e-05
    49    4.554353516790e-05
    50   -8.016808646013e-06
    51   -9.929821237168e-06
    52    9.080513969338e-05
    53    7.863028062837e-05
    54   -1.464428490191e-05
    55   -1.429442863473e-05
    56   -3.513605558044e-05
    57    5.740522864621e-05
    58    2.643951794341e-04
    59   -1.052473606524e-05
    60    1.431012614916e-03
    61    1.940882936788e-05
    62    1.189395829644e-04
    63    3.674936685049e-04
    64    2.788437111742e-02
    65    8.704729273570e-05
    66    6.446801644515e-04
    67    2.063037386731e-06
    68    3.282371029747e-06
    69   -4.917149929094e-06
    70   -1.604823923703e-05
    71   -3.712956716386e-05
    72   -9.867428135118e-06
    73   -7.039769054450e-06
    74   -1.841786241677e-05
    75   -6.285603241028e-05
    76    3.495351783920e-06
    77   -3.043556765441e-06
    78    8.629957069830e-06
    79   -4.447945446073e-05
    80   -1.261998192992e-04
    81   -2.946960053840e-05
    82   -7.294998734803e-04
    83   -1.364750380492e-05
    84    1.171778104791e-04
    85    3.555290630455e-04
    86    2.753867438429e-02
    87    8.541890581338e-05
    88    6.252995230329e-04
    89    2.205455243380e-05
    90    2.128289568493e-05
    91    1.865560984890e-05
    92   -3.778667465132e-06
    93   -1.023907494468e-05
    94    1.729297955120e-06
    95   -3.174819208517e-07
    96   -5.300861289417e-07
    97   -1.407596683536e-06
    98    3.643764525088e-06
    99   -1.175750201043e-07
   100    2.642294190868e-06
   101   -1.564405458238e-06
   102    4.576365532105e-06
   103   -1.157184109499e-07
   104   -1.280135777659e-05
   105   -1.746310172430e-05
   106    3.461321297578e-06
   107    2.841629171471e-06
   108   -6.386429840628e-05
   109   -1.224799461386e-05
   110   -2.704306755779e-04
   111   -1.843748916508e-05
   112    5.235315290386e-06
   113    1.078278912382e-05
   114    1.258439458034e-03
   115   -1.338468677947e-06
   116    4.120343091049e-05
   117   -1.187944789368e-06
   118   -1.924547360507e-06
   119   -4.925144355810e-05
   120   -5.824526676036e-05
   121    1.410881355949e-03
   122    4.702787570482e-06
   123   -6.793751141923e-05
   124   -8.683662269303e-05
   125    2.415049741354e-03
   126    1.295626761971e-05
   127   -6.451051269231e-05
   128   -7.500837570034e-05
   129    1.925150735950e-03
   130   -1.129316048121e-04
   131   -1.560540168524e-05
   132    3.176594036302e-06
   133   -5.242987864498e-04
   134   -1.438101648157e-05
   135    3.713139264129e-04
   136    1.309354033110e-04
   137    1.514614073936e-05
   138   -1.397187605952e-06
   139   -4.330524362947e-08
   140   -1.376842890531e-08
   141    9.809649056851e-06
   142   -4.076477641853e-05
   143   -1.438357432242e-03
   144    5.946310377226e-07
   145    1.039970965183e-05
   146   -5.804986383664e-05
   147   -2.456240030495e-03
   148    4.654970123612e-06
   149    9.423527463196e-06
   150   -6.306928764970e-05
   151   -1.964892821395e-03
   152    1.748859148866e-04
   153    6.509947396996e-06
   154   -8.073792359969e-06
   155    5.269775884509e-04
   156    1.521281260960e-05
   157   -3.672352496201e-04
   158    1.426239052024e-04
   159   -1.197013089637e-05
   160    3.085180264462e-06
   161   -1.018640834512e-05
   162   -1.623110418880e-05
   163   -3.001159097185e-03
   164    3.870156003247e-04
   165   -1.308316812997e-01
   166    4.082826266779e-05
   167   -4.898082336764e-03
   168    6.280329222169e-04
   169   -2.134988437948e-01
   170    1.369223455367e-04