[Molden Format]
[Atoms] (Angs)
  C      1    6     -0.60308027      1.24884959      0.02595850
  C      2    6      0.78318760      1.23153607     -0.00621390
  C      3    6      1.43790248      0.00979129     -0.02475940
  C      4    6     -1.30034920      0.04558663      0.03879402
  H      5    1     -1.13531042      2.19180962      0.04090714
  H      6    1      1.35342608      2.15108582     -0.01688747
  N      7    7      2.91159486     -0.00948016     -0.05899691
  O      8    8      3.45893135     -1.09359226     -0.07501963
  O      9    8      3.48723719      1.05994155     -0.06906801
  C     10    6     -0.63489100     -1.17551740      0.01999630
  H     11    1     -1.19175769     -2.10420457      0.03034090
  C     12    6      0.75132891     -1.19445736     -0.01220662
  H     13    1      1.29720829     -2.12860384     -0.02748658
 Br     14   35     -3.19270661      0.07025578      0.08272467
[GTO]
1    0
S    6    1.000000
   4.56324000E+03    1.96665000E-03 
   6.82024000E+02    1.52306000E-02 
   1.54973000E+02    7.61269000E-02 
   4.44553000E+01    2.60801000E-01 
   1.30290000E+01    6.16462000E-01 
   1.82773000E+00    2.21006000E-01 
SP   3    1.000000
   2.09642000E+01    1.14660000E-01   4.02487000E-02 
   4.80331000E+00    9.19999000E-01   2.37594000E-01 
   1.45933000E+00   -3.03068000E-03   8.15854000E-01 
SP   1    1.000000
   4.83456000E-01    1.00000000E+00   1.00000000E+00 
SP   1    1.000000
   1.45585000E-01    1.00000000E+00   1.00000000E+00 
SP   1    1.000000
   4.38000000E-02    1.00000000E+00   1.00000000E+00 
D    1    1.000000
   6.26000000E-01    1.00000000E+00 

2    0
S    6    1.000000
   4.56324000E+03    1.96665000E-03 
   6.82024000E+02    1.52306000E-02 
   1.54973000E+02    7.61269000E-02 
   4.44553000E+01    2.60801000E-01 
   1.30290000E+01    6.16462000E-01 
   1.82773000E+00    2.21006000E-01 
SP   3    1.000000
   2.09642000E+01    1.14660000E-01   4.02487000E-02 
   4.80331000E+00    9.19999000E-01   2.37594000E-01 
   1.45933000E+00   -3.03068000E-03   8.15854000E-01 
SP   1    1.000000
   4.83456000E-01    1.00000000E+00   1.00000000E+00 
SP   1    1.000000
   1.45585000E-01    1.00000000E+00   1.00000000E+00 
SP   1    1.000000
   4.38000000E-02    1.00000000E+00   1.00000000E+00 
D    1    1.000000
   6.26000000E-01    1.00000000E+00 

3    0
S    6    1.000000
   4.56324000E+03    1.96665000E-03 
   6.82024000E+02    1.52306000E-02 
   1.54973000E+02    7.61269000E-02 
   4.44553000E+01    2.60801000E-01 
   1.30290000E+01    6.16462000E-01 
   1.82773000E+00    2.21006000E-01 
SP   3    1.000000
   2.09642000E+01    1.14660000E-01   4.02487000E-02 
   4.80331000E+00    9.19999000E-01   2.37594000E-01 
   1.45933000E+00   -3.03068000E-03   8.15854000E-01 
SP   1    1.000000
   4.83456000E-01    1.00000000E+00   1.00000000E+00 
SP   1    1.000000
   1.45585000E-01    1.00000000E+00   1.00000000E+00 
SP   1    1.000000
   4.38000000E-02    1.00000000E+00   1.00000000E+00 
D    1    1.000000
   6.26000000E-01    1.00000000E+00 

4    0
S    6    1.000000
   4.56324000E+03    1.96665000E-03 
   6.82024000E+02    1.52306000E-02 
   1.54973000E+02    7.61269000E-02 
   4.44553000E+01    2.60801000E-01 
   1.30290000E+01    6.16462000E-01 
   1.82773000E+00    2.21006000E-01 
SP   3    1.000000
   2.09642000E+01    1.14660000E-01   4.02487000E-02 
   4.80331000E+00    9.19999000E-01   2.37594000E-01 
   1.45933000E+00   -3.03068000E-03   8.15854000E-01 
SP   1    1.000000
   4.83456000E-01    1.00000000E+00   1.00000000E+00 
SP   1    1.000000
   1.45585000E-01    1.00000000E+00   1.00000000E+00 
SP   1    1.000000
   4.38000000E-02    1.00000000E+00   1.00000000E+00 
D    1    1.000000
   6.26000000E-01    1.00000000E+00 

5    0
S    3    1.000000
   3.38650000E+01    2.54938000E-02 
   5.09479000E+00    1.90373000E-01 
   1.15879000E+00    8.52161000E-01 
S    1    1.000000
   3.25840000E-01    1.00000000E+00 
S    1    1.000000
   1.02741000E-01    1.00000000E+00 

6    0
S    3    1.000000
   3.38650000E+01    2.54938000E-02 
   5.09479000E+00    1.90373000E-01 
   1.15879000E+00    8.52161000E-01 
S    1    1.000000
   3.25840000E-01    1.00000000E+00 
S    1    1.000000
   1.02741000E-01    1.00000000E+00 

7    0
S    6    1.000000
   6.29348000E+03    1.96979000E-03 
   9.49044000E+02    1.49613000E-02 
   2.18776000E+02    7.35006000E-02 
   6.36916000E+01    2.48937000E-01 
   1.88282000E+01    6.02460000E-01 
   2.72023000E+00    2.56202000E-01 
SP   3    1.000000
   3.06331000E+01    1.11906000E-01   3.83119000E-02 
   7.02614000E+00    9.21666000E-01   2.37403000E-01 
   2.11205000E+00   -2.56919000E-03   8.17592000E-01 
SP   1    1.000000
   6.84009000E-01    1.00000000E+00   1.00000000E+00 
SP   1    1.000000
   2.00878000E-01    1.00000000E+00   1.00000000E+00 
SP   1    1.000000
   6.39000000E-02    1.00000000E+00   1.00000000E+00 
D    1    1.000000
   9.13000000E-01    1.00000000E+00 

8    0
S    6    1.000000
   8.58850000E+03    1.89515000E-03 
   1.29723000E+03    1.43859000E-02 
   2.99296000E+02    7.07320000E-02 
   8.73771000E+01    2.40001000E-01 
   2.56789000E+01    5.94797000E-01 
   3.74004000E+00    2.80802000E-01 
SP   3    1.000000
   4.21175000E+01    1.13889000E-01   3.65114000E-02 
   9.62837000E+00    9.20811000E-01   2.37153000E-01 
   2.85332000E+00   -3.27447000E-03   8.19702000E-01 
SP   1    1.000000
   9.05661000E-01    1.00000000E+00   1.00000000E+00 
SP   1    1.000000
   2.55611000E-01    1.00000000E+00   1.00000000E+00 
SP   1    1.000000
   8.45000000E-02    1.00000000E+00   1.00000000E+00 
D    1    1.000000
   1.29200000E+00    1.00000000E+00 

9    0
S    6    1.000000
   8.58850000E+03    1.89515000E-03 
   1.29723000E+03    1.43859000E-02 
   2.99296000E+02    7.07320000E-02 
   8.73771000E+01    2.40001000E-01 
   2.56789000E+01    5.94797000E-01 
   3.74004000E+00    2.80802000E-01 
SP   3    1.000000
   4.21175000E+01    1.13889000E-01   3.65114000E-02 
   9.62837000E+00    9.20811000E-01   2.37153000E-01 
   2.85332000E+00   -3.27447000E-03   8.19702000E-01 
SP   1    1.000000
   9.05661000E-01    1.00000000E+00   1.00000000E+00 
SP   1    1.000000
   2.55611000E-01    1.00000000E+00   1.00000000E+00 
SP   1    1.000000
   8.45000000E-02    1.00000000E+00   1.00000000E+00 
D    1    1.000000
   1.29200000E+00    1.00000000E+00 

10    0
S    6    1.000000
   4.56324000E+03    1.96665000E-03 
   6.82024000E+02    1.52306000E-02 
   1.54973000E+02    7.61269000E-02 
   4.44553000E+01    2.60801000E-01 
   1.30290000E+01    6.16462000E-01 
   1.82773000E+00    2.21006000E-01 
SP   3    1.000000
   2.09642000E+01    1.14660000E-01   4.02487000E-02 
   4.80331000E+00    9.19999000E-01   2.37594000E-01 
   1.45933000E+00   -3.03068000E-03   8.15854000E-01 
SP   1    1.000000
   4.83456000E-01    1.00000000E+00   1.00000000E+00 
SP   1    1.000000
   1.45585000E-01    1.00000000E+00   1.00000000E+00 
SP   1    1.000000
   4.38000000E-02    1.00000000E+00   1.00000000E+00 
D    1    1.000000
   6.26000000E-01    1.00000000E+00 

11    0
S    3    1.000000
   3.38650000E+01    2.54938000E-02 
   5.09479000E+00    1.90373000E-01 
   1.15879000E+00    8.52161000E-01 
S    1    1.000000
   3.25840000E-01    1.00000000E+00 
S    1    1.000000
   1.02741000E-01    1.00000000E+00 

12    0
S    6    1.000000
   4.56324000E+03    1.96665000E-03 
   6.82024000E+02    1.52306000E-02 
   1.54973000E+02    7.61269000E-02 
   4.44553000E+01    2.60801000E-01 
   1.30290000E+01    6.16462000E-01 
   1.82773000E+00    2.21006000E-01 
SP   3    1.000000
   2.09642000E+01    1.14660000E-01   4.02487000E-02 
   4.80331000E+00    9.19999000E-01   2.37594000E-01 
   1.45933000E+00   -3.03068000E-03   8.15854000E-01 
SP   1    1.000000
   4.83456000E-01    1.00000000E+00   1.00000000E+00 
SP   1    1.000000
   1.45585000E-01    1.00000000E+00   1.00000000E+00 
SP   1    1.000000
   4.38000000E-02    1.00000000E+00   1.00000000E+00 
D    1    1.000000
   6.26000000E-01    1.00000000E+00 

13    0
S    3    1.000000
   3.38650000E+01    2.54938000E-02 
   5.09479000E+00    1.90373000E-01 
   1.15879000E+00    8.52161000E-01 
S    1    1.000000
   3.25840000E-01    1.00000000E+00 
S    1    1.000000
   1.02741000E-01    1.00000000E+00 

14    0
S    6    1.000000
   4.39700000E+05    8.13000000E-04 
   6.60300000E+04    6.28500000E-03 
   1.51400000E+04    3.19200000E-02 
   4.31700000E+03    1.28800000E-01 
   1.41400000E+03    3.94600000E-01 
   5.23900000E+02    5.41300000E-01 
S    3    1.000000
   5.23900000E+02    1.83100000E-01 
   2.07700000E+02    6.17600000E-01 
   8.65400000E+01    2.53800000E-01 
S    1    1.000000
   3.05200000E+01    1.00000000E+00 
S    1    1.000000
   1.29800000E+01    1.00000000E+00 
S    1    1.000000
   4.41200000E+00    1.00000000E+00 
S    1    1.000000
   1.86200000E+00    1.00000000E+00 
S    1    1.000000
   3.93200000E-01    1.00000000E+00 
S    1    1.000000
   1.40000000E-01    1.00000000E+00 
P    3    1.000000
   2.95700000E+03    2.22600000E-02 
   7.00300000E+02    1.80200000E-01 
   2.24600000E+02    8.62400000E-01 
P    3    1.000000
   8.25900000E+01    3.44000000E-01 
   3.31900000E+01    5.07100000E-01 
   1.42000000E+01    2.59000000E-01 
P    3    1.000000
   1.42000000E+01    7.96500000E-02 
   7.43800000E+00    3.73400000E-01 
   3.52600000E+00    6.04900000E-01 
P    1    1.000000
   1.59500000E+00    1.00000000E+00 
P    1    1.000000
   8.46200000E-01    1.00000000E+00 
P    1    1.000000
   3.18600000E-01    1.00000000E+00 
P    1    1.000000
   1.09600000E-01    1.00000000E+00 
D    4    1.000000
   1.34800000E+02    1.83100000E-02 
   3.63900000E+01    1.35000000E-01 
   1.21600000E+01    4.26100000E-01 
   4.34100000E+00    6.04300000E-01 
D    1    1.000000
   1.53500000E+00    1.00000000E+00 
SP   1    1.000000
   3.90000000E-02    1.00000000E+00   1.00000000E+00 
D    1    1.000000
   4.15000000E-01    1.00000000E+00 

[MO]
Sym=X
Ene= -0.107899
Spin=Alpha
Occup=1
     1   -1.162413417704e-05
     2   -1.823711683386e-05
     3   -2.060344997031e-04
     4    5.726972343229e-05
     5   -1.258407226793e-02
     6    4.965969939983e-05
     7   -3.812553998373e-04
     8    7.771981376816e-05
     9   -2.118483467852e-02
    10    1.125747597259e-04
    11    5.849235296246e-05
    12    1.431334595042e-04
    13   -9.258104532499e-03
    14   -2.657558496279e-04
    15    8.793938597192e-04
    16    1.180498520587e-03
    17   -2.661140026889e-02
    18   -5.219200790628e-04
    19    1.373271549623e-02
    20    5.912404953643e-03
    21    3.263438580461e-04
    22    8.390423671683e-05
    23    2.309033291083e-05
    24    3.782020371140e-05
    25    1.525137586183e-03
    26   -2.658940929320e-04
    27    7.006319623714e-02
    28   -1.138131157404e-04
    29    2.473825488302e-03
    30   -4.282704215645e-04
    31    1.138079212896e-01
    32   -1.051683157361e-04
    33    2.016972398920e-03
    34   -4.955657525643e-04
    35    8.236828964356e-02
    36    7.526692115252e-04
    37    2.104131032829e-03
    38   -1.282105605840e-03
    39    1.319002207014e-02
    40   -3.583590903124e-04
    41    7.519868017200e-03
    42   -1.165132343532e-02
    43    1.705951487366e-04
    44   -3.098984336095e-04
    45   -6.172189637787e-07
    46   -1.219408169036e-06
    47    2.800810703645e-03
    48   -3.125657225194e-04
    49    1.193269771120e-01
    50    3.651398193666e-06
    51    4.575715354244e-03
    52   -5.337228521393e-04
    53    1.949612411778e-01
    54    6.613079186592e-05
    55    4.002961562522e-03
    56   -7.302655048566e-04
    57    1.675183875484e-01
    58   -1.504783298431e-03
    59    5.437082734719e-04
    60   -1.656277474491e-03
    61    1.468551920885e-02
    62    2.368579700604e-04
    63   -6.023221710225e-03
    64   -6.336264506163e-04
    65   -1.376804554534e-04
    66   -1.991256931700e-06
    67   -3.474466468950e-06
    68   -5.508895076873e-06
    69   -1.894567440286e-03
    70    1.250770087514e-04
    71   -8.479192347559e-02
    72    1.812813818282e-05
    73   -3.106981330527e-03
    74    2.162921948924e-04
    75   -1.388142327699e-01
    76   -3.179650375741e-05
    77   -3.078160927353e-03
    78    4.360511908829e-04
    79   -1.318302491668e-01
    80    2.661644318654e-03
    81    4.594881609188e-04
    82    1.297449443052e-03
    83    2.771961727915e-02
    84   -6.249191197726e-04
    85    1.536947201639e-02
    86   -9.718230619352e-04
    87    3.505060914996e-04
    88   -7.860235117004e-05
    89    4.079211416530e-06
    90    2.199445605955e-05
    91   -1.193167764700e-05
    92   -1.097108405602e-04
    93   -1.206931008695e-04
    94    4.334941878930e-05
    95   -3.781140660167e-06
    96   -6.176231631312e-06
    97   -4.936943674102e-04
    98   -1.275849262745e-05
    99   -2.070668369984e-02
   100    1.973641354433e-05
   101   -7.600128590863e-04
   102   -3.860642915024e-05
   103   -3.181345297122e-02
   104    3.936944449063e-06
   105   -6.018883288687e-04
   106    4.082799621712e-04
   107   -2.789282597131e-02
   108   -1.159072148718e-04
   109   -8.968158203938e-04
   110   -1.974295127108e-04
   111   -3.983647605885e-02
   112    6.310953956864e-04
   113   -1.554556561293e-02
   114    8.447552458304e-04
   115   -3.451328918604e-04
   116   -6.186001539143e-05
   117    1.723827825476e-07
   118    5.256720671220e-07
   119   -5.366036307147e-04
   120    5.634990593618e-04
   121   -4.401839008580e-02
   122    3.014766746354e-06
   123   -8.033777347370e-04
   124    8.287611601356e-04
   125   -6.587999467121e-02
   126    1.538943595352e-04
   127   -7.262357045345e-04
   128    7.932254179032e-04
   129   -5.903003100062e-02
   130   -2.650577507319e-04
   131    2.296295509031e-04
   132   -7.206834380584e-05
   133    7.008912552963e-03
   134   -8.415166812542e-05
   135    1.500024256964e-03
   136   -4.322853274217e-03
   137   -1.990623628225e-05
   138   -8.970113214166e-05
   139    5.017414952788e-06
   140    7.808038080767e-06
   141   -1.266367423825e-03
   142    5.317035404000e-04
   143   -3.875093275001e-02
   144   -3.006559379661e-05
   145   -1.898613248326e-03
   146    7.807870318152e-04
   147   -5.804111745475e-02
   148   -1.966160815384e-04
   149   -1.684398155247e-03
   150    7.631900221941e-04
   151   -5.156009741861e-02
   152    2.734873977134e-04
   153    1.417585847851e-04
   154   -8.043539918035e-05
   155    7.911505180489e-03
   156   -3.393254368072e-05
   157    1.398805401332e-03
   158    3.932312506579e-03
   159    8.198554620052e-05
   160    9.607653912283e-05
   161   -3.901518884179e-06
   162   -6.515272626451e-06
   163   -2.164129473268e-04
   164    9.697630416381e-05
   165   -5.202829990750e-03
   166    2.400678670757e-05
   167   -3.582493940894e-04
   168    1.446101792093e-04
   169   -9.177965083414e-03
   170   -1.113178394775e-04
   171   -1.504333181415e-04
   172    1.884074784625e-04
   173    1.473590982031e-03
   174   -2.719038082775e-03
   175   -1.899522181985e-03
   176    4.407006755987e-04
   177   -2.518888164074e-02
   178   -6.063696625896e-04
   179    1.435726369002e-02
   180   -6.320384579612e-03
   181    3.066820969779e-04
   182   -2.023594553771e-04
   183   -2.247194446713e-05
   184   -5.749782510542e-06
   185   -2.086324847039e-06
   186   -2.755586413982e-06
   187   -5.224984883224e-06
   188    1.883662507661e-03
   189   -2.945099760934e-04
   190    7.732473080716e-02
   191    1.594041889213e-05
   192    3.071423714597e-03
   193   -4.747072369551e-04
   194    1.257635403588e-01
   195    3.531531884042e-05
   196    1.942481959974e-03
   197   -4.624310453336e-04
   198    9.246908142157e-02
   199    1.824063110552e-03
   200   -1.583065226273e-03
   201   -5.431629519434e-04
   202    1.337505587498e-02
   203   -2.250966071363e-04
   204    6.993519861453e-03
   205    1.144620413000e-02
   206    1.775393496638e-04
   207    2.301661491869e-04
   208    8.684509713445e-05
   209    1.304696574766e-04
   210   -2.369280878600e-05
   211   -2.347563965976e-06
   212   -7.635747886437e-06
   213    2.097682085363e-05
   214    2.394175889659e-05
   215   -4.611957798935e-05
   216   -7.337946422676e-05
   217    1.898375366213e-04
   218   -1.589700140266e-04
   219   -2.254441150456e-04
   220    3.527229054927e-05
   221   -9.533989817242e-03
   222   -1.861031061901e-03
   223    2.911064684301e-04
   224   -7.869586164441e-02
   225    4.855204476165e-03
   226   -7.593867956827e-04
   227    2.052796799816e-01
   228    1.787825287532e-03
   229   -2.848919796112e-04
   230    7.603750564925e-02
   231   -3.894487267774e-03
   232    6.220523896614e-04
   233   -1.656536855212e-01
   234   -9.487343055891e-03
   235    1.473667993495e-03
   236   -3.999088970616e-01
   237   -5.252456385819e-03
   238    8.576635619701e-04
   239   -2.217040438471e-01
   240   -4.783529893265e-04
   241    1.193348070918e-02
   242   -1.056015743990e-04
   243    2.848662594055e-04
   244   -3.180800264756e-05
   245   -8.521068956086e-05
   246    1.932244362015e-03
   247   -1.003676912110e-05
   248    4.655052244006e-05
   249   -5.287784280747e-06
   250   -4.940623194524e-04
   251   -2.952370261237e-04
   252    2.099859118848e-05
   253   -7.358042114581e-03
   254    1.079021183091e-03
   255   -2.657377234830e-02
   256    2.250995433767e-04
   257   -6.413520646774e-04
   258    7.327484281599e-05
Sym=X
Ene= -0.115183
Spin=Alpha
Occup=1
     1    1.491570765420e-05
     2    2.456645832811e-05
     3   -7.849921727856e-04
     4    1.551126347413e-04
     5   -3.085971388124e-02
     6   -8.602520693025e-05
     7   -1.293921077247e-03
     8    2.432240832500e-04
     9   -5.181638823947e-02
    10    2.614926583123e-04
    11   -7.499844837445e-04
    12    3.058766909411e-04
    13   -3.665519089998e-02
    14    1.966269065960e-03
    15    6.028673013319e-04
    16   -2.047185604417e-06
    17    6.886719913804e-03
    18    1.316691087351e-04
    19   -3.420494809687e-03
    20   -1.557568244047e-04
    21   -9.338244673560e-05
    22   -3.480637508269e-05
    23   -2.376962023802e-06
    24   -2.036832404020e-06
    25   -7.449242196493e-04
    26   -1.206832551746e-04
    27   -3.477028901781e-02
    28   -7.313967259113e-06
    29   -1.174011226273e-03
    30   -1.699103342723e-04
    31   -5.301687315275e-02
    32   -1.289934166377e-04
    33   -8.462094949982e-04
    34   -1.854715397344e-04
    35   -5.968586906366e-02
    36    1.485882638726e-03
    37    7.587026964366e-04
    38   -5.392588563389e-04
    39   -2.025828835319e-02
    40   -7.513538372850e-05
    41    1.773059395172e-03
    42   -6.792161330558e-04
    43    2.322725051271e-05
    44   -1.829516434677e-05
    45    7.238456666271e-05
    46    1.198606002314e-04
    47   -4.981341590779e-04
    48    4.598431875469e-05
    49    4.376803201748e-04
    50   -3.528602269968e-04
    51   -8.456835116260e-04
    52    5.299731037098e-05
    53    7.124073746455e-04
    54   -1.512490210762e-03
    55   -1.041455074546e-03
    56   -3.612911723383e-05
    57    6.165825625019e-04
    58   -1.079942309833e-03
    59    5.717537724785e-04
    60   -1.993966763674e-03
    61    2.530381933610e-05
    62   -4.371295936928e-05
    63   -1.849774807521e-04
    64   -1.232442274849e-02
    65   -1.263106386630e-04
    66   -2.941409704813e-04
    67    1.245354968950e-05
    68    2.000106122027e-05
    69    4.424550407546e-05
    70   -9.663549668248e-05
    71   -2.831053178590e-04
    72   -5.660392802271e-05
    73    7.781737430133e-05
    74   -1.489887393761e-04
    75   -4.641710529882e-04
    76   -1.255650307853e-04
    77    3.205021272497e-05
    78    7.099641321116e-05
    79   -4.552679108681e-04
    80   -9.324328477281e-04
    81    3.638471165859e-04
    82    1.712200451281e-04
    83    1.257486110173e-04
    84   -3.386526832128e-05
    85   -1.299592080380e-05
    86   -6.766970642243e-03
    87   -5.526683641824e-05
    88   -1.857292189300e-04
    89    9.856180837344e-05
    90    1.241116451192e-04
    91    5.742074410897e-05
    92   -7.208953264028e-05
    93   -8.300861099412e-05
    94    2.490576205271e-06
    95    2.154009351054e-05
    96    3.597707183253e-05
    97    3.208881079911e-04
    98   -6.387486391646e-05
    99   -8.090925406901e-05
   100   -1.071178566326e-04
   101    5.179036837979e-04
   102   -1.058074872079e-04
   103   -1.244476133024e-04
   104   -1.486499531806e-04
   105   -3.347899456781e-04
   106    1.153004910949e-04
   107   -9.455132897205e-05
   108   -3.818382993134e-04
   109   -9.255513308969e-04
   110    9.027210649050e-05
   111   -1.344263094701e-04
   112   -2.902383068234e-04
   113   -7.734899794372e-04
   114   -5.486594318956e-02
   115   -4.663735897311e-04
   116   -1.327493277712e-03
   117   -3.401713474452e-06
   118   -4.953067232120e-06
   119    4.103767717008e-03
   120   -5.233110132130e-04
   121    2.085882226150e-01
   122    3.269591011412e-05
   123    6.114924799014e-03
   124   -7.904678364185e-04
   125    3.096163925740e-01
   126    1.862269346732e-04
   127    5.872319542264e-03
   128   -7.231805267807e-04
   129    2.960394672978e-01
   130    4.361566900211e-04
   131    8.933963099155e-04
   132   -1.159365986587e-06
   133    3.788730007764e-02
   134    4.323980445292e-04
   135   -9.170881486733e-03
   136    1.399986118603e-02
   137   -1.601300969078e-04
   138    3.166219088645e-04
   139   -1.096376232613e-05
   140   -1.762905755349e-05
   141   -5.959218572514e-03
   142    9.842343049181e-04
   143   -2.088275947322e-01
   144    6.270833582524e-05
   145   -8.831513181031e-03
   146    1.464153161731e-03
   147   -3.099747453580e-01
   148    1.371716585883e-04
   149   -8.391241178652e-03
   150    1.360356891045e-03
   151   -2.963619881669e-01
   152    4.092329468566e-04
   153   -8.811564889767e-04
   154    1.765734702029e-06
   155   -3.781677648102e-02
   156   -3.159631017509e-04
   157    9.545385275818e-03
   158    1.378150962743e-02
   159    3.148350094769e-04
   160    3.335340903616e-04
   161    2.389035172090e-06
   162    4.064471375433e-06
   163    4.752442610870e-04
   164   -5.775236284148e-05
   165    3.089285783415e-02
   166   -1.961710631488e-05
   167    8.507821343410e-04
   168   -1.222614590427e-04
   169    5.186257587945e-02
   170    3.778156078554e-04
   171    6.784311915263e-04
   172   -5.490307294983e-05
   173    3.677371616731e-02
   174   -9.968933369728e-04
   175   -7.995044489435e-04
   176    5.202444439950e-04
   177   -7.102690439218e-03
   178   -1.451181356692e-04
   179    3.520275541544e-03
   180   -2.835463996468e-04
   181    5.966365661775e-05
   182    1.667058034086e-06
   183    9.639931803435e-05
   184    1.168380603129e-04
   185    8.655057031073e-05
   186    8.156610500722e-06
   187    1.330214582805e-05
   188    1.022543446511e-03
   189   -2.361057892940e-05
   190    3.533278820309e-02
   191   -4.470995265007e-05
   192    1.539822010915e-03
   193   -4.555756109029e-05
   194    5.393138574219e-02
   195   -8.958954447356e-05
   196    1.879743957474e-03
   197   -1.341076568254e-04
   198    6.032579932607e-02
   199   -1.032462946286e-03
   200   -8.182932838387e-04
   201   -8.232839613280e-04
   202    2.037599330581e-02
   203    6.631029062776e-05
   204   -1.747972990056e-03
   205   -5.499039593774e-04
   206   -8.423601106703e-05
   207   -3.740497109964e-05
   208    7.599133228234e-05
   209    1.044745743146e-04
   210    1.285209531448e-05
   211   -5.201621796966e-07
   212   -1.663404232641e-06
   213    4.297069379166e-06
   214    6.563576170516e-06
   215   -1.456802714166e-05
   216   -7.480372781213e-06
   217   -7.594171115971e-07
   218    1.005398970226e-04
   219   -6.545427370548e-06
   220    1.831319342594e-05
   221   -4.439478304253e-05
   222   -5.398983023844e-05
   223    1.511573676161e-04
   224   -3.664623792034e-04
   225    1.403484945125e-04
   226   -3.947560818691e-04
   227    9.563672955354e-04
   228    5.539700000927e-05
   229   -1.491694944905e-04
   230    3.546467807320e-04
   231   -1.193912573471e-04
   232    3.287965004033e-04
   233   -7.748127184380e-04
   234   -2.707993601222e-04
   235    7.661194526674e-04
   236   -1.866464417286e-03
   237   -9.923411731465e-05
   238    4.849907171313e-04
   239   -1.063840365511e-03
   240   -5.042315161472e-06
   241    4.844904366059e-05
   242    2.734957678795e-04
   243    1.500082775617e-05
   244    6.652329631239e-06
   245    7.019741908476e-07
   246    9.100017879738e-06
   247    9.215719546799e-05
   248    8.020556268312e-07
   249    2.575445449883e-06
   250    4.027202238449e-04
   251    1.046735532470e-04
   252    2.695714018356e-05
   253   -4.185295776143e-05
   254    6.107843156160e-06
   255   -1.146326751231e-04
   256   -9.276006730686e-04
   257   -2.812866004162e-05
   258   -1.440622120096e-05
Sym=X
Ene= -0.388419
Spin=Alpha
Occup=1
     1    1.741102301468e-06
     2    3.086443185769e-06
     3   -1.849995751160e-03
     4    2.591045464398e-04
     5   -8.040284578301e-02
     6   -1.635984670079e-05
     7   -3.000323828849e-03
     8    4.129117857625e-04
     9   -1.301935088993e-01
    10    9.013992089060e-05
    11   -2.867530609941e-03
    12    3.430408719087e-04
    13   -1.243598817402e-01
    14    1.529277816009e-03
    15   -7.700656172385e-05
    16   -3.399603315482e-04
    17    1.180939132747e-03
    18   -3.318195446078e-04
    19    9.593566986684e-03
    20    1.129089452276e-02
    21    2.538553406475e-04
    22    2.244449293096e-04
    23   -3.607006443677e-06
    24   -5.527934980034e-06
    25    8.533853160321e-04
    26   -1.704968418591e-04
    27    3.692009889066e-02
    28    1.906729444348e-05
    29    1.411890388086e-03
    30   -2.700093902396e-04
    31    6.095838227941e-02
    32    1.642628634216e-06
    33    1.181442035718e-03
    34   -2.394276008034e-04
    35    5.079394495772e-02
    36   -9.331890533290e-04
    37   -1.953567900710e-05
    38    2.084893027514e-04
    39   -6.877872252983e-04
    40   -7.045430527934e-04
    41    1.628873680971e-02
    42   -1.089645198596e-02
    43    3.529616252206e-04
    44   -3.127427262074e-04
    45   -1.771071996936e-06
    46   -2.873088135624e-06
    47    2.739430914503e-03
    48   -2.502919385487e-04
    49    1.176637644616e-01
    50    5.366200040899e-06
    51    4.496103821221e-03
    52   -4.262985103208e-04
    53    1.934738796512e-01
    54    1.234119980240e-04
    55    4.366208838681e-03
    56   -5.458944376229e-04
    57    1.843319789694e-01
    58    7.618179117738e-04
    59    4.295364068761e-04
    60    9.472608878487e-05
    61    2.429468565762e-02
    62   -4.790704778582e-05
    63    1.116507251632e-03
    64   -1.319953231155e-04
    65    2.364954147538e-05
    66   -1.808365559226e-05
    67    5.675839091895e-08
    68    4.858536399181e-08
    69   -2.581613936851e-03
    70    2.480714060032e-04
    71   -1.113435429029e-01
    72    8.276640945008e-06
    73   -4.168594542930e-03
    74    4.136676851774e-04
    75   -1.801752470757e-01
    76   -1.518580881216e-04
    77   -3.462655979453e-03
    78    3.562487498508e-04
    79   -1.480415079378e-01
    80   -1.491228308595e-03
    81   -8.350963246484e-04
    82   -2.600787430998e-04
    83   -2.981022225987e-02
    84    8.396295462459e-04
    85   -2.080062627392e-02
    86    1.486475717989e-04
    87   -4.886968266912e-04
    88    5.766272607029e-05
    89    2.494477878859e-05
    90    4.219494921770e-05
    91    3.096252852401e-05
    92   -5.254359507211e-05
    93   -6.381684474343e-05
    94   -6.113566969174e-06
    95    1.815935252306e-07
    96    1.677734760575e-07
    97   -6.213886757015e-05
    98   -4.197620317376e-05
    99   -2.651680782245e-03
   100    2.843141663449e-06
   101   -8.837783462819e-05
   102   -7.005810935509e-05
   103   -3.675612211592e-03
   104   -5.016171166719e-05
   105   -4.500361072811e-05
   106    3.591559498110e-05
   107   -3.608495558914e-03
   108   -1.869019384023e-04
   109   -5.442075976795e-04
   110    9.125959055381e-05
   111   -2.638144364062e-02
   112    6.404424955212e-04
   113   -1.588433187152e-02
   114    2.369752480801e-04
   115   -3.636382655394e-04
   116    3.505016563519e-05
   117    7.159314643342e-06
   118    1.172361010697e-05
   119   -9.077322043236e-04
   120    1.894793481063e-04
   121   -3.967479795029e-02
   122   -3.469451008167e-05
   123   -1.352319277592e-03
   124    2.798027014523e-04
   125   -5.911625044812e-02
   126   -2.622418303314e-05
   127   -1.311742373567e-03
   128    2.563486035794e-04
   129   -5.730037297553e-02
   130    3.040735372632e-05
   131    3.061623434430e-07
   132    4.504744392353e-06
   133    4.169246496967e-04
   134   -4.813653058048e-05
   135    7.418908350668e-04
   136   -3.029473976557e-03
   137    3.771613993927e-06
   138   -7.510241142081e-05
   139   -6.706216121917e-06
   140   -1.102963618716e-05
   141   -8.957189162970e-04
   142    1.807121290540e-04
   143   -3.939219298996e-02
   144    3.149308938966e-05
   145   -1.335630628501e-03
   146    2.657544090322e-04
   147   -5.869443842635e-02
   148    2.565892514290e-05
   149   -1.304586328501e-03
   150    2.465936533223e-04
   151   -5.689706079011e-02
   152    2.939130117549e-05
   153   -1.341479022366e-06
   154    6.056777244477e-07
   155    4.504795092060e-04
   156   -1.444629419457e-05
   157    8.126422683958e-04
   158    2.989919985837e-03
   159    3.065423786517e-05
   160    6.325111723247e-05
   161    1.820609188496e-06
   162    3.000221725967e-06
   163   -1.855906992111e-03
   164    2.615730155309e-04
   165   -7.922874633824e-02
   166   -1.192119197272e-05
   167   -2.998069444873e-03
   168    4.137141598207e-04
   169   -1.282792547671e-01
   170    6.407487389388e-06