[Molden Format]
[Atoms] (Angs)
  C      1    6     -0.60308027      1.24884959      0.02595850
  C      2    6      0.78318760      1.23153607     -0.00621390
  C      3    6      1.43790248      0.00979129     -0.02475940
  C      4    6     -1.30034920      0.04558663      0.03879402
  H      5    1     -1.13531042      2.19180962      0.04090714
  H      6    1      1.35342608      2.15108582     -0.01688747
  N      7    7      2.91159486     -0.00948016     -0.05899691
  O      8    8      3.45893135     -1.09359226     -0.07501963
  O      9    8      3.48723719      1.05994155     -0.06906801
  C     10    6     -0.63489100     -1.17551740      0.01999630
  H     11    1     -1.19175769     -2.10420457      0.03034090
  C     12    6      0.75132891     -1.19445736     -0.01220662
  H     13    1      1.29720829     -2.12860384     -0.02748658
 Br     14   35     -3.19270661      0.07025578      0.08272467
[GTO]
1    0
S    6    1.000000
   4.56324000E+03    1.96665000E-03 
   6.82024000E+02    1.52306000E-02 
   1.54973000E+02    7.61269000E-02 
   4.44553000E+01    2.60801000E-01 
   1.30290000E+01    6.16462000E-01 
   1.82773000E+00    2.21006000E-01 
SP   3    1.000000
   2.09642000E+01    1.14660000E-01   4.02487000E-02 
   4.80331000E+00    9.19999000E-01   2.37594000E-01 
   1.45933000E+00   -3.03068000E-03   8.15854000E-01 
SP   1    1.000000
   4.83456000E-01    1.00000000E+00   1.00000000E+00 
SP   1    1.000000
   1.45585000E-01    1.00000000E+00   1.00000000E+00 
SP   1    1.000000
   4.38000000E-02    1.00000000E+00   1.00000000E+00 
D    1    1.000000
   6.26000000E-01    1.00000000E+00 

2    0
S    6    1.000000
   4.56324000E+03    1.96665000E-03 
   6.82024000E+02    1.52306000E-02 
   1.54973000E+02    7.61269000E-02 
   4.44553000E+01    2.60801000E-01 
   1.30290000E+01    6.16462000E-01 
   1.82773000E+00    2.21006000E-01 
SP   3    1.000000
   2.09642000E+01    1.14660000E-01   4.02487000E-02 
   4.80331000E+00    9.19999000E-01   2.37594000E-01 
   1.45933000E+00   -3.03068000E-03   8.15854000E-01 
SP   1    1.000000
   4.83456000E-01    1.00000000E+00   1.00000000E+00 
SP   1    1.000000
   1.45585000E-01    1.00000000E+00   1.00000000E+00 
SP   1    1.000000
   4.38000000E-02    1.00000000E+00   1.00000000E+00 
D    1    1.000000
   6.26000000E-01    1.00000000E+00 

3    0
S    6    1.000000
   4.56324000E+03    1.96665000E-03 
   6.82024000E+02    1.52306000E-02 
   1.54973000E+02    7.61269000E-02 
   4.44553000E+01    2.60801000E-01 
   1.30290000E+01    6.16462000E-01 
   1.82773000E+00    2.21006000E-01 
SP   3    1.000000
   2.09642000E+01    1.14660000E-01   4.02487000E-02 
   4.80331000E+00    9.19999000E-01   2.37594000E-01 
   1.45933000E+00   -3.03068000E-03   8.15854000E-01 
SP   1    1.000000
   4.83456000E-01    1.00000000E+00   1.00000000E+00 
SP   1    1.000000
   1.45585000E-01    1.00000000E+00   1.00000000E+00 
SP   1    1.000000
   4.38000000E-02    1.00000000E+00   1.00000000E+00 
D    1    1.000000
   6.26000000E-01    1.00000000E+00 

4    0
S    6    1.000000
   4.56324000E+03    1.96665000E-03 
   6.82024000E+02    1.52306000E-02 
   1.54973000E+02    7.61269000E-02 
   4.44553000E+01    2.60801000E-01 
   1.30290000E+01    6.16462000E-01 
   1.82773000E+00    2.21006000E-01 
SP   3    1.000000
   2.09642000E+01    1.14660000E-01   4.02487000E-02 
   4.80331000E+00    9.19999000E-01   2.37594000E-01 
   1.45933000E+00   -3.03068000E-03   8.15854000E-01 
SP   1    1.000000
   4.83456000E-01    1.00000000E+00   1.00000000E+00 
SP   1    1.000000
   1.45585000E-01    1.00000000E+00   1.00000000E+00 
SP   1    1.000000
   4.38000000E-02    1.00000000E+00   1.00000000E+00 
D    1    1.000000
   6.26000000E-01    1.00000000E+00 

5    0
S    3    1.000000
   3.38650000E+01    2.54938000E-02 
   5.09479000E+00    1.90373000E-01 
   1.15879000E+00    8.52161000E-01 
S    1    1.000000
   3.25840000E-01    1.00000000E+00 
S    1    1.000000
   1.02741000E-01    1.00000000E+00 

6    0
S    3    1.000000
   3.38650000E+01    2.54938000E-02 
   5.09479000E+00    1.90373000E-01 
   1.15879000E+00    8.52161000E-01 
S    1    1.000000
   3.25840000E-01    1.00000000E+00 
S    1    1.000000
   1.02741000E-01    1.00000000E+00 

7    0
S    6    1.000000
   6.29348000E+03    1.96979000E-03 
   9.49044000E+02    1.49613000E-02 
   2.18776000E+02    7.35006000E-02 
   6.36916000E+01    2.48937000E-01 
   1.88282000E+01    6.02460000E-01 
   2.72023000E+00    2.56202000E-01 
SP   3    1.000000
   3.06331000E+01    1.11906000E-01   3.83119000E-02 
   7.02614000E+00    9.21666000E-01   2.37403000E-01 
   2.11205000E+00   -2.56919000E-03   8.17592000E-01 
SP   1    1.000000
   6.84009000E-01    1.00000000E+00   1.00000000E+00 
SP   1    1.000000
   2.00878000E-01    1.00000000E+00   1.00000000E+00 
SP   1    1.000000
   6.39000000E-02    1.00000000E+00   1.00000000E+00 
D    1    1.000000
   9.13000000E-01    1.00000000E+00 

8    0
S    6    1.000000
   8.58850000E+03    1.89515000E-03 
   1.29723000E+03    1.43859000E-02 
   2.99296000E+02    7.07320000E-02 
   8.73771000E+01    2.40001000E-01 
   2.56789000E+01    5.94797000E-01 
   3.74004000E+00    2.80802000E-01 
SP   3    1.000000
   4.21175000E+01    1.13889000E-01   3.65114000E-02 
   9.62837000E+00    9.20811000E-01   2.37153000E-01 
   2.85332000E+00   -3.27447000E-03   8.19702000E-01 
SP   1    1.000000
   9.05661000E-01    1.00000000E+00   1.00000000E+00 
SP   1    1.000000
   2.55611000E-01    1.00000000E+00   1.00000000E+00 
SP   1    1.000000
   8.45000000E-02    1.00000000E+00   1.00000000E+00 
D    1    1.000000
   1.29200000E+00    1.00000000E+00 

9    0
S    6    1.000000
   8.58850000E+03    1.89515000E-03 
   1.29723000E+03    1.43859000E-02 
   2.99296000E+02    7.07320000E-02 
   8.73771000E+01    2.40001000E-01 
   2.56789000E+01    5.94797000E-01 
   3.74004000E+00    2.80802000E-01 
SP   3    1.000000
   4.21175000E+01    1.13889000E-01   3.65114000E-02 
   9.62837000E+00    9.20811000E-01   2.37153000E-01 
   2.85332000E+00   -3.27447000E-03   8.19702000E-01 
SP   1    1.000000
   9.05661000E-01    1.00000000E+00   1.00000000E+00 
SP   1    1.000000
   2.55611000E-01    1.00000000E+00   1.00000000E+00 
SP   1    1.000000
   8.45000000E-02    1.00000000E+00   1.00000000E+00 
D    1    1.000000
   1.29200000E+00    1.00000000E+00 

10    0
S    6    1.000000
   4.56324000E+03    1.96665000E-03 
   6.82024000E+02    1.52306000E-02 
   1.54973000E+02    7.61269000E-02 
   4.44553000E+01    2.60801000E-01 
   1.30290000E+01    6.16462000E-01 
   1.82773000E+00    2.21006000E-01 
SP   3    1.000000
   2.09642000E+01    1.14660000E-01   4.02487000E-02 
   4.80331000E+00    9.19999000E-01   2.37594000E-01 
   1.45933000E+00   -3.03068000E-03   8.15854000E-01 
SP   1    1.000000
   4.83456000E-01    1.00000000E+00   1.00000000E+00 
SP   1    1.000000
   1.45585000E-01    1.00000000E+00   1.00000000E+00 
SP   1    1.000000
   4.38000000E-02    1.00000000E+00   1.00000000E+00 
D    1    1.000000
   6.26000000E-01    1.00000000E+00 

11    0
S    3    1.000000
   3.38650000E+01    2.54938000E-02 
   5.09479000E+00    1.90373000E-01 
   1.15879000E+00    8.52161000E-01 
S    1    1.000000
   3.25840000E-01    1.00000000E+00 
S    1    1.000000
   1.02741000E-01    1.00000000E+00 

12    0
S    6    1.000000
   4.56324000E+03    1.96665000E-03 
   6.82024000E+02    1.52306000E-02 
   1.54973000E+02    7.61269000E-02 
   4.44553000E+01    2.60801000E-01 
   1.30290000E+01    6.16462000E-01 
   1.82773000E+00    2.21006000E-01 
SP   3    1.000000
   2.09642000E+01    1.14660000E-01   4.02487000E-02 
   4.80331000E+00    9.19999000E-01   2.37594000E-01 
   1.45933000E+00   -3.03068000E-03   8.15854000E-01 
SP   1    1.000000
   4.83456000E-01    1.00000000E+00   1.00000000E+00 
SP   1    1.000000
   1.45585000E-01    1.00000000E+00   1.00000000E+00 
SP   1    1.000000
   4.38000000E-02    1.00000000E+00   1.00000000E+00 
D    1    1.000000
   6.26000000E-01    1.00000000E+00 

13    0
S    3    1.000000
   3.38650000E+01    2.54938000E-02 
   5.09479000E+00    1.90373000E-01 
   1.15879000E+00    8.52161000E-01 
S    1    1.000000
   3.25840000E-01    1.00000000E+00 
S    1    1.000000
   1.02741000E-01    1.00000000E+00 

14    0
S    6    1.000000
   4.39700000E+05    8.13000000E-04 
   6.60300000E+04    6.28500000E-03 
   1.51400000E+04    3.19200000E-02 
   4.31700000E+03    1.28800000E-01 
   1.41400000E+03    3.94600000E-01 
   5.23900000E+02    5.41300000E-01 
S    3    1.000000
   5.23900000E+02    1.83100000E-01 
   2.07700000E+02    6.17600000E-01 
   8.65400000E+01    2.53800000E-01 
S    1    1.000000
   3.05200000E+01    1.00000000E+00 
S    1    1.000000
   1.29800000E+01    1.00000000E+00 
S    1    1.000000
   4.41200000E+00    1.00000000E+00 
S    1    1.000000
   1.86200000E+00    1.00000000E+00 
S    1    1.000000
   3.93200000E-01    1.00000000E+00 
S    1    1.000000
   1.40000000E-01    1.00000000E+00 
P    3    1.000000
   2.95700000E+03    2.22600000E-02 
   7.00300000E+02    1.80200000E-01 
   2.24600000E+02    8.62400000E-01 
P    3    1.000000
   8.25900000E+01    3.44000000E-01 
   3.31900000E+01    5.07100000E-01 
   1.42000000E+01    2.59000000E-01 
P    3    1.000000
   1.42000000E+01    7.96500000E-02 
   7.43800000E+00    3.73400000E-01 
   3.52600000E+00    6.04900000E-01 
P    1    1.000000
   1.59500000E+00    1.00000000E+00 
P    1    1.000000
   8.46200000E-01    1.00000000E+00 
P    1    1.000000
   3.18600000E-01    1.00000000E+00 
P    1    1.000000
   1.09600000E-01    1.00000000E+00 
D    4    1.000000
   1.34800000E+02    1.83100000E-02 
   3.63900000E+01    1.35000000E-01 
   1.21600000E+01    4.26100000E-01 
   4.34100000E+00    6.04300000E-01 
D    1    1.000000
   1.53500000E+00    1.00000000E+00 
SP   1    1.000000
   3.90000000E-02    1.00000000E+00   1.00000000E+00 
D    1    1.000000
   4.15000000E-01    1.00000000E+00 

[MO]
Sym=X
Ene= -0.254398
Spin=Alpha
Occup=1
     1   -2.544419967255e-03
     2   -4.121631673395e-03
     3    4.428090953852e-03
     4   -1.112940038452e-02
     5    1.666092859573e-04
     6    1.339790660033e-02
     7    6.118253590144e-03
     8   -1.682989766976e-02
     9    1.301701648222e-04
    10   -3.671921558620e-02
    11   -9.506644061645e-03
    12   -2.428396245786e-02
    13    2.788819512548e-03
    14   -1.269858462545e-01
    15    2.924967505134e-02
    16    6.014924355316e-02
    17   -6.051609413583e-03
    18    7.055889486377e-04
    19    2.760217161965e-03
    20    8.132846857007e-04
    21   -1.622871426660e-03
    22    5.241200449479e-03
    23    2.383212300684e-03
    24    3.552881771540e-03
    25    3.761935957540e-04
    26    3.449521505424e-02
    27    1.428757658435e-02
    28   -8.467726399792e-03
    29    3.254079761291e-03
    30    5.152323943283e-02
    31    2.312063990121e-02
    32    9.455465600946e-03
    33   -6.306359857537e-02
    34    4.888340559902e-02
    35    1.824992101029e-02
    36    2.640444964557e-02
    37    2.329032796008e-02
    38   -4.169314398963e-02
    39    2.193449006403e-03
    40   -7.714573539871e-05
    41    9.288235312201e-04
    42   -2.072318409802e-03
    43    3.993343890018e-03
    44   -2.052115207997e-03
    45   -1.766856009625e-02
    46   -2.919782684258e-02
    47    1.043970035666e-01
    48   -1.870356594788e-03
    49    1.903754070035e-02
    50    8.649711999843e-02
    51    1.777858688792e-01
    52   -3.081083638232e-03
    53    3.089950624695e-02
    54    3.131936366078e-01
    55    2.039271246913e-01
    56   -3.225170044912e-03
    57    2.480492801595e-02
    58    4.841811597727e-02
    59   -1.233940033844e-01
    60   -8.391738334346e-04
    61    5.150575205726e-03
    62   -1.911979692221e-03
    63   -1.616437224326e-03
    64   -5.440520547838e-06
    65    1.205027596487e-02
    66   -2.627773655682e-04
    67   -5.765905725646e-03
    68   -9.156934371931e-03
    69    1.958693183060e-02
    70    6.267933028683e-05
    71   -1.521471497931e-02
    72    2.699252060021e-02
    73    2.980352745714e-02
    74    4.769028643421e-05
    75   -2.491697824487e-02
    76    5.671179533444e-03
    77    2.043829933903e-02
    78    2.686215130992e-04
    79   -2.407156594545e-02
    80    2.555025651748e-01
    81   -6.517660404638e-02
    82    1.775834018116e-03
    83    8.319375831714e-03
    84    6.544839168558e-04
    85    3.895578035826e-03
    86   -5.362204710160e-05
    87   -8.587298185568e-04
    88    1.644267946144e-05
    89   -1.088309493621e-02
    90   -1.269322249199e-02
    91   -5.701159787624e-03
    92    1.233465115304e-02
    93    1.248961959606e-02
    94    3.681627716958e-04
    95   -1.980892705501e-03
    96   -3.366845955775e-03
    97   -5.996312372931e-02
    98    7.908240454687e-04
    99   -2.531968007635e-03
   100    8.062975374188e-03
   101   -9.813017467078e-02
   102    1.276513269723e-03
   103   -3.743594093989e-03
   104    2.922248220629e-02
   105    7.653571896241e-02
   106   -7.093901482487e-04
   107   -7.137156933560e-03
   108    1.367172798201e-01
   109    1.970796540017e-01
   110   -2.864917946924e-03
   111   -1.207312714104e-02
   112    5.629035621299e-03
   113   -3.891973770450e-03
   114   -1.279042289629e-04
   115    5.826129047784e-02
   116   -1.626084699817e-03
   117    1.271064566761e-03
   118    2.006004814428e-03
   119    1.937197250080e-01
   120    2.209407033858e-02
   121   -1.173861348763e-02
   122   -9.103915834352e-03
   123    2.836165206881e-01
   124    3.470325196801e-02
   125   -1.742344505408e-02
   126   -3.187694801760e-02
   127    2.625903028655e-01
   128    2.428996340364e-02
   129   -1.572130287852e-02
   130   -1.091472309130e-01
   131    1.313354703178e-04
   132   -2.689607705543e-02
   133    1.441062625147e-03
   134    1.642312389691e-03
   135    4.960270664940e-04
   136   -9.452734711469e-04
   137   -6.312677992909e-03
   138    8.906967159725e-03
   139    1.301820811550e-03
   140    2.055806064428e-03
   141    1.919793750219e-01
   142   -2.630664384594e-02
   143   -1.179868249561e-02
   144   -9.267336980395e-03
   145    2.809761830287e-01
   146   -4.086555668646e-02
   147   -1.752272921221e-02
   148   -3.232622820607e-02
   149    2.603827926426e-01
   150   -2.989617355887e-02
   151   -1.576631559370e-02
   152   -1.084834533700e-01
   153    6.511671642812e-04
   154    2.674917594170e-02
   155    1.595196682766e-03
   156    1.645004224365e-03
   157    4.679609108395e-04
   158    9.485456474383e-04
   159   -6.678615270760e-03
   160   -8.527243609735e-03
   161   -2.553830965576e-03
   162   -4.138015660613e-03
   163    4.483765624405e-03
   164    1.041414694039e-02
   165    2.420726166366e-04
   166    1.342352111809e-02
   167    6.168817146005e-03
   168    1.575741233684e-02
   169    2.481793400638e-04
   170   -3.627436832114e-02
   171   -9.319693551803e-03
   172    2.399988764267e-02
   173    2.936922804983e-03
   174   -1.312386731141e-01
   175    2.490344910803e-02
   176   -5.953525020466e-02
   177   -6.290608758785e-03
   178    6.908113517979e-04
   179    2.715549902260e-03
   180   -8.866237096623e-04
   181   -1.950566828543e-03
   182   -4.997036310718e-03
   183   -1.027521301242e-02
   184   -1.186708997109e-02
   185   -5.384695199216e-03
   186    2.354657451632e-03
   187    3.506772490913e-03
   188   -2.283986144731e-04
   189   -3.391117014202e-02
   190    1.413270000546e-02
   191   -8.301109052809e-03
   192    2.339684277050e-03
   193   -5.075298050842e-02
   194    2.288905997457e-02
   195    9.311395203660e-03
   196   -6.440635460381e-02
   197   -4.675968701801e-02
   198    1.805608126083e-02
   199    2.555209292957e-02
   200    1.991966436262e-02
   201    3.897039970338e-02
   202    2.509277738552e-03
   203   -4.994651716323e-05
   204    9.924754513606e-04
   205    2.023546461195e-03
   206    4.107484055193e-03
   207    1.996025100757e-03
   208    1.191649720675e-02
   209    1.190388066907e-02
   210    8.707728114902e-05
   211   -2.901339896191e-04
   212   -9.407635409564e-04
   213    2.556322786136e-03
   214    3.081978819502e-03
   215   -6.081124807742e-03
   216   -8.236139796007e-03
   217    1.733989802414e-02
   218    5.799798677405e-03
   219   -9.562151450506e-04
   220    4.215183539546e-05
   221   -2.274282450899e-03
   222   -7.888973020908e-03
   223    3.478474726880e-04
   224   -1.877308685591e-02
   225    2.048203878176e-02
   226   -9.062332239919e-04
   227    4.898751360413e-02
   228    7.747836191346e-03
   229   -3.414726202878e-04
   230    1.816747939690e-02
   231   -1.656937714353e-02
   232    7.415494282997e-04
   233   -3.968083977643e-02
   234   -3.826574060329e-02
   235    1.742379249489e-03
   236   -9.558133289000e-02
   237   -1.540410600845e-02
   238    9.042890712377e-04
   239   -5.455266400475e-02
   240   -9.321877899785e-04
   241    1.968666529867e-03
   242   -2.491357815199e-05
   243    1.484424714099e-03
   244   -6.204465009777e-05
   245   -2.019183774307e-05
   246    2.894977703767e-04
   247   -2.704355837977e-06
   248    1.944584004817e-05
   249   -2.909292761946e-06
   250   -7.426415174545e-02
   251   -2.031813299490e-02
   252    3.243545345021e-04
   253   -1.601183837080e-03
   254    2.283357099472e-03
   255   -5.234851272706e-03
   256    6.064571767505e-05
   257   -2.337720003085e-03
   258    1.131526051610e-04
Sym=X
Ene= -0.254965
Spin=Alpha
Occup=1
     1    5.814049670625e-04
     2    9.407775350107e-04
     3   -8.201148587682e-04
     4    2.594863838268e-03
     5    8.087128926792e-04
     6   -3.035282443440e-03
     7   -1.140529573806e-03
     8    3.896857324181e-03
     9    5.286183454172e-04
    10    7.533499299149e-03
    11    2.474542351484e-03
    12    5.566859626413e-03
    13    1.147618510339e-02
    14    2.803846309549e-02
    15   -8.178292716243e-03
    16   -1.338935341379e-02
    17   -2.555490156651e-02
    18   -6.490441689365e-04
    19    1.227285997461e-02
    20    4.406716825871e-03
    21    6.643190029621e-04
    22   -1.095981557027e-03
    23   -5.377925983616e-04
    24   -8.033809828019e-04
    25    1.422067324699e-03
    26   -7.737573946256e-03
    27    6.479003576164e-02
    28    1.918098118496e-03
    29    1.740060235459e-03
    30   -1.157541767048e-02
    31    1.051746303355e-01
    32   -1.763998268727e-03
    33    1.543385320713e-02
    34   -1.108714336571e-02
    35    7.577686742470e-02
    36   -4.562709414559e-03
    37   -5.488660818304e-03
    38    9.218346884367e-03
    39    1.342853103995e-02
    40   -2.351115523135e-04
    41    4.799281621148e-03
    42   -9.641836132039e-03
    43   -7.679533973385e-04
    44    1.679910890760e-04
    45    3.827704499653e-03
    46    6.325851117912e-03
    47   -2.028769698123e-02
    48    1.590494233688e-04
    49    9.865723045259e-02
    50   -1.874295312548e-02
    51   -3.471766915007e-02
    52    2.498883429998e-04
    53    1.610729081981e-01
    54   -6.796468507124e-02
    55   -4.092440431618e-02
    56    1.501941389450e-04
    57    1.361913674368e-01
    58   -1.184910481411e-02
    59    2.728450560092e-02
    60    1.094823701579e-03
    61    9.765059473372e-03
    62    6.549755611126e-04
    63   -5.640497994934e-03
    64    8.582151214702e-05
    65   -2.767905151995e-03
    66    6.056753513193e-05
    67    1.263891906244e-03
    68    2.006734705317e-03
    69   -5.914689314966e-03
    70   -6.092323067894e-05
    71   -6.862809223226e-02
    72   -5.908014658376e-03
    73   -9.197414010942e-03
    74   -5.418836845245e-05
    75   -1.126365627044e-01
    76   -1.252867788949e-03
    77   -7.162855482802e-03
    78    3.924319759646e-04
    79   -1.094390676668e-01
    80   -5.251520973519e-02
    81    1.480854852240e-02
    82   -2.791695674915e-03
    83    3.122534343325e-02
    84   -8.885408873047e-04
    85    1.765479646632e-02
    86   -2.299865179296e-04
    87    6.054590756994e-04
    88   -1.410731399670e-04
    89    2.433160964468e-03
    90    2.870822106182e-03
    91    1.215517388898e-03
    92   -2.748949750676e-03
    93   -2.796103678541e-03
    94   -7.243747112291e-05
    95    4.303865888746e-04
    96    7.315548740423e-04
    97    1.260995707869e-02
    98   -1.289509115184e-04
    99   -1.826060914714e-02
   100   -1.751524546201e-03
   101    2.067599222898e-02
   102   -2.171290351651e-04
   103   -2.806741115565e-02
   104   -6.372155521222e-03
   105   -1.715230603624e-02
   106    3.555262970971e-04
   107   -2.410377986814e-02
   108   -2.982703471573e-02
   109   -4.361347922392e-02
   110    6.998154164405e-04
   111   -3.332759161236e-02
   112   -6.908715280884e-04
   113   -1.236303742275e-02
   114    2.739517111680e-04
   115   -1.295072238746e-02
   116    3.759599741086e-04
   117   -2.689448788492e-04
   118   -4.239515452196e-04
   119   -4.280026217350e-02
   120   -4.596516671082e-03
   121   -3.268584854873e-02
   122    1.940274044315e-03
   123   -6.268650645205e-02
   124   -7.237967584189e-03
   125   -4.898118638454e-02
   126    6.941371104199e-03
   127   -5.800800267879e-02
   128   -4.997044852649e-03
   129   -4.336500549127e-02
   130    2.369678306485e-02
   131    1.641873150295e-04
   132    5.815938581953e-03
   133    6.963022469710e-03
   134   -4.266826002741e-04
   135    1.125563551199e-03
   136   -3.397794393093e-03
   137    1.379778282125e-03
   138   -2.018571922379e-03
   139   -2.807979491407e-04
   140   -4.435016633725e-04
   141   -4.253841281491e-02
   142    5.873805514096e-03
   143   -3.210572825431e-02
   144    2.004471379668e-03
   145   -6.228638087330e-02
   146    9.112732090311e-03
   147   -4.811759556014e-02
   148    6.939563401520e-03
   149   -5.766470387115e-02
   150    6.737234371063e-03
   151   -4.255065353498e-02
   152    2.359122233048e-02
   153    2.081532292528e-05
   154   -5.840070670023e-03
   155    7.030557136488e-03
   156   -3.908286349548e-04
   157    1.200665891651e-03
   158    3.326145047309e-03
   159    1.494801736130e-03
   160    1.930486475432e-03
   161    5.127557099255e-04
   162    8.316316460486e-04
   163   -1.145748979210e-03
   164   -2.148738192373e-03
   165    8.398503863456e-04
   166   -2.725046816435e-03
   167   -1.626635365773e-03
   168   -3.273583977204e-03
   169    5.743280254126e-04
   170    8.347603223253e-03
   171    2.197621644021e-03
   172   -4.972581130484e-03
   173    1.152754034691e-02
   174    2.436505986340e-02
   175   -4.807985858904e-03
   176    1.172610396977e-02
   177   -2.555813491566e-02
   178   -6.846752932826e-04
   179    1.216099746357e-02
   180   -4.723424313965e-03
   181    6.933236259593e-04
   182    9.164634367747e-04
   183    2.250386182721e-03
   184    2.600988138098e-03
   185    1.200410846916e-03
   186   -5.018861200895e-04
   187   -7.467431475140e-04
   188    1.768874255523e-03
   189    7.082088640246e-03
   190    6.484062182414e-02
   191    1.757917236540e-03
   192    2.269449008879e-03
   193    1.057247758571e-02
   194    1.052601761005e-01
   195   -2.236100577237e-03
   196    1.593716295414e-02
   197    9.725217418580e-03
   198    7.582990239831e-02
   199   -3.968498742648e-03
   200   -3.434001592413e-03
   201   -7.689628032305e-03
   202    1.330872661019e-02
   203   -1.539697165555e-04
   204    5.041191280601e-03
   205    9.519833146451e-03
   206   -7.561274688393e-04
   207   -2.417239825566e-04
   208   -2.463726554922e-03
   209   -2.413342769085e-03
   210    5.137977206004e-07
   211    6.262888078385e-05
   212    2.030354595342e-04
   213   -5.513356381200e-04
   214   -6.668074273113e-04
   215    1.317460652352e-03
   216    1.766920110442e-03
   217   -3.668989745544e-03
   218   -1.508414106014e-03
   219   -5.136259134949e-05
   220    6.562295820885e-05
   221   -1.060690692634e-02
   222   -4.250388314721e-04
   223    5.416339501346e-04
   224   -8.755430522297e-02
   225    1.132279834748e-03
   226   -1.413905827541e-03
   227    2.284559642854e-01
   228    3.754202806748e-04
   229   -5.314020551784e-04
   230    8.473986244545e-02
   231   -8.960500373745e-04
   232    1.166673995623e-03
   233   -1.850381267934e-01
   234   -2.606517554338e-03
   235    2.751021231398e-03
   236   -4.455497135639e-01
   237   -2.884116716009e-03
   238    1.716393939446e-03
   239   -2.534514621600e-01
   240   -1.902973767309e-04
   241    9.479311864390e-03
   242   -1.235785727942e-04
   243   -8.700038861984e-05
   244   -1.792244691662e-05
   245   -6.100116914912e-05
   246    1.350937598278e-03
   247   -1.329241438808e-05
   248    3.107356924760e-05
   249   -2.963042837255e-06
   250    1.567025633505e-02
   251    4.068351861897e-03
   252    4.296427909216e-05
   253   -9.711064757339e-03
   254    5.564880776887e-04
   255   -2.490320046689e-02
   256    3.104063985303e-04
   257   -1.140153500158e-04
   258    7.281070280953e-05
Sym=X
Ene= -0.373198
Spin=Alpha
Occup=1
     1   -5.040578466084e-06
     2   -7.885216555782e-06
     3   -1.883005561701e-03
     4    2.129413436533e-04
     5   -8.030319687132e-02
     6    1.619318933315e-05
     7   -3.053253806148e-03
     8    3.497223940784e-04
     9   -1.301349210100e-01
    10    1.654724007207e-04
    11   -2.845791490913e-03
    12    2.586175124463e-04
    13   -1.229075732310e-01
    14    7.189851264840e-04
    15    2.825018616648e-04
    16   -6.472610057069e-07
    17   -2.421512762164e-03
    18   -4.071077743989e-04
    19    1.155724824007e-02
    20    1.201426553404e-02
    21    3.035894341667e-04
    22    2.509178365036e-04
    23    1.191517157731e-06
    24    1.942498122326e-06
    25    1.117666987843e-03
    26   -1.280743668420e-04
    27    4.757234626489e-02
    28   -3.635359549141e-06
    29    1.843243659189e-03
    30   -2.116416055344e-04
    31    7.827139264568e-02
    32   -2.825078802381e-05
    33    1.505334849214e-03
    34   -1.782911462286e-04
    35    6.346898857531e-02
    36   -5.328200826329e-04
    37    3.408796795028e-04
    38   -6.525315991604e-05
    39    1.196285060452e-03
    40   -7.447640343400e-04
    41    1.708372828960e-02
    42   -1.245185135545e-02
    43    3.606201401957e-04
    44   -3.333719107076e-04
    45    6.468401230135e-07
    46    1.227787312114e-06
    47    3.081481396261e-03
    48   -3.757692007554e-04
    49    1.335859872501e-01
    50   -7.813043407879e-06
    51    5.053806670480e-03
    52   -6.131543249281e-04
    53    2.194828554587e-01
    54    5.462393659579e-05
    55    4.843479292751e-03
    56   -6.346041376826e-04
    57    2.063352413646e-01
    58    6.093527858234e-04
    59    5.273563568884e-04
    60   -4.336197412069e-04
    61    2.621209341573e-02
    62   -1.458738920261e-05
    63    2.988041347749e-04
    64   -1.591794054504e-05
    65    6.592886661595e-07
    66    9.556754848823e-07
    67   -3.358005678166e-06
    68   -5.576880186536e-06
    69   -2.853877305802e-03
    70    3.605885337447e-04
    71   -1.221841017176e-01
    72    2.386773816191e-05
    73   -4.615694790727e-03
    74    5.838024177471e-04
    75   -1.979460396869e-01
    76   -1.182513197669e-04
    77   -3.894438879430e-03
    78    4.096342408683e-04
    79   -1.651620654020e-01
    80   -1.234635827090e-03
    81   -7.232233016671e-04
    82    5.041336314733e-04
    83   -2.560967484014e-02
    84    7.426463956484e-04
    85   -1.840825177949e-02
    86    2.237995391788e-04
    87   -4.275910446028e-04
    88    7.327258602063e-05
    89    2.302833936290e-06
    90    8.846130299842e-06
    91    2.189677295424e-05
    92    9.844067887902e-06
    93    2.165249712382e-05
    94    1.248528038480e-05
    95   -3.607564288471e-07
    96   -6.832120665201e-07
    97   -9.185148733112e-05
    98    8.517588419544e-06
    99   -4.820222447750e-03
   100    6.707339047868e-06
   101   -1.319199294995e-04
   102    9.219441394677e-06
   103   -6.969658209567e-03
   104   -5.352158228828e-05
   105   -1.217494179986e-04
   106    5.551222705802e-05
   107   -6.699798153542e-03
   108   -2.486944163055e-04
   109   -7.139530468314e-04
   110    1.131660984433e-04
   111   -3.176973879196e-02
   112    7.197521403575e-04
   113   -1.788883676737e-02
   114    2.414805394697e-04
   115   -4.217978756683e-04
   116    5.127541506224e-05
   117    1.447104012766e-06
   118    2.349348540331e-06
   119   -1.046823806232e-03
   120    1.639086651693e-04
   121   -4.462380432716e-02
   122   -6.067098170722e-06
   123   -1.559632023750e-03
   124    2.436250657860e-04
   125   -6.651555924641e-02
   126    1.470846890461e-05
   127   -1.508021168914e-03
   128    2.321104414279e-04
   129   -6.400015503139e-02
   130    6.000657201737e-05
   131    2.449562595224e-05
   132    6.571405861250e-06
   133    1.480483124300e-03
   134   -5.519000804685e-05
   135    8.942050892909e-04
   136   -3.514345461806e-03
   137    7.932877444326e-06
   138   -8.565456657171e-05
   139    3.383231842517e-06
   140    5.517802046476e-06
   141   -1.074495563215e-03
   142    1.544650594906e-04
   143   -4.455305755561e-02
   144   -1.717631117535e-05
   145   -1.600398060952e-03
   146    2.296922069107e-04
   147   -6.641082507327e-02
   148   -3.120488667068e-05
   149   -1.539017201521e-03
   150    2.267070577824e-04
   151   -6.389720876677e-02
   152    5.687176628466e-05
   153    2.556047318228e-05
   154   -1.244756460492e-05
   155    1.481289053274e-03
   156   -2.163867228393e-05
   157    9.838506494974e-04
   158    3.484888038974e-03
   159    3.573976877513e-05
   160    7.932038254171e-05
   161    1.654471772913e-05
   162    2.645449280032e-05
   163   -1.834969064955e-03
   164    2.148738801149e-04
   165   -8.014467038479e-02
   166   -7.811441396287e-05
   167   -2.973067858589e-03
   168    3.536297690941e-04
   169   -1.298764942060e-01
   170   -9.954047138340e-05