 Entering Gaussian System, Link 0=g16
 Initial command:
 /software/gaussian/g16-c01/sse4/g16/l1.exe "/local_scratch/24657412/Gau-6561.inp" -scrdir="/local_scratch/24657412/"
 Entering Link 1 = /software/gaussian/g16-c01/sse4/g16/l1.exe PID=      6572.
  
 Copyright (c) 1988-2019, Gaussian, Inc.  All Rights Reserved.
  
 This is part of the Gaussian(R) 16 program.  It is based on
 the Gaussian(R) 09 system (copyright 2009, Gaussian, Inc.),
 the Gaussian(R) 03 system (copyright 2003, Gaussian, Inc.),
 the Gaussian(R) 98 system (copyright 1998, Gaussian, Inc.),
 the Gaussian(R) 94 system (copyright 1995, Gaussian, Inc.),
 the Gaussian 92(TM) system (copyright 1992, Gaussian, Inc.),
 the Gaussian 90(TM) system (copyright 1990, Gaussian, Inc.),
 the Gaussian 88(TM) system (copyright 1988, Gaussian, Inc.),
 the Gaussian 86(TM) system (copyright 1986, Carnegie Mellon
 University), and the Gaussian 82(TM) system (copyright 1983,
 Carnegie Mellon University). Gaussian is a federally registered
 trademark of Gaussian, Inc.
  
 This software contains proprietary and confidential information,
 including trade secrets, belonging to Gaussian, Inc.
  
 This software is provided under written license and may be
 used, copied, transmitted, or stored only in accord with that
 written license.
  
 The following legend is applicable only to US Government
 contracts under FAR:
  
                    RESTRICTED RIGHTS LEGEND
  
 Use, reproduction and disclosure by the US Government is
 subject to restrictions as set forth in subparagraphs (a)
 and (c) of the Commercial Computer Software - Restricted
 Rights clause in FAR 52.227-19.
  
 Gaussian, Inc.
 340 Quinnipiac St., Bldg. 40, Wallingford CT 06492
  
  
 ---------------------------------------------------------------
 Warning -- This program may not be used in any manner that
 competes with the business of Gaussian, Inc. or will provide
 assistance to any competitor of Gaussian, Inc.  The licensee
 of this program is prohibited from giving any competitor of
 Gaussian, Inc. access to this program.  By using this program,
 the user acknowledges that Gaussian, Inc. is engaged in the
 business of creating and licensing software in the field of
 computational chemistry and represents and warrants to the
 licensee that it is not a competitor of Gaussian, Inc. and that
 it will not use this program in any manner prohibited above.
 ---------------------------------------------------------------
  

 Cite this work as:
 Gaussian 16, Revision C.01,
 M. J. Frisch, G. W. Trucks, H. B. Schlegel, G. E. Scuseria, 
 M. A. Robb, J. R. Cheeseman, G. Scalmani, V. Barone, 
 G. A. Petersson, H. Nakatsuji, X. Li, M. Caricato, A. V. Marenich, 
 J. Bloino, B. G. Janesko, R. Gomperts, B. Mennucci, H. P. Hratchian, 
 J. V. Ortiz, A. F. Izmaylov, J. L. Sonnenberg, D. Williams-Young, 
 F. Ding, F. Lipparini, F. Egidi, J. Goings, B. Peng, A. Petrone, 
 T. Henderson, D. Ranasinghe, V. G. Zakrzewski, J. Gao, N. Rega, 
 G. Zheng, W. Liang, M. Hada, M. Ehara, K. Toyota, R. Fukuda, 
 J. Hasegawa, M. Ishida, T. Nakajima, Y. Honda, O. Kitao, H. Nakai, 
 T. Vreven, K. Throssell, J. A. Montgomery, Jr., J. E. Peralta, 
 F. Ogliaro, M. J. Bearpark, J. J. Heyd, E. N. Brothers, K. N. Kudin, 
 V. N. Staroverov, T. A. Keith, R. Kobayashi, J. Normand, 
 K. Raghavachari, A. P. Rendell, J. C. Burant, S. S. Iyengar, 
 J. Tomasi, M. Cossi, J. M. Millam, M. Klene, C. Adamo, R. Cammi, 
 J. W. Ochterski, R. L. Martin, K. Morokuma, O. Farkas, 
 J. B. Foresman, and D. J. Fox, Gaussian, Inc., Wallingford CT, 2019.
 
 ******************************************
 Gaussian 16:  ES64L-G16RevC.01  3-Jul-2019
                 1-May-2024 
 ******************************************
 %chk=geometry.chk
 %mem=9GB
 %nprocshared=12
 Will use up to   12 processors via shared memory.
 ----------------------------------------
 #P wB97XD/6-311+G* NoSymm #P Field=X-282
 ----------------------------------------
 1/38=1,172=1/1;
 2/12=2,15=1,17=6,18=5,40=1/2;
 3/5=4,6=6,7=11,11=2,14=1,15=-282,25=1,30=1,74=-58/1,2,3;
 4//1;
 5/5=2,38=5/2;
 6/7=2,8=2,9=2,10=2,28=1/1;
 99/5=1,9=1/99;
 Leave Link    1 at Wed May  1 14:27:44 2024, MaxMem=  1207959552 cpu:               1.8 elap:               1.9
 (Enter /software/gaussian/g16-c01/sse4/g16/l101.exe)
 -------
 TitleMe
 -------
 Symbolic Z-matrix:
 Charge =  1 Multiplicity = 1
 C                     0.0295    1.3397    0.0682 
 C                     1.4348    1.2867    0.0064 
 C                     2.1118    0.0511   -0.0054 
 C                     1.4451   -1.1372    0.0312 
 C                    -0.6879    0.1682    0.11 
 H                    -0.4713    2.2984    0.0781 
 H                     2.0273    2.1965   -0.0322 
 H                     1.9897   -2.0764    0.0232 
 H                    -1.7716    0.1804    0.1582 
 N                     3.5864    0.051    -0.0675 
 O                     4.1471   -1.0597   -0.0881 
 O                     4.145     1.1639   -0.0901 
 C                    -0.0236   -1.1458    0.0835 
 H                    -0.4367   -1.8725    0.7889 
 Br                   -0.5359   -1.8697   -1.7408 
 
 ITRead=  0  0  0  0  0  0  0  0  0  0  0  0  0  0  0
 MicOpt= -1 -1 -1 -1 -1 -1 -1 -1 -1 -1 -1 -1 -1 -1 -1
 NAtoms=     15 NQM=       15 NQMF=       0 NMMI=      0 NMMIF=      0
                NMic=       0 NMicF=      0.
                    Isotopes and Nuclear Properties:
 (Nuclear quadrupole moments (NQMom) in fm**2, nuclear magnetic moments (NMagM)
  in nuclear magnetons)

  Atom         1           2           3           4           5           6           7           8           9          10
 IAtWgt=          12          12          12          12          12           1           1           1           1          14
 AtmWgt=  12.0000000  12.0000000  12.0000000  12.0000000  12.0000000   1.0078250   1.0078250   1.0078250   1.0078250  14.0030740
 NucSpn=           0           0           0           0           0           1           1           1           1           2
 AtZEff=  -0.0000000  -0.0000000  -0.0000000  -0.0000000  -0.0000000  -0.0000000  -0.0000000  -0.0000000  -0.0000000  -0.0000000
 NQMom=    0.0000000   0.0000000   0.0000000   0.0000000   0.0000000   0.0000000   0.0000000   0.0000000   0.0000000   2.0440000
 NMagM=    0.0000000   0.0000000   0.0000000   0.0000000   0.0000000   2.7928460   2.7928460   2.7928460   2.7928460   0.4037610
 AtZNuc=   6.0000000   6.0000000   6.0000000   6.0000000   6.0000000   1.0000000   1.0000000   1.0000000   1.0000000   7.0000000

  Atom        11          12          13          14          15
 IAtWgt=          16          16          12           1          79
 AtmWgt=  15.9949146  15.9949146  12.0000000   1.0078250  78.9183361
 NucSpn=           0           0           0           1           3
 AtZEff=  -0.0000000  -0.0000000  -0.0000000  -0.0000000  -0.0000000
 NQMom=    0.0000000   0.0000000   0.0000000   0.0000000  31.3000000
 NMagM=    0.0000000   0.0000000   0.0000000   2.7928460   2.1063990
 AtZNuc=   8.0000000   8.0000000   6.0000000   1.0000000  35.0000000
 Leave Link  101 at Wed May  1 14:27:46 2024, MaxMem=  1207959552 cpu:               1.4 elap:               1.4
 (Enter /software/gaussian/g16-c01/sse4/g16/l202.exe)
                          Input orientation:                          
 ---------------------------------------------------------------------
 Center     Atomic      Atomic             Coordinates (Angstroms)
 Number     Number       Type             X           Y           Z
 ---------------------------------------------------------------------
      1          6           0        0.029500    1.339700    0.068200
      2          6           0        1.434800    1.286700    0.006400
      3          6           0        2.111800    0.051100   -0.005400
      4          6           0        1.445100   -1.137200    0.031200
      5          6           0       -0.687900    0.168200    0.110000
      6          1           0       -0.471300    2.298400    0.078100
      7          1           0        2.027300    2.196500   -0.032200
      8          1           0        1.989700   -2.076400    0.023200
      9          1           0       -1.771600    0.180400    0.158200
     10          7           0        3.586400    0.051000   -0.067500
     11          8           0        4.147100   -1.059700   -0.088100
     12          8           0        4.145000    1.163900   -0.090100
     13          6           0       -0.023600   -1.145800    0.083500
     14          1           0       -0.436700   -1.872500    0.788900
     15         35           0       -0.535900   -1.869700   -1.740800
 ---------------------------------------------------------------------
                    Distance matrix (angstroms):
                    1          2          3          4          5
     1  C    0.000000
     2  C    1.407656   0.000000
     3  C    2.449874   1.408963   0.000000
     4  C    2.853126   2.424049   1.363043   0.000000
     5  C    1.374344   2.401589   2.804523   2.501993   0.000000
     6  H    1.081667   2.159142   3.424870   3.934226   2.141421
     7  H    2.176095   1.086408   2.147231   3.384750   3.392128
     8  H    3.938800   3.408612   2.131193   1.085702   3.495040
     9  H    2.143837   3.395283   3.888995   3.478413   1.084840
    10  N    3.785591   2.482297   1.475907   2.450862   4.279589
    11  O    4.768247   3.587631   2.320164   2.705743   4.992415
    12  O    4.122294   2.714696   2.319353   3.549540   4.938459
    13  C    2.486114   2.837240   2.449573   1.469656   1.472614
    14  H    3.324903   3.754379   3.290289   2.157764   2.165286
    15  Br   3.727252   4.110867   3.702891   2.756973   2.757100
                    6          7          8          9         10
     6  H    0.000000
     7  H    2.503108   0.000000
     8  H    5.019802   4.273425   0.000000
     9  H    2.486588   4.304945   4.388479   0.000000
    10  N    4.640790   2.652397   2.661486   5.364313   0.000000
    11  O    5.712624   3.885809   2.387560   6.052233   1.244373
    12  O    4.756638   2.356750   3.893289   6.002923   1.245428
    13  C    3.473180   3.923079   2.218790   2.195425   3.806210
    14  H    4.231175   4.827242   2.552506   2.528663   4.540772
    15  Br   4.548146   5.101303   3.087568   3.055498   4.845862
                   11         12         13         14         15
    11  O    0.000000
    12  O    2.223602   0.000000
    13  C    4.175117   4.768865   0.000000
    14  H    4.737193   5.566358   1.093770   0.000000
    15  Br   5.031700   5.817075   2.028436   2.531646   0.000000
 Symmetry turned off by external request.
 Stoichiometry    C6H5BrNO2(1+)
 Framework group  C1[X(C6H5BrNO2)]
 Deg. of freedom    39
 Full point group                 C1      NOp   1
 Rotational constants (GHZ):           1.8252210           0.5518633           0.4576002
 Leave Link  202 at Wed May  1 14:27:47 2024, MaxMem=  1207959552 cpu:               1.4 elap:               1.3
 (Enter /software/gaussian/g16-c01/sse4/g16/l301.exe)
 Standard basis: 6-311+G(d) (5D, 7F)
 Ernie: Thresh=  0.10000D-02 Tol=  0.10000D-05 Strict=F.
 The following finite field(s) will be applied:
 An electric field of             -0.0282  0.0000  0.0000
   261 basis functions,   443 primitive gaussians,   273 cartesian basis functions
    49 alpha electrons       49 beta electrons
       nuclear repulsion energy       739.2122215416 Hartrees.
 IExCor= 4639 DFT=T Ex+Corr=wB97XD ExCW=0 ScaHFX=  1.000000
 ScaDFX=  1.000000  1.000000  1.000000  1.000000 ScalE2=  1.000000  1.000000
 IRadAn=      5 IRanWt=     -1 IRanGd=            0 ICorTp=0 IEmpDi=121
 HFx  wShort=  0.000000 wLong=  0.200000 cFull=  0.222036 cShort=  0.000000 cLong=  0.777964
 DFx  wShort=  0.000000 wLong=  0.200000 cFull=  0.000000 cShort=  0.000000 cLong=  1.000000
 NAtoms=   15 NActive=   15 NUniq=   15 SFac= 1.00D+00 NAtFMM=   60 NAOKFM=F Big=F
 Integral buffers will be    131072 words long.
 Raffenetti 2 integral format.
 Two-electron integral symmetry is turned off.
 R6Disp:  Grimme-D2 Dispersion energy=       -0.0077368520 Hartrees.
 Nuclear repulsion after empirical dispersion term =      739.2044846896 Hartrees.
 Leave Link  301 at Wed May  1 14:27:48 2024, MaxMem=  1207959552 cpu:               1.1 elap:               1.1
 (Enter /software/gaussian/g16-c01/sse4/g16/l302.exe)
 NPDir=0 NMtPBC=     1 NCelOv=     1 NCel=       1 NClECP=     1 NCelD=      1
         NCelK=      1 NCelE2=     1 NClLst=     1 CellRange=     0.0.
 One-electron integrals computed using PRISM.
 NBasis=   261 RedAO= T EigKep=  2.35D-06  NBF=   261
 NBsUse=   261 1.00D-06 EigRej= -1.00D+00 NBFU=   261
 Precomputing XC quadrature grid using
 IXCGrd= 4 IRadAn=           5 IRanWt=          -1 IRanGd=           0 AccXCQ= 0.00D+00.
 Generated NRdTot=       0 NPtTot=           0 NUsed=           0 NTot=          32
 NSgBfM=   273   273   273   273   273 MxSgAt=    15 MxSgA2=    15.
 Leave Link  302 at Wed May  1 14:28:10 2024, MaxMem=  1207959552 cpu:              21.7 elap:              21.7
 (Enter /software/gaussian/g16-c01/sse4/g16/l303.exe)
 DipDrv:  MaxL=1.
 The nuclear repulsion energy is now       733.8818145483 hartrees.
 Leave Link  303 at Wed May  1 14:28:13 2024, MaxMem=  1207959552 cpu:               3.4 elap:               3.4
 (Enter /software/gaussian/g16-c01/sse4/g16/l401.exe)
 ExpMin= 3.50D-02 ExpMax= 4.40D+05 ExpMxC= 1.51D+04 IAcc=3 IRadAn=         5 AccDes= 0.00D+00
 Harris functional with IExCor= 4639 and IRadAn=       5 diagonalized for initial guess.
 HarFok:  IExCor= 4639 AccDes= 0.00D+00 IRadAn=         5 IDoV= 1 UseB2=F ITyADJ=14
 ICtDFT=  3500011 ScaDFX=  1.000000  1.000000  1.000000  1.000000
 FoFCou: FMM=F IPFlag=           0 FMFlag=      100000 FMFlg1=           0
         NFxFlg=           0 DoJE=T BraDBF=F KetDBF=T FulRan=T
         wScrn=  0.000000 ICntrl=       500 IOpCl=  0 I1Cent=   200000004 NGrid=           0
         NMat0=    1 NMatS0=      1 NMatT0=    0 NMatD0=    1 NMtDS0=    0 NMtDT0=    0
 Symmetry not used in FoFCou.
 Harris En= -2971.71392488762    
 JPrj=0 DoOrth=F DoCkMO=F.
 Leave Link  401 at Wed May  1 14:28:44 2024, MaxMem=  1207959552 cpu:              30.9 elap:              31.0
 (Enter /software/gaussian/g16-c01/sse4/g16/l502.exe)
 Two-electron integral symmetry not used.
 Closed shell SCF:
 Using DIIS extrapolation, IDIIS=  1040.
 NGot=  1207959552 LenX=  1207804877 LenY=  1207729907
 Requested convergence on RMS density matrix=1.00D-08 within 128 cycles.
 Requested convergence on MAX density matrix=1.00D-06.
 Requested convergence on             energy=1.00D-06.
 No special actions if energy rises.
 Fock matrices will be formed incrementally for  20 cycles.

 Cycle   1  Pass 1  IDiag  1:
 FoFJK:  IHMeth= 1 ICntrl=       0 DoSepK=T KAlg= 0 I1Cent=           0 FoldK=F
 IRaf=         1 NMat=       1 IRICut=       1 DoRegI=T DoRafI=F ISym2E= 0 IDoP0=0 IntGTp=1.
 FoFCou: FMM=F IPFlag=           0 FMFlag=      100000 FMFlg1=           0
         NFxFlg=           0 DoJE=T BraDBF=F KetDBF=F FulRan=T
         wScrn=  0.000000 ICntrl=       500 IOpCl=  0 I1Cent=           0 NGrid=           0
         NMat0=    1 NMatS0=      1 NMatT0=    0 NMatD0=    1 NMtDS0=    0 NMtDT0=    0
 Symmetry not used in FoFCou.
 E= -3001.12100393757    
 DIIS: error= 3.19D-01 at cycle   1 NSaved=   1.
 NSaved= 1 IEnMin= 1 EnMin= -3001.12100393757     IErMin= 1 ErrMin= 3.19D-01
 ErrMax= 3.19D-01  0.00D+00 EMaxC= 1.00D-01 BMatC= 1.46D+01 BMatP= 1.46D+01
 IDIUse=3 WtCom= 0.00D+00 WtEn= 1.00D+00
 Coeff-Com:  0.100D+01
 Coeff-En:   0.100D+01
 Coeff:      0.100D+01
 Gap=     0.719 Goal=   None    Shift=    0.000
 GapD=    0.719 DampG=2.000 DampE=0.250 DampFc=0.5000 IDamp=-1.
 Damping current iteration by 5.00D-01
 RMSDP=1.50D+01 MaxDP=1.57D+03              OVMax= 9.97D-01

 Cycle   2  Pass 1  IDiag  1:
 RMSU=  3.35D-01    CP:  5.07D-01
 E= -2985.67500079054     Delta-E=       15.446003147032 Rises=F Damp=T
 DIIS: error= 1.42D-01 at cycle   2 NSaved=   2.
 NSaved= 2 IEnMin= 1 EnMin= -3001.12100393757     IErMin= 2 ErrMin= 1.42D-01
 ErrMax= 1.42D-01  0.00D+00 EMaxC= 1.00D-01 BMatC= 9.07D+00 BMatP= 1.46D+01
 IDIUse=3 WtCom= 0.00D+00 WtEn= 1.00D+00
 Coeff-Com:  0.355D+00 0.645D+00
 Coeff-En:   0.718D+00 0.282D+00
 Coeff:      0.718D+00 0.282D+00
 Gap=     0.549 Goal=   None    Shift=    0.000
 RMSDP=7.68D+00 MaxDP=7.87D+02 DE= 1.54D+01 OVMax= 9.86D-01

 Cycle   3  Pass 1  IDiag  1:
 RMSU=  5.74D-02    CP:  3.00D-03  1.48D-01
 E= -2998.65999682339     Delta-E=      -12.984996032850 Rises=F Damp=F
 DIIS: error= 1.41D-01 at cycle   3 NSaved=   3.
 NSaved= 3 IEnMin= 1 EnMin= -3001.12100393757     IErMin= 3 ErrMin= 1.41D-01
 ErrMax= 1.41D-01  0.00D+00 EMaxC= 1.00D-01 BMatC= 8.07D+00 BMatP= 9.07D+00
 IDIUse=3 WtCom= 0.00D+00 WtEn= 1.00D+00
 Coeff-Com:  0.372D+00 0.659D-01 0.562D+00
 Coeff-En:   0.540D+00 0.000D+00 0.460D+00
 Coeff:      0.540D+00 0.000D+00 0.460D+00
 Gap=    -0.213 Goal=   None    Shift=    0.000
 RMSDP=2.94D-02 MaxDP=1.61D+00 DE=-1.30D+01 OVMax= 7.87D-01

 Cycle   4  Pass 1  IDiag  1:
 RMSU=  2.74D-02    CP:  3.29D-03  1.24D-01  9.01D-01
 E= -3009.68992636565     Delta-E=      -11.029929542263 Rises=F Damp=F
 DIIS: error= 5.98D-02 at cycle   4 NSaved=   4.
 NSaved= 4 IEnMin= 4 EnMin= -3009.68992636565     IErMin= 4 ErrMin= 5.98D-02
 ErrMax= 5.98D-02  0.00D+00 EMaxC= 1.00D-01 BMatC= 1.16D+00 BMatP= 8.07D+00
 IDIUse=3 WtCom= 4.02D-01 WtEn= 5.98D-01
 Coeff-Com:  0.170D+00 0.623D-02 0.885D-01 0.736D+00
 Coeff-En:   0.624D-01 0.000D+00 0.000D+00 0.938D+00
 Coeff:      0.106D+00 0.250D-02 0.356D-01 0.856D+00
 Gap=     0.376 Goal=   None    Shift=    0.000
 RMSDP=4.97D-02 MaxDP=4.32D+00 DE=-1.10D+01 OVMax= 5.89D-01

 Cycle   5  Pass 1  IDiag  1:
 RMSU=  4.78D-02    CP:  2.90D-03  1.02D-01  7.33D-01  9.59D-01
 E= -3008.91389993253     Delta-E=        0.776026433123 Rises=F Damp=F
 DIIS: error= 6.69D-02 at cycle   5 NSaved=   5.
 NSaved= 5 IEnMin= 4 EnMin= -3009.68992636565     IErMin= 4 ErrMin= 5.98D-02
 ErrMax= 6.69D-02  0.00D+00 EMaxC= 1.00D-01 BMatC= 1.58D+00 BMatP= 1.16D+00
 IDIUse=2 WtCom= 0.00D+00 WtEn= 1.00D+00
 Coeff-En:   0.000D+00 0.000D+00 0.000D+00 0.650D+00 0.350D+00
 Coeff:      0.000D+00 0.000D+00 0.000D+00 0.650D+00 0.350D+00
 Gap=     0.096 Goal=   None    Shift=    0.000
 RMSDP=4.77D-02 MaxDP=3.09D+00 DE= 7.76D-01 OVMax= 8.05D-01

 Cycle   6  Pass 1  IDiag  1:
 RMSU=  2.65D-02    CP:  4.22D-03  9.01D-02  5.79D-01  4.37D-01  3.82D-01
 E= -3009.44873891459     Delta-E=       -0.534838982064 Rises=F Damp=F
 DIIS: error= 5.33D-02 at cycle   6 NSaved=   6.
 NSaved= 6 IEnMin= 4 EnMin= -3009.68992636565     IErMin= 6 ErrMin= 5.33D-02
 ErrMax= 5.33D-02  0.00D+00 EMaxC= 1.00D-01 BMatC= 7.08D-01 BMatP= 1.16D+00
 IDIUse=3 WtCom= 4.67D-01 WtEn= 5.33D-01
 EnCoef did     1 forward-backward iterations
 Coeff-Com:  0.128D-01 0.252D-01 0.306D-01 0.393D+00 0.249D+00 0.289D+00
 Coeff-En:   0.000D+00 0.000D+00 0.000D+00 0.511D+00 0.205D+00 0.284D+00
 Coeff:      0.597D-02 0.118D-01 0.143D-01 0.456D+00 0.225D+00 0.287D+00
 Gap=     0.034 Goal=   None    Shift=    0.000
 RMSDP=3.22D-02 MaxDP=1.83D+00 DE=-5.35D-01 OVMax= 7.77D-01

 Cycle   7  Pass 1  IDiag  1:
 RMSU=  1.74D-02    CP:  3.10D-03  8.72D-02  6.16D-01  7.62D-01  3.53D-01
                    CP:  2.89D-01
 E= -3010.43930892832     Delta-E=       -0.990570013726 Rises=F Damp=F
 DIIS: error= 2.86D-02 at cycle   7 NSaved=   7.
 NSaved= 7 IEnMin= 7 EnMin= -3010.43930892832     IErMin= 7 ErrMin= 2.86D-02
 ErrMax= 2.86D-02  0.00D+00 EMaxC= 1.00D-01 BMatC= 1.57D-01 BMatP= 7.08D-01
 IDIUse=3 WtCom= 7.14D-01 WtEn= 2.86D-01
 Coeff-Com: -0.104D-01 0.136D-01 0.970D-02 0.162D+00 0.706D-01 0.277D+00
 Coeff-Com:  0.478D+00
 Coeff-En:   0.000D+00 0.000D+00 0.000D+00 0.000D+00 0.000D+00 0.130D+00
 Coeff-En:   0.870D+00
 Coeff:     -0.745D-02 0.970D-02 0.692D-02 0.115D+00 0.503D-01 0.235D+00
 Coeff:      0.590D+00
 Gap=     0.121 Goal=   None    Shift=    0.000
 RMSDP=8.41D-03 MaxDP=4.24D-01 DE=-9.91D-01 OVMax= 1.39D-01

 Cycle   8  Pass 1  IDiag  1:
 RMSU=  7.59D-03    CP:  3.28D-03  8.91D-02  5.88D-01  8.08D-01  3.52D-01
                    CP:  2.67D-01  9.43D-01
 E= -3010.55291074889     Delta-E=       -0.113601820570 Rises=F Damp=F
 DIIS: error= 1.12D-02 at cycle   8 NSaved=   8.
 NSaved= 8 IEnMin= 8 EnMin= -3010.55291074889     IErMin= 8 ErrMin= 1.12D-02
 ErrMax= 1.12D-02  0.00D+00 EMaxC= 1.00D-01 BMatC= 1.88D-02 BMatP= 1.57D-01
 IDIUse=3 WtCom= 8.88D-01 WtEn= 1.12D-01
 Coeff-Com: -0.339D-02-0.838D-03-0.896D-02 0.182D-01 0.801D-02 0.913D-01
 Coeff-Com:  0.231D+00 0.665D+00
 Coeff-En:   0.000D+00 0.000D+00 0.000D+00 0.000D+00 0.000D+00 0.000D+00
 Coeff-En:   0.000D+00 0.100D+01
 Coeff:     -0.301D-02-0.744D-03-0.796D-02 0.162D-01 0.711D-02 0.811D-01
 Coeff:      0.205D+00 0.702D+00
 Gap=     0.140 Goal=   None    Shift=    0.000
 RMSDP=3.49D-03 MaxDP=1.35D-01 DE=-1.14D-01 OVMax= 8.33D-02

 Cycle   9  Pass 1  IDiag  1:
 RMSU=  3.10D-03    CP:  3.30D-03  8.80D-02  5.68D-01  8.09D-01  3.51D-01
                    CP:  3.03D-01  9.42D-01  9.57D-01
 E= -3010.55886308593     Delta-E=       -0.005952337042 Rises=F Damp=F
 DIIS: error= 1.51D-02 at cycle   9 NSaved=   9.
 NSaved= 9 IEnMin= 9 EnMin= -3010.55886308593     IErMin= 8 ErrMin= 1.12D-02
 ErrMax= 1.51D-02  0.00D+00 EMaxC= 1.00D-01 BMatC= 1.56D-02 BMatP= 1.88D-02
 IDIUse=3 WtCom= 8.88D-01 WtEn= 1.12D-01
 Coeff-Com:  0.129D-02-0.193D-02-0.504D-02-0.884D-02-0.135D-01 0.444D-01
 Coeff-Com:  0.260D-01 0.471D+00 0.487D+00
 Coeff-En:   0.000D+00 0.000D+00 0.000D+00 0.000D+00 0.000D+00 0.000D+00
 Coeff-En:   0.000D+00 0.374D+00 0.626D+00
 Coeff:      0.115D-02-0.171D-02-0.448D-02-0.785D-02-0.120D-01 0.394D-01
 Coeff:      0.231D-01 0.460D+00 0.502D+00
 Gap=     0.149 Goal=   None    Shift=    0.000
 RMSDP=1.95D-03 MaxDP=1.39D-01 DE=-5.95D-03 OVMax= 5.05D-02

 Cycle  10  Pass 1  IDiag  1:
 RMSU=  1.35D-03    CP:  3.26D-03  8.76D-02  5.59D-01  7.98D-01  3.38D-01
                    CP:  3.03D-01  9.10D-01  1.04D+00  8.38D-01
 E= -3010.57134685731     Delta-E=       -0.012483771379 Rises=F Damp=F
 DIIS: error= 2.62D-03 at cycle  10 NSaved=  10.
 NSaved=10 IEnMin=10 EnMin= -3010.57134685731     IErMin=10 ErrMin= 2.62D-03
 ErrMax= 2.62D-03  0.00D+00 EMaxC= 1.00D-01 BMatC= 1.16D-03 BMatP= 1.56D-02
 IDIUse=3 WtCom= 9.74D-01 WtEn= 2.62D-02
 Coeff-Com: -0.310D-03 0.112D-02-0.227D-02-0.586D-04-0.676D-02 0.134D-01
 Coeff-Com: -0.575D-01-0.746D-01 0.137D+00 0.990D+00
 Coeff-En:   0.000D+00 0.000D+00 0.000D+00 0.000D+00 0.000D+00 0.000D+00
 Coeff-En:   0.000D+00 0.000D+00 0.000D+00 0.100D+01
 Coeff:     -0.302D-03 0.109D-02-0.221D-02-0.571D-04-0.658D-02 0.130D-01
 Coeff:     -0.560D-01-0.726D-01 0.134D+00 0.990D+00
 Gap=     0.144 Goal=   None    Shift=    0.000
 RMSDP=1.08D-03 MaxDP=6.40D-02 DE=-1.25D-02 OVMax= 3.35D-02

 Cycle  11  Pass 1  IDiag  1:
 RMSU=  5.80D-04    CP:  3.28D-03  8.76D-02  5.51D-01  8.01D-01  3.37D-01
                    CP:  3.11D-01  9.20D-01  1.08D+00  1.03D+00  9.83D-01
 E= -3010.57377444159     Delta-E=       -0.002427584278 Rises=F Damp=F
 DIIS: error= 1.04D-03 at cycle  11 NSaved=  11.
 NSaved=11 IEnMin=11 EnMin= -3010.57377444159     IErMin=11 ErrMin= 1.04D-03
 ErrMax= 1.04D-03  0.00D+00 EMaxC= 1.00D-01 BMatC= 1.44D-04 BMatP= 1.16D-03
 IDIUse=3 WtCom= 9.90D-01 WtEn= 1.04D-02
 Coeff-Com: -0.901D-04 0.626D-04 0.503D-03 0.146D-02-0.253D-02 0.117D-02
 Coeff-Com: -0.172D-01-0.716D-01-0.470D-01 0.300D+00 0.835D+00
 Coeff-En:   0.000D+00 0.000D+00 0.000D+00 0.000D+00 0.000D+00 0.000D+00
 Coeff-En:   0.000D+00 0.000D+00 0.000D+00 0.000D+00 0.100D+01
 Coeff:     -0.891D-04 0.620D-04 0.498D-03 0.145D-02-0.251D-02 0.116D-02
 Coeff:     -0.170D-01-0.708D-01-0.465D-01 0.297D+00 0.837D+00
 Gap=     0.148 Goal=   None    Shift=    0.000
 RMSDP=6.41D-04 MaxDP=5.99D-02 DE=-2.43D-03 OVMax= 1.90D-02

 Cycle  12  Pass 1  IDiag  1:
 RMSU=  2.49D-04    CP:  3.27D-03  8.72D-02  5.48D-01  8.01D-01  3.32D-01
                    CP:  3.12D-01  9.12D-01  1.05D+00  1.08D+00  1.23D+00
                    CP:  1.22D+00
 E= -3010.57432569215     Delta-E=       -0.000551250566 Rises=F Damp=F
 DIIS: error= 4.49D-04 at cycle  12 NSaved=  12.
 NSaved=12 IEnMin=12 EnMin= -3010.57432569215     IErMin=12 ErrMin= 4.49D-04
 ErrMax= 4.49D-04  0.00D+00 EMaxC= 1.00D-01 BMatC= 5.42D-05 BMatP= 1.44D-04
 IDIUse=3 WtCom= 9.96D-01 WtEn= 4.49D-03
 Coeff-Com: -0.495D-04-0.237D-04 0.574D-03 0.351D-03 0.287D-03-0.254D-02
 Coeff-Com:  0.129D-01 0.123D-01-0.304D-01-0.483D-01 0.157D+00 0.898D+00
 Coeff-En:   0.000D+00 0.000D+00 0.000D+00 0.000D+00 0.000D+00 0.000D+00
 Coeff-En:   0.000D+00 0.000D+00 0.000D+00 0.000D+00 0.000D+00 0.100D+01
 Coeff:     -0.493D-04-0.235D-04 0.571D-03 0.349D-03 0.285D-03-0.253D-02
 Coeff:      0.128D-01 0.123D-01-0.303D-01-0.481D-01 0.157D+00 0.898D+00
 Gap=     0.150 Goal=   None    Shift=    0.000
 RMSDP=3.45D-04 MaxDP=1.76D-02 DE=-5.51D-04 OVMax= 1.76D-02

 Cycle  13  Pass 1  IDiag  1:
 RMSU=  1.41D-04    CP:  3.26D-03  8.71D-02  5.49D-01  8.00D-01  3.31D-01
                    CP:  3.13D-01  9.12D-01  1.03D+00  1.06D+00  1.31D+00
                    CP:  1.32D+00  1.57D+00
 E= -3010.57454812959     Delta-E=       -0.000222437438 Rises=F Damp=F
 DIIS: error= 3.60D-04 at cycle  13 NSaved=  13.
 NSaved=13 IEnMin=13 EnMin= -3010.57454812959     IErMin=13 ErrMin= 3.60D-04
 ErrMax= 3.60D-04  0.00D+00 EMaxC= 1.00D-01 BMatC= 5.53D-05 BMatP= 5.42D-05
 IDIUse=3 WtCom= 9.96D-01 WtEn= 3.60D-03
 Coeff-Com: -0.206D-03 0.279D-03 0.222D-03-0.967D-03-0.505D-04-0.173D-02
 Coeff-Com:  0.147D-01 0.232D-01 0.562D-02-0.838D-02-0.173D+00 0.172D+00
 Coeff-Com:  0.969D+00
 Coeff-En:   0.000D+00 0.000D+00 0.000D+00 0.000D+00 0.000D+00 0.000D+00
 Coeff-En:   0.000D+00 0.000D+00 0.000D+00 0.000D+00 0.000D+00 0.000D+00
 Coeff-En:   0.100D+01
 Coeff:     -0.206D-03 0.278D-03 0.221D-03-0.963D-03-0.504D-04-0.173D-02
 Coeff:      0.146D-01 0.231D-01 0.560D-02-0.835D-02-0.173D+00 0.172D+00
 Coeff:      0.969D+00
 Gap=     0.153 Goal=   None    Shift=    0.000
 RMSDP=3.43D-04 MaxDP=1.85D-02 DE=-2.22D-04 OVMax= 1.35D-02

 Cycle  14  Pass 1  IDiag  1:
 RMSU=  5.12D-05    CP:  3.25D-03  8.69D-02  5.50D-01  7.99D-01  3.30D-01
                    CP:  3.12D-01  9.11D-01  9.99D-01  1.05D+00  1.39D+00
                    CP:  1.28D+00  2.15D+00  1.81D+00
 E= -3010.57468929245     Delta-E=       -0.000141162857 Rises=F Damp=F
 DIIS: error= 3.18D-04 at cycle  14 NSaved=  14.
 NSaved=14 IEnMin=14 EnMin= -3010.57468929245     IErMin=14 ErrMin= 3.18D-04
 ErrMax= 3.18D-04  0.00D+00 EMaxC= 1.00D-01 BMatC= 3.52D-05 BMatP= 5.42D-05
 IDIUse=3 WtCom= 9.97D-01 WtEn= 3.18D-03
 Coeff-Com: -0.934D-04 0.130D-03 0.257D-04-0.272D-03-0.647D-03-0.852D-03
 Coeff-Com:  0.372D-02-0.186D-02 0.154D-01 0.961D-01-0.118D+00-0.429D+00
 Coeff-Com: -0.216D+00 0.165D+01
 Coeff-En:   0.000D+00 0.000D+00 0.000D+00 0.000D+00 0.000D+00 0.000D+00
 Coeff-En:   0.000D+00 0.000D+00 0.000D+00 0.000D+00 0.000D+00 0.000D+00
 Coeff-En:   0.000D+00 0.100D+01
 Coeff:     -0.931D-04 0.129D-03 0.256D-04-0.271D-03-0.645D-03-0.849D-03
 Coeff:      0.370D-02-0.185D-02 0.154D-01 0.958D-01-0.117D+00-0.428D+00
 Coeff:     -0.215D+00 0.165D+01
 Gap=     0.157 Goal=   None    Shift=    0.000
 RMSDP=5.49D-04 MaxDP=2.63D-02 DE=-1.41D-04 OVMax= 1.74D-02

 Cycle  15  Pass 1  IDiag  1:
 RMSU=  5.81D-05    CP:  3.24D-03  8.67D-02  5.52D-01  7.96D-01  3.28D-01
                    CP:  3.11D-01  9.12D-01  9.53D-01  1.01D+00  1.49D+00
                    CP:  1.19D+00  2.85D+00  3.00D+00  2.28D+00
 E= -3010.57481061510     Delta-E=       -0.000121322657 Rises=F Damp=F
 DIIS: error= 1.24D-04 at cycle  15 NSaved=  15.
 NSaved=15 IEnMin=15 EnMin= -3010.57481061510     IErMin=15 ErrMin= 1.24D-04
 ErrMax= 1.24D-04  0.00D+00 EMaxC= 1.00D-01 BMatC= 6.93D-06 BMatP= 3.52D-05
 IDIUse=3 WtCom= 9.99D-01 WtEn= 1.24D-03
 Coeff-Com: -0.998D-05-0.100D-04 0.432D-04 0.399D-03-0.390D-03-0.337D-03
 Coeff-Com: -0.364D-03-0.748D-02 0.154D-03 0.504D-01 0.345D-02-0.175D+00
 Coeff-Com: -0.597D+00 0.812D+00 0.915D+00
 Coeff-En:   0.000D+00 0.000D+00 0.000D+00 0.000D+00 0.000D+00 0.000D+00
 Coeff-En:   0.000D+00 0.000D+00 0.000D+00 0.000D+00 0.000D+00 0.000D+00
 Coeff-En:   0.000D+00 0.000D+00 0.100D+01
 Coeff:     -0.997D-05-0.100D-04 0.432D-04 0.399D-03-0.389D-03-0.336D-03
 Coeff:     -0.364D-03-0.747D-02 0.154D-03 0.504D-01 0.345D-02-0.175D+00
 Coeff:     -0.597D+00 0.811D+00 0.915D+00
 Gap=     0.159 Goal=   None    Shift=    0.000
 RMSDP=2.91D-04 MaxDP=1.67D-02 DE=-1.21D-04 OVMax= 8.35D-03

 Cycle  16  Pass 1  IDiag  1:
 RMSU=  9.26D-05    CP:  3.23D-03  8.66D-02  5.53D-01  7.95D-01  3.27D-01
                    CP:  3.11D-01  9.10D-01  9.30D-01  1.01D+00  1.56D+00
                    CP:  1.14D+00  3.00D+00  3.00D+00  3.00D+00  2.07D+00
 E= -3010.57483439395     Delta-E=       -0.000023778846 Rises=F Damp=F
 DIIS: error= 5.25D-05 at cycle  16 NSaved=  16.
 NSaved=16 IEnMin=16 EnMin= -3010.57483439395     IErMin=16 ErrMin= 5.25D-05
 ErrMax= 5.25D-05  0.00D+00 EMaxC= 1.00D-01 BMatC= 5.76D-07 BMatP= 6.93D-06
 IDIUse=1 WtCom= 1.00D+00 WtEn= 0.00D+00
 Coeff-Com:  0.192D-05 0.121D-04 0.157D-04 0.112D-03-0.870D-04-0.133D-03
 Coeff-Com: -0.606D-04-0.493D-04-0.452D-02-0.110D-01 0.235D-01 0.105D+00
 Coeff-Com: -0.109D+00-0.170D+00 0.151D+00 0.102D+01
 Coeff:      0.192D-05 0.121D-04 0.157D-04 0.112D-03-0.870D-04-0.133D-03
 Coeff:     -0.606D-04-0.493D-04-0.452D-02-0.110D-01 0.235D-01 0.105D+00
 Coeff:     -0.109D+00-0.170D+00 0.151D+00 0.102D+01
 Gap=     0.159 Goal=   None    Shift=    0.000
 RMSDP=6.85D-05 MaxDP=4.18D-03 DE=-2.38D-05 OVMax= 2.41D-03

 Cycle  17  Pass 1  IDiag  1:
 RMSU=  2.90D-05    CP:  3.23D-03  8.66D-02  5.53D-01  7.95D-01  3.26D-01
                    CP:  3.11D-01  9.10D-01  9.26D-01  1.01D+00  1.58D+00
                    CP:  1.15D+00  3.00D+00  3.00D+00  3.00D+00  2.46D+00
                    CP:  1.22D+00
 E= -3010.57483796323     Delta-E=       -0.000003569275 Rises=F Damp=F
 DIIS: error= 3.74D-05 at cycle  17 NSaved=  17.
 NSaved=17 IEnMin=17 EnMin= -3010.57483796323     IErMin=17 ErrMin= 3.74D-05
 ErrMax= 3.74D-05  0.00D+00 EMaxC= 1.00D-01 BMatC= 1.30D-07 BMatP= 5.76D-07
 IDIUse=1 WtCom= 1.00D+00 WtEn= 0.00D+00
 Coeff-Com:  0.480D-05 0.469D-05-0.291D-05-0.489D-04 0.282D-04-0.778D-04
 Coeff-Com:  0.199D-04 0.805D-03-0.135D-02-0.107D-01 0.346D-02 0.735D-01
 Coeff-Com:  0.532D-01-0.160D+00-0.112D+00 0.307D+00 0.847D+00
 Coeff:      0.480D-05 0.469D-05-0.291D-05-0.489D-04 0.282D-04-0.778D-04
 Coeff:      0.199D-04 0.805D-03-0.135D-02-0.107D-01 0.346D-02 0.735D-01
 Coeff:      0.532D-01-0.160D+00-0.112D+00 0.307D+00 0.847D+00
 Gap=     0.159 Goal=   None    Shift=    0.000
 RMSDP=3.10D-05 MaxDP=1.11D-03 DE=-3.57D-06 OVMax= 1.31D-03

 Cycle  18  Pass 1  IDiag  1:
 RMSU=  8.68D-06    CP:  3.23D-03  8.66D-02  5.53D-01  7.95D-01  3.26D-01
                    CP:  3.11D-01  9.10D-01  9.26D-01  1.01D+00  1.58D+00
                    CP:  1.16D+00  3.00D+00  3.00D+00  3.00D+00  2.54D+00
                    CP:  1.22D+00  1.73D+00
 E= -3010.57483953364     Delta-E=       -0.000001570413 Rises=F Damp=F
 DIIS: error= 2.54D-05 at cycle  18 NSaved=  18.
 NSaved=18 IEnMin=18 EnMin= -3010.57483953364     IErMin=18 ErrMin= 2.54D-05
 ErrMax= 2.54D-05  0.00D+00 EMaxC= 1.00D-01 BMatC= 7.32D-08 BMatP= 1.30D-07
 IDIUse=1 WtCom= 1.00D+00 WtEn= 0.00D+00
 Coeff-Com:  0.158D-05-0.880D-05-0.858D-05-0.597D-04 0.373D-04-0.995D-05
 Coeff-Com: -0.800D-04-0.284D-03 0.172D-02 0.221D-02-0.115D-01-0.257D-01
 Coeff-Com:  0.250D-01 0.728D-01-0.572D-01-0.319D+00 0.137D+00 0.118D+01
 Coeff:      0.158D-05-0.880D-05-0.858D-05-0.597D-04 0.373D-04-0.995D-05
 Coeff:     -0.800D-04-0.284D-03 0.172D-02 0.221D-02-0.115D-01-0.257D-01
 Coeff:      0.250D-01 0.728D-01-0.572D-01-0.319D+00 0.137D+00 0.118D+01
 Gap=     0.159 Goal=   None    Shift=    0.000
 RMSDP=3.81D-05 MaxDP=1.47D-03 DE=-1.57D-06 OVMax= 1.75D-03

 Cycle  19  Pass 1  IDiag  1:
 RMSU=  5.27D-06    CP:  3.23D-03  8.66D-02  5.53D-01  7.96D-01  3.26D-01
                    CP:  3.11D-01  9.10D-01  9.25D-01  1.02D+00  1.58D+00
                    CP:  1.17D+00  3.00D+00  3.00D+00  3.00D+00  2.67D+00
                    CP:  1.27D+00  2.61D+00  2.12D+00
 E= -3010.57484100296     Delta-E=       -0.000001469323 Rises=F Damp=F
 DIIS: error= 1.98D-05 at cycle  19 NSaved=  19.
 NSaved=19 IEnMin=19 EnMin= -3010.57484100296     IErMin=19 ErrMin= 1.98D-05
 ErrMax= 1.98D-05  0.00D+00 EMaxC= 1.00D-01 BMatC= 3.30D-08 BMatP= 7.32D-08
 IDIUse=1 WtCom= 1.00D+00 WtEn= 0.00D+00
 Coeff-Com: -0.138D-05-0.165D-05-0.309D-05 0.379D-04-0.139D-06 0.685D-04
 Coeff-Com: -0.185D-03-0.443D-03 0.635D-03 0.492D-02-0.714D-03-0.327D-01
 Coeff-Com: -0.106D-01 0.574D-01 0.290D-01-0.128D+00-0.391D+00 0.532D-01
 Coeff-Com:  0.142D+01
 Coeff:     -0.138D-05-0.165D-05-0.309D-05 0.379D-04-0.139D-06 0.685D-04
 Coeff:     -0.185D-03-0.443D-03 0.635D-03 0.492D-02-0.714D-03-0.327D-01
 Coeff:     -0.106D-01 0.574D-01 0.290D-01-0.128D+00-0.391D+00 0.532D-01
 Coeff:      0.142D+01
 Gap=     0.159 Goal=   None    Shift=    0.000
 RMSDP=4.28D-05 MaxDP=1.66D-03 DE=-1.47D-06 OVMax= 2.15D-03

 Cycle  20  Pass 1  IDiag  1:
 RMSU=  1.82D-05    CP:  3.23D-03  8.66D-02  5.53D-01  7.96D-01  3.27D-01
                    CP:  3.11D-01  9.10D-01  9.24D-01  1.03D+00  1.58D+00
                    CP:  1.17D+00  3.00D+00  3.00D+00  3.00D+00  2.83D+00
                    CP:  1.37D+00  3.00D+00  3.00D+00  2.55D+00
 E= -3010.57484220932     Delta-E=       -0.000001206363 Rises=F Damp=F
 DIIS: error= 1.13D-05 at cycle  20 NSaved=  20.
 NSaved=20 IEnMin=20 EnMin= -3010.57484220932     IErMin=20 ErrMin= 1.13D-05
 ErrMax= 1.13D-05  0.00D+00 EMaxC= 1.00D-01 BMatC= 1.63D-08 BMatP= 3.30D-08
 IDIUse=1 WtCom= 1.00D+00 WtEn= 0.00D+00
 Coeff-Com:  0.136D-05 0.116D-05-0.192D-05 0.550D-04-0.185D-04 0.418D-04
 Coeff-Com: -0.822D-04-0.122D-03-0.401D-03 0.258D-02 0.526D-02-0.185D-01
 Coeff-Com: -0.187D-01 0.131D-01 0.519D-01 0.460D-01-0.323D+00-0.540D+00
 Coeff-Com:  0.578D+00 0.120D+01
 Coeff:      0.136D-05 0.116D-05-0.192D-05 0.550D-04-0.185D-04 0.418D-04
 Coeff:     -0.822D-04-0.122D-03-0.401D-03 0.258D-02 0.526D-02-0.185D-01
 Coeff:     -0.187D-01 0.131D-01 0.519D-01 0.460D-01-0.323D+00-0.540D+00
 Coeff:      0.578D+00 0.120D+01
 Gap=     0.159 Goal=   None    Shift=    0.000
 RMSDP=4.51D-05 MaxDP=1.73D-03 DE=-1.21D-06 OVMax= 2.34D-03

 Cycle  21  Pass 1  IDiag  1:
 Restarting incremental Fock formation.
 E= -3010.57484291463     Delta-E=       -0.000000705305 Rises=F Damp=F
 DIIS: error= 4.74D-06 at cycle  21 NSaved=  20.
 NSaved=20 IEnMin=20 EnMin= -3010.57484291463     IErMin=20 ErrMin= 4.74D-06
 ErrMax= 4.74D-06  0.00D+00 EMaxC= 1.00D-01 BMatC= 6.62D-09 BMatP= 1.63D-08
 IDIUse=1 WtCom= 1.00D+00 WtEn= 0.00D+00
 Coeff-Com:  0.900D-06-0.124D-05-0.117D-04-0.971D-05 0.104D-04 0.999D-04
 Coeff-Com:  0.420D-03-0.263D-03-0.233D-02 0.278D-02 0.131D-01 0.162D-01
 Coeff-Com: -0.494D-01-0.154D-01 0.871D-01 0.171D+00-0.150D-01-0.753D+00
 Coeff-Com:  0.256D+00 0.129D+01
 Coeff:      0.900D-06-0.124D-05-0.117D-04-0.971D-05 0.104D-04 0.999D-04
 Coeff:      0.420D-03-0.263D-03-0.233D-02 0.278D-02 0.131D-01 0.162D-01
 Coeff:     -0.494D-01-0.154D-01 0.871D-01 0.171D+00-0.150D-01-0.753D+00
 Coeff:      0.256D+00 0.129D+01
 Gap=     0.159 Goal=   None    Shift=    0.000
 RMSDP=2.44D-05 MaxDP=1.06D-03 DE=-7.05D-07 OVMax= 1.26D-03

 Cycle  22  Pass 1  IDiag  1:
 RMSU=  2.44D-05    CP:  1.00D+00
 E= -3010.57484306288     Delta-E=       -0.000000148250 Rises=F Damp=F
 DIIS: error= 3.08D-06 at cycle  22 NSaved=  20.
 NSaved=20 IEnMin=20 EnMin= -3010.57484306288     IErMin=20 ErrMin= 3.08D-06
 ErrMax= 3.08D-06  0.00D+00 EMaxC= 1.00D-01 BMatC= 8.93D-10 BMatP= 6.62D-09
 IDIUse=1 WtCom= 1.00D+00 WtEn= 0.00D+00
 Coeff-Com: -0.450D-06-0.878D-05 0.133D-05 0.138D-05-0.769D-06-0.295D-04
 Coeff-Com:  0.107D-03-0.505D-03-0.860D-03 0.775D-03 0.448D-02-0.391D-02
 Coeff-Com: -0.184D-02 0.453D-05 0.299D-01 0.860D-01-0.816D-01-0.184D+00
 Coeff-Com: -0.228D-01 0.117D+01
 Coeff:     -0.450D-06-0.878D-05 0.133D-05 0.138D-05-0.769D-06-0.295D-04
 Coeff:      0.107D-03-0.505D-03-0.860D-03 0.775D-03 0.448D-02-0.391D-02
 Coeff:     -0.184D-02 0.453D-05 0.299D-01 0.860D-01-0.816D-01-0.184D+00
 Coeff:     -0.228D-01 0.117D+01
 Gap=     0.159 Goal=   None    Shift=    0.000
 RMSDP=6.43D-06 MaxDP=4.16D-04 DE=-1.48D-07 OVMax= 2.98D-04

 Cycle  23  Pass 1  IDiag  1:
 RMSU=  2.00D-06    CP:  1.00D+00  1.25D+00
 E= -3010.57484307600     Delta-E=       -0.000000013119 Rises=F Damp=F
 DIIS: error= 1.08D-06 at cycle  23 NSaved=  20.
 NSaved=20 IEnMin=20 EnMin= -3010.57484307600     IErMin=20 ErrMin= 1.08D-06
 ErrMax= 1.08D-06  0.00D+00 EMaxC= 1.00D-01 BMatC= 2.19D-10 BMatP= 8.93D-10
 IDIUse=1 WtCom= 1.00D+00 WtEn= 0.00D+00
 Coeff-Com: -0.111D-05 0.312D-05-0.265D-05-0.281D-04-0.637D-04 0.376D-04
 Coeff-Com:  0.388D-03-0.377D-03-0.212D-02-0.923D-03 0.507D-02 0.368D-02
 Coeff-Com: -0.163D-01-0.206D-01 0.252D-01 0.947D-01-0.546D-01-0.231D+00
 Coeff-Com:  0.148D+00 0.105D+01
 Coeff:     -0.111D-05 0.312D-05-0.265D-05-0.281D-04-0.637D-04 0.376D-04
 Coeff:      0.388D-03-0.377D-03-0.212D-02-0.923D-03 0.507D-02 0.368D-02
 Coeff:     -0.163D-01-0.206D-01 0.252D-01 0.947D-01-0.546D-01-0.231D+00
 Coeff:      0.148D+00 0.105D+01
 Gap=     0.159 Goal=   None    Shift=    0.000
 RMSDP=2.04D-06 MaxDP=1.52D-04 DE=-1.31D-08 OVMax= 6.86D-05

 Cycle  24  Pass 1  IDiag  1:
 RMSU=  5.69D-07    CP:  1.00D+00  1.31D+00  1.56D+00
 E= -3010.57484307852     Delta-E=       -0.000000002524 Rises=F Damp=F
 DIIS: error= 9.98D-07 at cycle  24 NSaved=  20.
 NSaved=20 IEnMin=20 EnMin= -3010.57484307852     IErMin=20 ErrMin= 9.98D-07
 ErrMax= 9.98D-07  0.00D+00 EMaxC= 1.00D-01 BMatC= 8.69D-11 BMatP= 2.19D-10
 IDIUse=1 WtCom= 1.00D+00 WtEn= 0.00D+00
 Coeff-Com: -0.110D-05-0.561D-06-0.371D-05 0.181D-04-0.163D-04 0.214D-03
 Coeff-Com:  0.198D-03-0.373D-03-0.239D-03-0.227D-03 0.816D-03-0.353D-02
 Coeff-Com: -0.883D-02-0.143D-01 0.247D-01 0.452D-01-0.173D-01-0.281D+00
 Coeff-Com:  0.178D+00 0.108D+01
 Coeff:     -0.110D-05-0.561D-06-0.371D-05 0.181D-04-0.163D-04 0.214D-03
 Coeff:      0.198D-03-0.373D-03-0.239D-03-0.227D-03 0.816D-03-0.353D-02
 Coeff:     -0.883D-02-0.143D-01 0.247D-01 0.452D-01-0.173D-01-0.281D+00
 Coeff:      0.178D+00 0.108D+01
 Gap=     0.159 Goal=   None    Shift=    0.000
 RMSDP=1.19D-06 MaxDP=1.02D-04 DE=-2.52D-09 OVMax= 4.08D-05

 Cycle  25  Pass 1  IDiag  1:
 RMSU=  3.25D-07    CP:  1.00D+00  1.34D+00  1.90D+00  1.60D+00
 E= -3010.57484307965     Delta-E=       -0.000000001130 Rises=F Damp=F
 DIIS: error= 6.43D-07 at cycle  25 NSaved=  20.
 NSaved=20 IEnMin=20 EnMin= -3010.57484307965     IErMin=20 ErrMin= 6.43D-07
 ErrMax= 6.43D-07  0.00D+00 EMaxC= 1.00D-01 BMatC= 2.45D-11 BMatP= 8.69D-11
 IDIUse=1 WtCom= 1.00D+00 WtEn= 0.00D+00
 Coeff-Com:  0.195D-05 0.100D-04 0.670D-05-0.254D-05-0.131D-03 0.133D-04
 Coeff-Com:  0.523D-03-0.284D-03-0.387D-03-0.669D-03 0.395D-02 0.298D-02
 Coeff-Com: -0.667D-02-0.154D-01 0.511D-03 0.588D-01-0.155D-01-0.318D+00
 Coeff-Com: -0.188D+00 0.148D+01
 Coeff:      0.195D-05 0.100D-04 0.670D-05-0.254D-05-0.131D-03 0.133D-04
 Coeff:      0.523D-03-0.284D-03-0.387D-03-0.669D-03 0.395D-02 0.298D-02
 Coeff:     -0.667D-02-0.154D-01 0.511D-03 0.588D-01-0.155D-01-0.318D+00
 Coeff:     -0.188D+00 0.148D+01
 Gap=     0.159 Goal=   None    Shift=    0.000
 RMSDP=1.38D-06 MaxDP=1.24D-04 DE=-1.13D-09 OVMax= 4.28D-05

 Cycle  26  Pass 1  IDiag  1:
 RMSU=  4.15D-07    CP:  1.00D+00  1.37D+00  2.27D+00  1.91D+00  2.03D+00
 E= -3010.57484308039     Delta-E=       -0.000000000741 Rises=F Damp=F
 DIIS: error= 4.46D-07 at cycle  26 NSaved=  20.
 NSaved=20 IEnMin=20 EnMin= -3010.57484308039     IErMin=20 ErrMin= 4.46D-07
 ErrMax= 4.46D-07  0.00D+00 EMaxC= 1.00D-01 BMatC= 9.62D-12 BMatP= 2.45D-11
 IDIUse=1 WtCom= 1.00D+00 WtEn= 0.00D+00
 Coeff-Com:  0.259D-05-0.326D-06 0.195D-05-0.128D-03-0.955D-04 0.436D-03
 Coeff-Com:  0.110D-03 0.152D-05-0.112D-02 0.224D-02 0.699D-02 0.577D-02
 Coeff-Com: -0.159D-01-0.195D-01 0.164D-01 0.106D+00-0.823D-01-0.484D+00
 Coeff-Com:  0.262D-01 0.144D+01
 Coeff:      0.259D-05-0.326D-06 0.195D-05-0.128D-03-0.955D-04 0.436D-03
 Coeff:      0.110D-03 0.152D-05-0.112D-02 0.224D-02 0.699D-02 0.577D-02
 Coeff:     -0.159D-01-0.195D-01 0.164D-01 0.106D+00-0.823D-01-0.484D+00
 Coeff:      0.262D-01 0.144D+01
 Gap=     0.159 Goal=   None    Shift=    0.000
 RMSDP=1.04D-06 MaxDP=9.21D-05 DE=-7.41D-10 OVMax= 4.10D-05

 Cycle  27  Pass 1  IDiag  1:
 RMSU=  1.34D-07    CP:  1.00D+00  1.39D+00  2.56D+00  2.18D+00  2.98D+00
                    CP:  1.87D+00
 E= -3010.57484308074     Delta-E=       -0.000000000346 Rises=F Damp=F
 DIIS: error= 1.68D-07 at cycle  27 NSaved=  20.
 NSaved=20 IEnMin=20 EnMin= -3010.57484308074     IErMin=20 ErrMin= 1.68D-07
 ErrMax= 1.68D-07  0.00D+00 EMaxC= 1.00D-01 BMatC= 3.27D-12 BMatP= 9.62D-12
 IDIUse=1 WtCom= 1.00D+00 WtEn= 0.00D+00
 Coeff-Com: -0.127D-05-0.841D-05 0.114D-04 0.899D-05-0.550D-04-0.131D-03
 Coeff-Com:  0.395D-03 0.127D-03 0.426D-03 0.248D-03-0.922D-03 0.291D-03
 Coeff-Com: -0.129D-03-0.514D-02 0.275D-01 0.434D-01-0.479D-01-0.449D+00
 Coeff-Com:  0.307D+00 0.112D+01
 Coeff:     -0.127D-05-0.841D-05 0.114D-04 0.899D-05-0.550D-04-0.131D-03
 Coeff:      0.395D-03 0.127D-03 0.426D-03 0.248D-03-0.922D-03 0.291D-03
 Coeff:     -0.129D-03-0.514D-02 0.275D-01 0.434D-01-0.479D-01-0.449D+00
 Coeff:      0.307D+00 0.112D+01
 Gap=     0.159 Goal=   None    Shift=    0.000
 RMSDP=5.81D-07 MaxDP=4.85D-05 DE=-3.46D-10 OVMax= 2.28D-05

 Cycle  28  Pass 1  IDiag  1:
 RMSU=  2.15D-07    CP:  1.00D+00  1.40D+00  2.72D+00  2.24D+00  3.00D+00
                    CP:  2.51D+00  1.40D+00
 E= -3010.57484308082     Delta-E=       -0.000000000078 Rises=F Damp=F
 DIIS: error= 4.23D-08 at cycle  28 NSaved=  20.
 NSaved=20 IEnMin=20 EnMin= -3010.57484308082     IErMin=20 ErrMin= 4.23D-08
 ErrMax= 4.23D-08  0.00D+00 EMaxC= 1.00D-01 BMatC= 3.60D-13 BMatP= 3.27D-12
 IDIUse=1 WtCom= 1.00D+00 WtEn= 0.00D+00
 Coeff-Com:  0.164D-05 0.515D-07 0.730D-06-0.785D-05 0.786D-04-0.834D-04
 Coeff-Com: -0.108D-03-0.442D-03-0.490D-03 0.125D-04 0.247D-02 0.918D-03
 Coeff-Com: -0.398D-02-0.114D-01 0.807D-02 0.862D-01 0.271D-01-0.242D+00
 Coeff-Com: -0.204D+00 0.134D+01
 Coeff:      0.164D-05 0.515D-07 0.730D-06-0.785D-05 0.786D-04-0.834D-04
 Coeff:     -0.108D-03-0.442D-03-0.490D-03 0.125D-04 0.247D-02 0.918D-03
 Coeff:     -0.398D-02-0.114D-01 0.807D-02 0.862D-01 0.271D-01-0.242D+00
 Coeff:     -0.204D+00 0.134D+01
 Gap=     0.159 Goal=   None    Shift=    0.000
 RMSDP=1.27D-07 MaxDP=9.27D-06 DE=-7.82D-11 OVMax= 5.90D-06

 Cycle  29  Pass 1  IDiag  1:
 RMSU=  3.05D-08    CP:  1.00D+00  1.40D+00  2.76D+00  2.25D+00  3.00D+00
                    CP:  2.65D+00  1.52D+00  1.16D+00
 E= -3010.57484308080     Delta-E=        0.000000000016 Rises=F Damp=F
 DIIS: error= 5.64D-09 at cycle  29 NSaved=  20.
 NSaved=20 IEnMin=19 EnMin= -3010.57484308082     IErMin=20 ErrMin= 5.64D-09
 ErrMax= 5.64D-09  0.00D+00 EMaxC= 1.00D-01 BMatC= 2.37D-14 BMatP= 3.60D-13
 IDIUse=1 WtCom= 1.00D+00 WtEn= 0.00D+00
 Coeff-Com:  0.441D-06 0.421D-05 0.774D-05 0.420D-05-0.445D-04-0.222D-04
 Coeff-Com: -0.616D-04-0.676D-04-0.442D-04 0.489D-04 0.791D-03-0.283D-03
 Coeff-Com: -0.515D-02-0.166D-02 0.218D-01 0.201D-01-0.448D-01-0.755D-01
 Coeff-Com:  0.586D-01 0.103D+01
 Coeff:      0.441D-06 0.421D-05 0.774D-05 0.420D-05-0.445D-04-0.222D-04
 Coeff:     -0.616D-04-0.676D-04-0.442D-04 0.489D-04 0.791D-03-0.283D-03
 Coeff:     -0.515D-02-0.166D-02 0.218D-01 0.201D-01-0.448D-01-0.755D-01
 Coeff:      0.586D-01 0.103D+01
 Gap=     0.159 Goal=   None    Shift=    0.000
 RMSDP=2.35D-08 MaxDP=1.10D-06 DE= 1.59D-11 OVMax= 5.86D-07

 Cycle  30  Pass 1  IDiag  1:
 RMSU=  6.05D-09    CP:  1.00D+00  1.40D+00  2.76D+00  2.26D+00  3.00D+00
                    CP:  2.65D+00  1.47D+00  1.15D+00  1.31D+00
 E= -3010.57484308081     Delta-E=       -0.000000000006 Rises=F Damp=F
 DIIS: error= 2.35D-09 at cycle  30 NSaved=  20.
 NSaved=20 IEnMin=18 EnMin= -3010.57484308082     IErMin=20 ErrMin= 2.35D-09
 ErrMax= 2.35D-09  0.00D+00 EMaxC= 1.00D-01 BMatC= 2.58D-15 BMatP= 2.37D-14
 IDIUse=1 WtCom= 1.00D+00 WtEn= 0.00D+00
 Large coefficients: NSaved= 20 BigCof=    0.00 CofMax=   10.00 Det=-8.67D-15
 Inversion failed.  Reducing to 19 matrices.
 Large coefficients: NSaved= 19 BigCof=    0.00 CofMax=   10.00 Det=-9.19D-15
 Inversion failed.  Reducing to 18 matrices.
 Large coefficients: NSaved= 18 BigCof=    0.00 CofMax=   10.00 Det=-9.48D-15
 Inversion failed.  Reducing to 17 matrices.
 Large coefficients: NSaved= 17 BigCof=    0.00 CofMax=   10.00 Det=-9.48D-15
 Inversion failed.  Reducing to 16 matrices.
 Coeff-Com:  0.174D-06 0.599D-04 0.624D-04-0.619D-04-0.293D-03-0.557D-05
 Coeff-Com:  0.630D-03 0.106D-02-0.189D-02-0.746D-02-0.222D-02 0.210D-01
 Coeff-Com:  0.222D-01-0.119D+00-0.725D-01 0.116D+01
 Coeff:      0.174D-06 0.599D-04 0.624D-04-0.619D-04-0.293D-03-0.557D-05
 Coeff:      0.630D-03 0.106D-02-0.189D-02-0.746D-02-0.222D-02 0.210D-01
 Coeff:      0.222D-01-0.119D+00-0.725D-01 0.116D+01
 Gap=     0.159 Goal=   None    Shift=    0.000
 RMSDP=7.71D-09 MaxDP=3.96D-07 DE=-6.37D-12 OVMax= 1.29D-07

 SCF Done:  E(RwB97XD) =  -3010.57484308     A.U. after   30 cycles
            NFock= 30  Conv=0.77D-08     -V/T= 2.0016
 KE= 3.005843272512D+03 PE=-8.626886761214D+03 EE= 1.876586831073D+03
 Leave Link  502 at Wed May  1 14:58:03 2024, MaxMem=  1207959552 cpu:            1759.1 elap:            1759.2
 (Enter /software/gaussian/g16-c01/sse4/g16/l601.exe)
 Copying SCF densities to generalized density rwf, IOpCl= 0 IROHF=0.

 **********************************************************************

            Population analysis using the SCF Density.

 **********************************************************************

 Alpha  occ. eigenvalues -- -483.29309 -62.84369 -56.64000 -56.63520 -56.63508
 Alpha  occ. eigenvalues --  -19.33310 -19.33284 -14.72376 -10.55770 -10.53352
 Alpha  occ. eigenvalues --  -10.51685 -10.50832 -10.50261 -10.50126  -9.00200
 Alpha  occ. eigenvalues --   -6.82704  -6.81114  -6.81076  -2.92649  -2.92230
 Alpha  occ. eigenvalues --   -2.92198  -2.90925  -2.90925  -1.36608  -1.19505
 Alpha  occ. eigenvalues --   -1.18182  -1.09613  -1.06856  -1.01399  -0.93841
 Alpha  occ. eigenvalues --   -0.90916  -0.85253  -0.79975  -0.75526  -0.74596
 Alpha  occ. eigenvalues --   -0.72245  -0.69961  -0.69047  -0.66660  -0.64531
 Alpha  occ. eigenvalues --   -0.63961  -0.61195  -0.59509  -0.56602  -0.55112
 Alpha  occ. eigenvalues --   -0.51719  -0.43497  -0.41998  -0.41659
 Alpha virt. eigenvalues --   -0.25796  -0.18692  -0.14287  -0.13385  -0.13154
 Alpha virt. eigenvalues --   -0.10896  -0.09104  -0.05889  -0.04458  -0.04335
 Alpha virt. eigenvalues --   -0.03371  -0.01685  -0.00270   0.00558   0.00939
 Alpha virt. eigenvalues --    0.02155   0.03065   0.03954   0.04308   0.05367
 Alpha virt. eigenvalues --    0.06938   0.07938   0.08057   0.08940   0.10142
 Alpha virt. eigenvalues --    0.11286   0.11757   0.12953   0.13378   0.14476
 Alpha virt. eigenvalues --    0.16259   0.16616   0.17127   0.17920   0.18880
 Alpha virt. eigenvalues --    0.19731   0.21322   0.22067   0.23501   0.24674
 Alpha virt. eigenvalues --    0.25065   0.26657   0.28464   0.28861   0.29674
 Alpha virt. eigenvalues --    0.31006   0.32110   0.32773   0.34022   0.34736
 Alpha virt. eigenvalues --    0.35329   0.35924   0.37001   0.38110   0.38819
 Alpha virt. eigenvalues --    0.39470   0.40248   0.42160   0.43269   0.44095
 Alpha virt. eigenvalues --    0.45169   0.45662   0.46895   0.48461   0.49719
 Alpha virt. eigenvalues --    0.50741   0.51596   0.52030   0.52534   0.53999
 Alpha virt. eigenvalues --    0.54739   0.55308   0.56881   0.57223   0.59853
 Alpha virt. eigenvalues --    0.60310   0.62245   0.62405   0.63897   0.66007
 Alpha virt. eigenvalues --    0.67161   0.68367   0.68944   0.70301   0.70782
 Alpha virt. eigenvalues --    0.73417   0.75955   0.76922   0.77711   0.79813
 Alpha virt. eigenvalues --    0.82953   0.85814   0.88741   0.90195   0.90676
 Alpha virt. eigenvalues --    0.91380   0.95581   0.98652   1.02792   1.07155
 Alpha virt. eigenvalues --    1.07919   1.10159   1.10914   1.12578   1.16020
 Alpha virt. eigenvalues --    1.17467   1.20947   1.25833   1.26712   1.29893
 Alpha virt. eigenvalues --    1.32327   1.34969   1.36747   1.38879   1.41771
 Alpha virt. eigenvalues --    1.42393   1.42796   1.49741   1.60178   1.62955
 Alpha virt. eigenvalues --    1.64113   1.64410   1.69076   1.70354   1.71825
 Alpha virt. eigenvalues --    1.75532   1.77730   1.79330   1.83043   1.84672
 Alpha virt. eigenvalues --    1.86091   1.93657   1.93740   1.95398   1.98312
 Alpha virt. eigenvalues --    2.04650   2.08503   2.09263   2.12403   2.14236
 Alpha virt. eigenvalues --    2.15079   2.19631   2.25175   2.29792   2.34317
 Alpha virt. eigenvalues --    2.42532   2.48817   2.50407   2.51877   2.57052
 Alpha virt. eigenvalues --    2.61326   2.68413   2.71354   2.73816   2.80116
 Alpha virt. eigenvalues --    2.84259   2.85991   2.88067   2.88983   2.94303
 Alpha virt. eigenvalues --    2.97819   3.01408   3.09644   3.13687   3.15010
 Alpha virt. eigenvalues --    3.17573   3.20943   3.24796   3.29554   3.36133
 Alpha virt. eigenvalues --    3.40837   3.46799   3.52206   3.58536   3.63085
 Alpha virt. eigenvalues --    3.68655   3.82574   3.87302   3.87329   3.92611
 Alpha virt. eigenvalues --    4.10449   4.10695   4.18585   4.23682   4.44630
 Alpha virt. eigenvalues --    4.58010   4.62185   4.71688   5.06784   5.09600
 Alpha virt. eigenvalues --    5.18298   5.22437   5.75897   6.29330   6.66253
 Alpha virt. eigenvalues --    7.49129   7.50695   7.60717  23.25790  23.65937
 Alpha virt. eigenvalues --   23.72630  23.84815  23.99918  24.07224  35.45557
 Alpha virt. eigenvalues --   47.93031  49.98198  50.07010 289.82396 289.84062
 Alpha virt. eigenvalues --  289.965541020.93510
          Condensed to atoms (all electrons):
               1          2          3          4          5          6
     1  C   12.255869  -4.635813   0.333914  -2.773683  -1.783383   0.280084
     2  C   -4.635813  17.074510  -3.240785  -0.783892   0.454352   0.065748
     3  C    0.333914  -3.240785  15.640162  -5.173399  -1.574261   0.030178
     4  C   -2.773683  -0.783892  -5.173399  20.414408   0.716990   0.018315
     5  C   -1.783383   0.454352  -1.574261   0.716990  11.647899  -0.045865
     6  H    0.280084   0.065748   0.030178   0.018315  -0.045865   0.400014
     7  H    0.135829   0.142373   0.076310  -0.045737  -0.012826  -0.001734
     8  H    0.015700  -0.042506   0.114439   0.108259  -0.039935  -0.000007
     9  H    0.121358  -0.100382   0.041024  -0.044842   0.145781  -0.004737
    10  N   -0.353220   0.546872  -1.089648   0.527727  -0.014274  -0.000744
    11  O   -0.013888  -0.199610  -0.235359   0.071158  -0.098056  -0.000029
    12  O    0.530001  -0.036510  -0.231698  -0.289171  -0.046774   0.000155
    13  C    2.386062  -3.704540   2.000737  -7.064719  -3.264899  -0.013666
    14  H   -0.056938   0.041408  -0.033342  -0.091542   0.179760  -0.000008
    15  Br   0.042246   0.093310  -0.103421   0.105386  -0.225090  -0.000063
               7          8          9         10         11         12
     1  C    0.135829   0.015700   0.121358  -0.353220  -0.013888   0.530001
     2  C    0.142373  -0.042506  -0.100382   0.546872  -0.199610  -0.036510
     3  C    0.076310   0.114439   0.041024  -1.089648  -0.235359  -0.231698
     4  C   -0.045737   0.108259  -0.044842   0.527727   0.071158  -0.289171
     5  C   -0.012826  -0.039935   0.145781  -0.014274  -0.098056  -0.046774
     6  H   -0.001734  -0.000007  -0.004737  -0.000744  -0.000029   0.000155
     7  H    0.265608   0.000035   0.000072  -0.032302  -0.001793   0.038657
     8  H    0.000035   0.260577   0.000134  -0.027458   0.035354  -0.000438
     9  H    0.000072   0.000134   0.486363   0.000023   0.000026   0.000019
    10  N   -0.032302  -0.027458   0.000023   8.022520  -0.060405  -0.080143
    11  O   -0.001793   0.035354   0.000026  -0.060405   7.827456   0.027081
    12  O    0.038657  -0.000438   0.000019  -0.080143   0.027081   7.855257
    13  C    0.025039   0.155448   0.151433  -0.317899   0.456178   0.040035
    14  H   -0.000034  -0.002256  -0.009617   0.002140  -0.000573  -0.000101
    15  Br   0.000141   0.011219   0.003485   0.015689  -0.000623   0.002261
              13         14         15
     1  C    2.386062  -0.056938   0.042246
     2  C   -3.704540   0.041408   0.093310
     3  C    2.000737  -0.033342  -0.103421
     4  C   -7.064719  -0.091542   0.105386
     5  C   -3.264899   0.179760  -0.225090
     6  H   -0.013666  -0.000008  -0.000063
     7  H    0.025039  -0.000034   0.000141
     8  H    0.155448  -0.002256   0.011219
     9  H    0.151433  -0.009617   0.003485
    10  N   -0.317899   0.002140   0.015689
    11  O    0.456178  -0.000573  -0.000623
    12  O    0.040035  -0.000101   0.002261
    13  C   15.180893   0.279500   0.164276
    14  H    0.279500   0.397433  -0.061933
    15  Br   0.164276  -0.061933  34.936742
 Mulliken charges:
               1
     1  C   -0.484137
     2  C    0.325465
     3  C   -0.554851
     4  C    0.304744
     5  C   -0.039418
     6  H    0.272358
     7  H    0.410361
     8  H    0.411438
     9  H    0.209859
    10  N   -0.138876
    11  O    0.193085
    12  O    0.191371
    13  C   -0.473879
    14  H    0.356105
    15  Br   0.016376
 Sum of Mulliken charges =   1.00000
 Mulliken charges with hydrogens summed into heavy atoms:
               1
     1  C   -0.211779
     2  C    0.735826
     3  C   -0.554851
     4  C    0.716182
     5  C    0.170441
    10  N   -0.138876
    11  O    0.193085
    12  O    0.191371
    13  C   -0.117774
    15  Br   0.016376
 Electronic spatial extent (au):  <R**2>=           2784.5287
 Charge=              1.0000 electrons
 Dipole moment (field-independent basis, Debye):
    X=              8.6176    Y=              0.4107    Z=              0.7019  Tot=              8.6559
 Quadrupole moment (field-independent basis, Debye-Ang):
   XX=            -48.5300   YY=            -53.4507   ZZ=            -65.2522
   XY=             -0.4392   XZ=             -1.3378   YZ=             -0.4547
 Traceless Quadrupole moment (field-independent basis, Debye-Ang):
   XX=              7.2143   YY=              2.2936   ZZ=             -9.5079
   XY=             -0.4392   XZ=             -1.3378   YZ=             -0.4547
 Octapole moment (field-independent basis, Debye-Ang**2):
  XXX=           -165.0645  YYY=             95.5254  ZZZ=             83.5534  XYY=            -54.7118
  XXY=             34.6534  XXZ=             33.1303  XZZ=            -67.9761  YZZ=             21.6707
  YYZ=             30.2921  XYZ=              1.0379
 Hexadecapole moment (field-independent basis, Debye-Ang**3):
 XXXX=          -1725.6080 YYYY=           -699.5771 ZZZZ=           -368.5612 XXXY=            -71.0805
 XXXZ=            -38.8922 YYYX=            -71.8564 YYYZ=           -170.2030 ZZZX=            -31.2234
 ZZZY=           -149.5191 XXYY=           -417.2684 XXZZ=           -365.0719 YYZZ=           -176.8785
 XXYZ=            -61.1122 YYXZ=            -12.9252 ZZXY=            -18.0558
 N-N= 7.338818145483D+02 E-N=-8.626886760733D+03  KE= 3.005843272512D+03
 No NMR shielding tensors so no spin-rotation constants.
 Leave Link  601 at Wed May  1 14:58:11 2024, MaxMem=  1207959552 cpu:               7.5 elap:               7.5
 (Enter /software/gaussian/g16-c01/sse4/g16/l9999.exe)
 Unable to Open any file for archive entry.
 1\1\GINC-BHX0002\SP\RwB97XD\6-311+G(d)\C6H5Br1N1O2(1+)\BWEIGHT\01-May-
 2024\0\\#P wB97XD/6-311+G* NoSymm #P Field=X-282\\TitleMe\\1,1\C,0,0.0
 295,1.3397,0.0682\C,0,1.4348,1.2867,0.0064\C,0,2.1118,0.0511,-0.0054\C
 ,0,1.4451,-1.1372,0.0312\C,0,-0.6879,0.1682,0.11\H,0,-0.4713,2.2984,0.
 0781\H,0,2.0273,2.1965,-0.0322\H,0,1.9897,-2.0764,0.0232\H,0,-1.7716,0
 .1804,0.1582\N,0,3.5864,0.051,-0.0675\O,0,4.1471,-1.0597,-0.0881\O,0,4
 .145,1.1639,-0.0901\C,0,-0.0236,-1.1458,0.0835\H,0,-0.4367,-1.8725,0.7
 889\Br,0,-0.5359,-1.8697,-1.7408\\Version=ES64L-G16RevC.01\HF=-3010.57
 48431\RMSD=7.705e-09\Dipole=1.4839041,1.3096573,1.4223197\Quadrupole=5
 .3636706,1.7052248,-7.0688954,-0.3264989,-0.9946561,-0.3380432\PG=C01 
 [X(C6H5Br1N1O2)]\\@
 The archive entry for this job was punched.


 WHEN IT COMES TO CASH FLOW, IT SEEMS LIKE THE TIDE IS ALWAYS GOING OUT.
 Job cpu time:       0 days  0 hours 30 minutes 29.1 seconds.
 Elapsed time:       0 days  0 hours 30 minutes 29.2 seconds.
 File lengths (MBytes):  RWF=     40 Int=      0 D2E=      0 Chk=     32 Scr=      1
 Normal termination of Gaussian 16 at Wed May  1 14:58:12 2024.
