 Entering Gaussian System, Link 0=g16
 Initial command:
 /software/gaussian/g16-c01/sse4/g16/l1.exe "/local_scratch/24657566/Gau-30903.inp" -scrdir="/local_scratch/24657566/"
 Entering Link 1 = /software/gaussian/g16-c01/sse4/g16/l1.exe PID=     30904.
  
 Copyright (c) 1988-2019, Gaussian, Inc.  All Rights Reserved.
  
 This is part of the Gaussian(R) 16 program.  It is based on
 the Gaussian(R) 09 system (copyright 2009, Gaussian, Inc.),
 the Gaussian(R) 03 system (copyright 2003, Gaussian, Inc.),
 the Gaussian(R) 98 system (copyright 1998, Gaussian, Inc.),
 the Gaussian(R) 94 system (copyright 1995, Gaussian, Inc.),
 the Gaussian 92(TM) system (copyright 1992, Gaussian, Inc.),
 the Gaussian 90(TM) system (copyright 1990, Gaussian, Inc.),
 the Gaussian 88(TM) system (copyright 1988, Gaussian, Inc.),
 the Gaussian 86(TM) system (copyright 1986, Carnegie Mellon
 University), and the Gaussian 82(TM) system (copyright 1983,
 Carnegie Mellon University). Gaussian is a federally registered
 trademark of Gaussian, Inc.
  
 This software contains proprietary and confidential information,
 including trade secrets, belonging to Gaussian, Inc.
  
 This software is provided under written license and may be
 used, copied, transmitted, or stored only in accord with that
 written license.
  
 The following legend is applicable only to US Government
 contracts under FAR:
  
                    RESTRICTED RIGHTS LEGEND
  
 Use, reproduction and disclosure by the US Government is
 subject to restrictions as set forth in subparagraphs (a)
 and (c) of the Commercial Computer Software - Restricted
 Rights clause in FAR 52.227-19.
  
 Gaussian, Inc.
 340 Quinnipiac St., Bldg. 40, Wallingford CT 06492
  
  
 ---------------------------------------------------------------
 Warning -- This program may not be used in any manner that
 competes with the business of Gaussian, Inc. or will provide
 assistance to any competitor of Gaussian, Inc.  The licensee
 of this program is prohibited from giving any competitor of
 Gaussian, Inc. access to this program.  By using this program,
 the user acknowledges that Gaussian, Inc. is engaged in the
 business of creating and licensing software in the field of
 computational chemistry and represents and warrants to the
 licensee that it is not a competitor of Gaussian, Inc. and that
 it will not use this program in any manner prohibited above.
 ---------------------------------------------------------------
  

 Cite this work as:
 Gaussian 16, Revision C.01,
 M. J. Frisch, G. W. Trucks, H. B. Schlegel, G. E. Scuseria, 
 M. A. Robb, J. R. Cheeseman, G. Scalmani, V. Barone, 
 G. A. Petersson, H. Nakatsuji, X. Li, M. Caricato, A. V. Marenich, 
 J. Bloino, B. G. Janesko, R. Gomperts, B. Mennucci, H. P. Hratchian, 
 J. V. Ortiz, A. F. Izmaylov, J. L. Sonnenberg, D. Williams-Young, 
 F. Ding, F. Lipparini, F. Egidi, J. Goings, B. Peng, A. Petrone, 
 T. Henderson, D. Ranasinghe, V. G. Zakrzewski, J. Gao, N. Rega, 
 G. Zheng, W. Liang, M. Hada, M. Ehara, K. Toyota, R. Fukuda, 
 J. Hasegawa, M. Ishida, T. Nakajima, Y. Honda, O. Kitao, H. Nakai, 
 T. Vreven, K. Throssell, J. A. Montgomery, Jr., J. E. Peralta, 
 F. Ogliaro, M. J. Bearpark, J. J. Heyd, E. N. Brothers, K. N. Kudin, 
 V. N. Staroverov, T. A. Keith, R. Kobayashi, J. Normand, 
 K. Raghavachari, A. P. Rendell, J. C. Burant, S. S. Iyengar, 
 J. Tomasi, M. Cossi, J. M. Millam, M. Klene, C. Adamo, R. Cammi, 
 J. W. Ochterski, R. L. Martin, K. Morokuma, O. Farkas, 
 J. B. Foresman, and D. J. Fox, Gaussian, Inc., Wallingford CT, 2019.
 
 ******************************************
 Gaussian 16:  ES64L-G16RevC.01  3-Jul-2019
                 1-May-2024 
 ******************************************
 %chk=geometry.chk
 %mem=9GB
 %nprocshared=12
 Will use up to   12 processors via shared memory.
 ---------------------------------------
 #P wB97XD/6-311+G* NoSymm #P Field=Z+48
 ---------------------------------------
 1/38=1,172=1/1;
 2/12=2,15=1,17=6,18=5,40=1/2;
 3/5=4,6=6,7=11,11=2,14=3,15=48,25=1,30=1,74=-58/1,2,3;
 4//1;
 5/5=2,38=5/2;
 6/7=2,8=2,9=2,10=2,28=1/1;
 99/5=1,9=1/99;
 Leave Link    1 at Wed May  1 15:07:01 2024, MaxMem=  1207959552 cpu:               0.7 elap:               0.7
 (Enter /software/gaussian/g16-c01/sse4/g16/l101.exe)
 -------
 TitleMe
 -------
 Symbolic Z-matrix:
 Charge =  1 Multiplicity = 1
 C                     0.0295    1.3397    0.0682 
 C                     1.4348    1.2867    0.0064 
 C                     2.1118    0.0511   -0.0054 
 C                     1.4451   -1.1372    0.0312 
 C                    -0.6879    0.1682    0.11 
 H                    -0.4713    2.2984    0.0781 
 H                     2.0273    2.1965   -0.0322 
 H                     1.9897   -2.0764    0.0232 
 H                    -1.7716    0.1804    0.1582 
 N                     3.5864    0.051    -0.0675 
 O                     4.1471   -1.0597   -0.0881 
 O                     4.145     1.1639   -0.0901 
 C                    -0.0236   -1.1458    0.0835 
 H                    -0.4367   -1.8725    0.7889 
 Br                   -0.5359   -1.8697   -1.7408 
 
 ITRead=  0  0  0  0  0  0  0  0  0  0  0  0  0  0  0
 MicOpt= -1 -1 -1 -1 -1 -1 -1 -1 -1 -1 -1 -1 -1 -1 -1
 NAtoms=     15 NQM=       15 NQMF=       0 NMMI=      0 NMMIF=      0
                NMic=       0 NMicF=      0.
                    Isotopes and Nuclear Properties:
 (Nuclear quadrupole moments (NQMom) in fm**2, nuclear magnetic moments (NMagM)
  in nuclear magnetons)

  Atom         1           2           3           4           5           6           7           8           9          10
 IAtWgt=          12          12          12          12          12           1           1           1           1          14
 AtmWgt=  12.0000000  12.0000000  12.0000000  12.0000000  12.0000000   1.0078250   1.0078250   1.0078250   1.0078250  14.0030740
 NucSpn=           0           0           0           0           0           1           1           1           1           2
 AtZEff=  -0.0000000  -0.0000000  -0.0000000  -0.0000000  -0.0000000  -0.0000000  -0.0000000  -0.0000000  -0.0000000  -0.0000000
 NQMom=    0.0000000   0.0000000   0.0000000   0.0000000   0.0000000   0.0000000   0.0000000   0.0000000   0.0000000   2.0440000
 NMagM=    0.0000000   0.0000000   0.0000000   0.0000000   0.0000000   2.7928460   2.7928460   2.7928460   2.7928460   0.4037610
 AtZNuc=   6.0000000   6.0000000   6.0000000   6.0000000   6.0000000   1.0000000   1.0000000   1.0000000   1.0000000   7.0000000

  Atom        11          12          13          14          15
 IAtWgt=          16          16          12           1          79
 AtmWgt=  15.9949146  15.9949146  12.0000000   1.0078250  78.9183361
 NucSpn=           0           0           0           1           3
 AtZEff=  -0.0000000  -0.0000000  -0.0000000  -0.0000000  -0.0000000
 NQMom=    0.0000000   0.0000000   0.0000000   0.0000000  31.3000000
 NMagM=    0.0000000   0.0000000   0.0000000   2.7928460   2.1063990
 AtZNuc=   8.0000000   8.0000000   6.0000000   1.0000000  35.0000000
 Leave Link  101 at Wed May  1 15:07:02 2024, MaxMem=  1207959552 cpu:               1.4 elap:               1.4
 (Enter /software/gaussian/g16-c01/sse4/g16/l202.exe)
                          Input orientation:                          
 ---------------------------------------------------------------------
 Center     Atomic      Atomic             Coordinates (Angstroms)
 Number     Number       Type             X           Y           Z
 ---------------------------------------------------------------------
      1          6           0        0.029500    1.339700    0.068200
      2          6           0        1.434800    1.286700    0.006400
      3          6           0        2.111800    0.051100   -0.005400
      4          6           0        1.445100   -1.137200    0.031200
      5          6           0       -0.687900    0.168200    0.110000
      6          1           0       -0.471300    2.298400    0.078100
      7          1           0        2.027300    2.196500   -0.032200
      8          1           0        1.989700   -2.076400    0.023200
      9          1           0       -1.771600    0.180400    0.158200
     10          7           0        3.586400    0.051000   -0.067500
     11          8           0        4.147100   -1.059700   -0.088100
     12          8           0        4.145000    1.163900   -0.090100
     13          6           0       -0.023600   -1.145800    0.083500
     14          1           0       -0.436700   -1.872500    0.788900
     15         35           0       -0.535900   -1.869700   -1.740800
 ---------------------------------------------------------------------
                    Distance matrix (angstroms):
                    1          2          3          4          5
     1  C    0.000000
     2  C    1.407656   0.000000
     3  C    2.449874   1.408963   0.000000
     4  C    2.853126   2.424049   1.363043   0.000000
     5  C    1.374344   2.401589   2.804523   2.501993   0.000000
     6  H    1.081667   2.159142   3.424870   3.934226   2.141421
     7  H    2.176095   1.086408   2.147231   3.384750   3.392128
     8  H    3.938800   3.408612   2.131193   1.085702   3.495040
     9  H    2.143837   3.395283   3.888995   3.478413   1.084840
    10  N    3.785591   2.482297   1.475907   2.450862   4.279589
    11  O    4.768247   3.587631   2.320164   2.705743   4.992415
    12  O    4.122294   2.714696   2.319353   3.549540   4.938459
    13  C    2.486114   2.837240   2.449573   1.469656   1.472614
    14  H    3.324903   3.754379   3.290289   2.157764   2.165286
    15  Br   3.727252   4.110867   3.702891   2.756973   2.757100
                    6          7          8          9         10
     6  H    0.000000
     7  H    2.503108   0.000000
     8  H    5.019802   4.273425   0.000000
     9  H    2.486588   4.304945   4.388479   0.000000
    10  N    4.640790   2.652397   2.661486   5.364313   0.000000
    11  O    5.712624   3.885809   2.387560   6.052233   1.244373
    12  O    4.756638   2.356750   3.893289   6.002923   1.245428
    13  C    3.473180   3.923079   2.218790   2.195425   3.806210
    14  H    4.231175   4.827242   2.552506   2.528663   4.540772
    15  Br   4.548146   5.101303   3.087568   3.055498   4.845862
                   11         12         13         14         15
    11  O    0.000000
    12  O    2.223602   0.000000
    13  C    4.175117   4.768865   0.000000
    14  H    4.737193   5.566358   1.093770   0.000000
    15  Br   5.031700   5.817075   2.028436   2.531646   0.000000
 Symmetry turned off by external request.
 Stoichiometry    C6H5BrNO2(1+)
 Framework group  C1[X(C6H5BrNO2)]
 Deg. of freedom    39
 Full point group                 C1      NOp   1
 Rotational constants (GHZ):           1.8252210           0.5518633           0.4576002
 Leave Link  202 at Wed May  1 15:07:03 2024, MaxMem=  1207959552 cpu:               1.2 elap:               1.2
 (Enter /software/gaussian/g16-c01/sse4/g16/l301.exe)
 Standard basis: 6-311+G(d) (5D, 7F)
 Ernie: Thresh=  0.10000D-02 Tol=  0.10000D-05 Strict=F.
 The following finite field(s) will be applied:
 An electric field of              0.0000  0.0000  0.0048
   261 basis functions,   443 primitive gaussians,   273 cartesian basis functions
    49 alpha electrons       49 beta electrons
       nuclear repulsion energy       739.2122215416 Hartrees.
 IExCor= 4639 DFT=T Ex+Corr=wB97XD ExCW=0 ScaHFX=  1.000000
 ScaDFX=  1.000000  1.000000  1.000000  1.000000 ScalE2=  1.000000  1.000000
 IRadAn=      5 IRanWt=     -1 IRanGd=            0 ICorTp=0 IEmpDi=121
 HFx  wShort=  0.000000 wLong=  0.200000 cFull=  0.222036 cShort=  0.000000 cLong=  0.777964
 DFx  wShort=  0.000000 wLong=  0.200000 cFull=  0.000000 cShort=  0.000000 cLong=  1.000000
 NAtoms=   15 NActive=   15 NUniq=   15 SFac= 1.00D+00 NAtFMM=   60 NAOKFM=F Big=F
 Integral buffers will be    131072 words long.
 Raffenetti 2 integral format.
 Two-electron integral symmetry is turned off.
 R6Disp:  Grimme-D2 Dispersion energy=       -0.0077368520 Hartrees.
 Nuclear repulsion after empirical dispersion term =      739.2044846896 Hartrees.
 Leave Link  301 at Wed May  1 15:07:04 2024, MaxMem=  1207959552 cpu:               1.0 elap:               0.9
 (Enter /software/gaussian/g16-c01/sse4/g16/l302.exe)
 NPDir=0 NMtPBC=     1 NCelOv=     1 NCel=       1 NClECP=     1 NCelD=      1
         NCelK=      1 NCelE2=     1 NClLst=     1 CellRange=     0.0.
 One-electron integrals computed using PRISM.
 NBasis=   261 RedAO= T EigKep=  2.35D-06  NBF=   261
 NBsUse=   261 1.00D-06 EigRej= -1.00D+00 NBFU=   261
 Precomputing XC quadrature grid using
 IXCGrd= 4 IRadAn=           5 IRanWt=          -1 IRanGd=           0 AccXCQ= 0.00D+00.
 Generated NRdTot=       0 NPtTot=           0 NUsed=           0 NTot=          32
 NSgBfM=   273   273   273   273   273 MxSgAt=    15 MxSgA2=    15.
 Leave Link  302 at Wed May  1 15:07:25 2024, MaxMem=  1207959552 cpu:              21.1 elap:              21.1
 (Enter /software/gaussian/g16-c01/sse4/g16/l303.exe)
 DipDrv:  MaxL=1.
 The nuclear repulsion energy is now       738.6598217788 hartrees.
 Leave Link  303 at Wed May  1 15:07:29 2024, MaxMem=  1207959552 cpu:               3.4 elap:               3.4
 (Enter /software/gaussian/g16-c01/sse4/g16/l401.exe)
 ExpMin= 3.50D-02 ExpMax= 4.40D+05 ExpMxC= 1.51D+04 IAcc=3 IRadAn=         5 AccDes= 0.00D+00
 Harris functional with IExCor= 4639 and IRadAn=       5 diagonalized for initial guess.
 HarFok:  IExCor= 4639 AccDes= 0.00D+00 IRadAn=         5 IDoV= 1 UseB2=F ITyADJ=14
 ICtDFT=  3500011 ScaDFX=  1.000000  1.000000  1.000000  1.000000
 FoFCou: FMM=F IPFlag=           0 FMFlag=      100000 FMFlg1=           0
         NFxFlg=           0 DoJE=T BraDBF=F KetDBF=T FulRan=T
         wScrn=  0.000000 ICntrl=       500 IOpCl=  0 I1Cent=   200000004 NGrid=           0
         NMat0=    1 NMatS0=      1 NMatT0=    0 NMatD0=    1 NMtDS0=    0 NMtDT0=    0
 Symmetry not used in FoFCou.
 Harris En= -2970.59589870827    
 JPrj=0 DoOrth=F DoCkMO=F.
 Leave Link  401 at Wed May  1 15:07:58 2024, MaxMem=  1207959552 cpu:              29.4 elap:              29.4
 (Enter /software/gaussian/g16-c01/sse4/g16/l502.exe)
 Two-electron integral symmetry not used.
 Closed shell SCF:
 Using DIIS extrapolation, IDIIS=  1040.
 NGot=  1207959552 LenX=  1207804877 LenY=  1207729907
 Requested convergence on RMS density matrix=1.00D-08 within 128 cycles.
 Requested convergence on MAX density matrix=1.00D-06.
 Requested convergence on             energy=1.00D-06.
 No special actions if energy rises.
 Fock matrices will be formed incrementally for  20 cycles.

 Cycle   1  Pass 1  IDiag  1:
 FoFJK:  IHMeth= 1 ICntrl=       0 DoSepK=T KAlg= 0 I1Cent=           0 FoldK=F
 IRaf=         1 NMat=       1 IRICut=       1 DoRegI=T DoRafI=F ISym2E= 0 IDoP0=0 IntGTp=1.
 FoFCou: FMM=F IPFlag=           0 FMFlag=      100000 FMFlg1=           0
         NFxFlg=           0 DoJE=T BraDBF=F KetDBF=F FulRan=T
         wScrn=  0.000000 ICntrl=       500 IOpCl=  0 I1Cent=           0 NGrid=           0
         NMat0=    1 NMatS0=      1 NMatT0=    0 NMatD0=    1 NMtDS0=    0 NMtDT0=    0
 Symmetry not used in FoFCou.
 E= -3009.72343101533    
 DIIS: error= 3.20D-01 at cycle   1 NSaved=   1.
 NSaved= 1 IEnMin= 1 EnMin= -3009.72343101533     IErMin= 1 ErrMin= 3.20D-01
 ErrMax= 3.20D-01  0.00D+00 EMaxC= 1.00D-01 BMatC= 1.19D+01 BMatP= 1.19D+01
 IDIUse=3 WtCom= 0.00D+00 WtEn= 1.00D+00
 Coeff-Com:  0.100D+01
 Coeff-En:   0.100D+01
 Coeff:      0.100D+01
 Gap=     0.325 Goal=   None    Shift=    0.000
 GapD=    0.325 DampG=1.000 DampE=0.250 DampFc=0.2500 IDamp=-1.
 Damping current iteration by 2.50D-01
 RMSDP=4.68D-02 MaxDP=5.50D+00              OVMax= 2.55D-01

 Cycle   2  Pass 1  IDiag  1:
 RMSU=  4.29D-03    CP:  8.87D-01
 E= -3010.00753536585     Delta-E=       -0.284104350525 Rises=F Damp=T
 DIIS: error= 2.25D-01 at cycle   2 NSaved=   2.
 NSaved= 2 IEnMin= 2 EnMin= -3010.00753536585     IErMin= 2 ErrMin= 2.25D-01
 ErrMax= 2.25D-01  0.00D+00 EMaxC= 1.00D-01 BMatC= 5.45D+00 BMatP= 1.19D+01
 IDIUse=3 WtCom= 0.00D+00 WtEn= 1.00D+00
 Coeff-Com: -0.183D+01 0.283D+01
 Coeff-En:   0.000D+00 0.100D+01
 Coeff:      0.000D+00 0.100D+01
 Gap=     0.295 Goal=   None    Shift=    0.000
 RMSDP=3.63D-02 MaxDP=4.22D+00 DE=-2.84D-01 OVMax= 7.33D-02

 Cycle   3  Pass 1  IDiag  1:
 RMSU=  4.28D-03    CP:  5.27D-01  3.00D+00
 E= -3010.38506888391     Delta-E=       -0.377533518056 Rises=F Damp=F
 DIIS: error= 6.58D-02 at cycle   3 NSaved=   3.
 NSaved= 3 IEnMin= 3 EnMin= -3010.38506888391     IErMin= 3 ErrMin= 6.58D-02
 ErrMax= 6.58D-02  0.00D+00 EMaxC= 1.00D-01 BMatC= 7.37D-01 BMatP= 5.45D+00
 IDIUse=3 WtCom= 3.42D-01 WtEn= 6.58D-01
 Coeff-Com:  0.276D+01-0.363D+01 0.187D+01
 Coeff-En:   0.301D-01 0.000D+00 0.970D+00
 Coeff:      0.963D+00-0.124D+01 0.128D+01
 Gap=     0.262 Goal=   None    Shift=    0.000
 RMSDP=8.25D-03 MaxDP=4.46D-01 DE=-3.78D-01 OVMax= 6.63D-02

 Cycle   4  Pass 1  IDiag  1:
 RMSU=  4.60D-03    CP:  5.46D-01  2.19D+00  2.02D+00
 E= -3010.49035973794     Delta-E=       -0.105290854034 Rises=F Damp=F
 DIIS: error= 3.80D-02 at cycle   4 NSaved=   4.
 NSaved= 4 IEnMin= 4 EnMin= -3010.49035973794     IErMin= 4 ErrMin= 3.80D-02
 ErrMax= 3.80D-02  0.00D+00 EMaxC= 1.00D-01 BMatC= 2.27D-01 BMatP= 7.37D-01
 IDIUse=3 WtCom= 6.20D-01 WtEn= 3.80D-01
 Coeff-Com: -0.202D+00 0.282D+00 0.259D+00 0.661D+00
 Coeff-En:   0.000D+00 0.000D+00 0.192D+00 0.808D+00
 Coeff:     -0.125D+00 0.175D+00 0.233D+00 0.717D+00
 Gap=     0.263 Goal=   None    Shift=    0.000
 RMSDP=3.59D-03 MaxDP=3.44D-01 DE=-1.05D-01 OVMax= 2.96D-02

 Cycle   5  Pass 1  IDiag  1:
 RMSU=  1.23D-03    CP:  5.16D-01  2.56D+00  1.87D+00  8.83D-01
 E= -3010.53457571728     Delta-E=       -0.044215979333 Rises=F Damp=F
 DIIS: error= 6.86D-03 at cycle   5 NSaved=   5.
 NSaved= 5 IEnMin= 5 EnMin= -3010.53457571728     IErMin= 5 ErrMin= 6.86D-03
 ErrMax= 6.86D-03  0.00D+00 EMaxC= 1.00D-01 BMatC= 7.30D-03 BMatP= 2.27D-01
 IDIUse=3 WtCom= 9.31D-01 WtEn= 6.86D-02
 Coeff-Com: -0.139D+00 0.189D+00 0.322D-01 0.313D+00 0.605D+00
 Coeff-En:   0.000D+00 0.000D+00 0.000D+00 0.000D+00 0.100D+01
 Coeff:     -0.130D+00 0.176D+00 0.300D-01 0.292D+00 0.632D+00
 Gap=     0.252 Goal=   None    Shift=    0.000
 RMSDP=5.17D-04 MaxDP=3.32D-02 DE=-4.42D-02 OVMax= 1.08D-02

 Cycle   6  Pass 1  IDiag  1:
 RMSU=  3.99D-04    CP:  5.15D-01  2.55D+00  1.88D+00  8.85D-01  7.63D-01
 E= -3010.53606427634     Delta-E=       -0.001488559066 Rises=F Damp=F
 DIIS: error= 8.46D-04 at cycle   6 NSaved=   6.
 NSaved= 6 IEnMin= 6 EnMin= -3010.53606427634     IErMin= 6 ErrMin= 8.46D-04
 ErrMax= 8.46D-04  0.00D+00 EMaxC= 1.00D-01 BMatC= 1.04D-04 BMatP= 7.30D-03
 IDIUse=3 WtCom= 9.92D-01 WtEn= 8.46D-03
 Coeff-Com: -0.812D-01 0.109D+00-0.876D-02 0.127D+00 0.325D+00 0.529D+00
 Coeff-En:   0.000D+00 0.000D+00 0.000D+00 0.000D+00 0.000D+00 0.100D+01
 Coeff:     -0.805D-01 0.108D+00-0.868D-02 0.126D+00 0.322D+00 0.533D+00
 Gap=     0.253 Goal=   None    Shift=    0.000
 RMSDP=1.69D-04 MaxDP=1.11D-02 DE=-1.49D-03 OVMax= 4.73D-03

 Cycle   7  Pass 1  IDiag  1:
 RMSU=  9.26D-05    CP:  5.14D-01  2.53D+00  1.89D+00  8.91D-01  8.47D-01
                    CP:  9.11D-01
 E= -3010.53614017190     Delta-E=       -0.000075895555 Rises=F Damp=F
 DIIS: error= 5.30D-04 at cycle   7 NSaved=   7.
 NSaved= 7 IEnMin= 7 EnMin= -3010.53614017190     IErMin= 7 ErrMin= 5.30D-04
 ErrMax= 5.30D-04  0.00D+00 EMaxC= 1.00D-01 BMatC= 2.31D-05 BMatP= 1.04D-04
 IDIUse=3 WtCom= 9.95D-01 WtEn= 5.30D-03
 Coeff-Com: -0.349D-01 0.465D-01-0.129D-01 0.344D-01 0.107D+00 0.336D+00
 Coeff-Com:  0.524D+00
 Coeff-En:   0.000D+00 0.000D+00 0.000D+00 0.000D+00 0.000D+00 0.316D-01
 Coeff-En:   0.968D+00
 Coeff:     -0.347D-01 0.463D-01-0.129D-01 0.342D-01 0.107D+00 0.335D+00
 Coeff:      0.526D+00
 Gap=     0.253 Goal=   None    Shift=    0.000
 RMSDP=7.37D-05 MaxDP=4.62D-03 DE=-7.59D-05 OVMax= 2.56D-03

 Cycle   8  Pass 1  IDiag  1:
 RMSU=  4.99D-05    CP:  5.14D-01  2.53D+00  1.90D+00  8.95D-01  8.64D-01
                    CP:  9.85D-01  8.55D-01
 E= -3010.53615990357     Delta-E=       -0.000019731674 Rises=F Damp=F
 DIIS: error= 1.14D-04 at cycle   8 NSaved=   8.
 NSaved= 8 IEnMin= 8 EnMin= -3010.53615990357     IErMin= 8 ErrMin= 1.14D-04
 ErrMax= 1.14D-04  0.00D+00 EMaxC= 1.00D-01 BMatC= 2.64D-06 BMatP= 2.31D-05
 IDIUse=3 WtCom= 9.99D-01 WtEn= 1.14D-03
 Coeff-Com:  0.601D-02-0.825D-02-0.292D-02-0.161D-01-0.409D-01-0.175D-01
 Coeff-Com:  0.206D+00 0.874D+00
 Coeff-En:   0.000D+00 0.000D+00 0.000D+00 0.000D+00 0.000D+00 0.000D+00
 Coeff-En:   0.000D+00 0.100D+01
 Coeff:      0.600D-02-0.824D-02-0.291D-02-0.160D-01-0.409D-01-0.175D-01
 Coeff:      0.206D+00 0.874D+00
 Gap=     0.253 Goal=   None    Shift=    0.000
 RMSDP=5.81D-05 MaxDP=4.93D-03 DE=-1.97D-05 OVMax= 1.97D-03

 Cycle   9  Pass 1  IDiag  1:
 RMSU=  2.24D-05    CP:  5.14D-01  2.52D+00  1.90D+00  8.96D-01  8.69D-01
                    CP:  1.08D+00  1.09D+00  1.34D+00
 E= -3010.53616500695     Delta-E=       -0.000005103375 Rises=F Damp=F
 DIIS: error= 4.51D-05 at cycle   9 NSaved=   9.
 NSaved= 9 IEnMin= 9 EnMin= -3010.53616500695     IErMin= 9 ErrMin= 4.51D-05
 ErrMax= 4.51D-05  0.00D+00 EMaxC= 1.00D-01 BMatC= 2.37D-07 BMatP= 2.64D-06
 IDIUse=1 WtCom= 1.00D+00 WtEn= 0.00D+00
 Coeff-Com:  0.667D-02-0.896D-02 0.818D-03-0.987D-02-0.258D-01-0.542D-01
 Coeff-Com: -0.161D-01 0.266D+00 0.842D+00
 Coeff:      0.667D-02-0.896D-02 0.818D-03-0.987D-02-0.258D-01-0.542D-01
 Coeff:     -0.161D-01 0.266D+00 0.842D+00
 Gap=     0.253 Goal=   None    Shift=    0.000
 RMSDP=1.77D-05 MaxDP=1.35D-03 DE=-5.10D-06 OVMax= 9.61D-04

 Cycle  10  Pass 1  IDiag  1:
 RMSU=  7.09D-06    CP:  5.15D-01  2.52D+00  1.90D+00  8.96D-01  8.72D-01
                    CP:  1.11D+00  1.15D+00  1.47D+00  1.12D+00
 E= -3010.53616580792     Delta-E=       -0.000000800973 Rises=F Damp=F
 DIIS: error= 1.54D-05 at cycle  10 NSaved=  10.
 NSaved=10 IEnMin=10 EnMin= -3010.53616580792     IErMin=10 ErrMin= 1.54D-05
 ErrMax= 1.54D-05  0.00D+00 EMaxC= 1.00D-01 BMatC= 5.32D-08 BMatP= 2.37D-07
 IDIUse=1 WtCom= 1.00D+00 WtEn= 0.00D+00
 Coeff-Com:  0.423D-03-0.544D-03 0.347D-03-0.228D-03 0.106D-02-0.856D-02
 Coeff-Com: -0.317D-01-0.555D-01 0.235D+00 0.860D+00
 Coeff:      0.423D-03-0.544D-03 0.347D-03-0.228D-03 0.106D-02-0.856D-02
 Coeff:     -0.317D-01-0.555D-01 0.235D+00 0.860D+00
 Gap=     0.253 Goal=   None    Shift=    0.000
 RMSDP=8.56D-06 MaxDP=7.26D-04 DE=-8.01D-07 OVMax= 3.72D-04

 Cycle  11  Pass 1  IDiag  1:
 RMSU=  3.88D-06    CP:  5.15D-01  2.52D+00  1.90D+00  8.96D-01  8.72D-01
                    CP:  1.12D+00  1.16D+00  1.50D+00  1.23D+00  1.14D+00
 E= -3010.53616593331     Delta-E=       -0.000000125391 Rises=F Damp=F
 DIIS: error= 6.82D-06 at cycle  11 NSaved=  11.
 NSaved=11 IEnMin=11 EnMin= -3010.53616593331     IErMin=11 ErrMin= 6.82D-06
 ErrMax= 6.82D-06  0.00D+00 EMaxC= 1.00D-01 BMatC= 3.40D-09 BMatP= 5.32D-08
 IDIUse=1 WtCom= 1.00D+00 WtEn= 0.00D+00
 Coeff-Com: -0.341D-03 0.457D-03 0.112D-04 0.848D-03 0.279D-02 0.686D-02
 Coeff-Com:  0.488D-02-0.267D-01-0.123D+00-0.429D-01 0.118D+01
 Coeff:     -0.341D-03 0.457D-03 0.112D-04 0.848D-03 0.279D-02 0.686D-02
 Coeff:      0.488D-02-0.267D-01-0.123D+00-0.429D-01 0.118D+01
 Gap=     0.253 Goal=   None    Shift=    0.000
 RMSDP=3.51D-06 MaxDP=2.04D-04 DE=-1.25D-07 OVMax= 1.96D-04

 Cycle  12  Pass 1  IDiag  1:
 RMSU=  1.18D-06    CP:  5.15D-01  2.52D+00  1.90D+00  8.95D-01  8.72D-01
                    CP:  1.12D+00  1.16D+00  1.50D+00  1.28D+00  1.34D+00
                    CP:  1.34D+00
 E= -3010.53616595588     Delta-E=       -0.000000022567 Rises=F Damp=F
 DIIS: error= 1.74D-06 at cycle  12 NSaved=  12.
 NSaved=12 IEnMin=12 EnMin= -3010.53616595588     IErMin=12 ErrMin= 1.74D-06
 ErrMax= 1.74D-06  0.00D+00 EMaxC= 1.00D-01 BMatC= 9.69D-10 BMatP= 3.40D-09
 IDIUse=1 WtCom= 1.00D+00 WtEn= 0.00D+00
 Coeff-Com: -0.173D-03 0.230D-03-0.231D-04 0.347D-03 0.736D-03 0.320D-02
 Coeff-Com:  0.555D-02-0.379D-02-0.754D-01-0.120D+00 0.495D+00 0.693D+00
 Coeff:     -0.173D-03 0.230D-03-0.231D-04 0.347D-03 0.736D-03 0.320D-02
 Coeff:      0.555D-02-0.379D-02-0.754D-01-0.120D+00 0.495D+00 0.693D+00
 Gap=     0.253 Goal=   None    Shift=    0.000
 RMSDP=8.78D-07 MaxDP=3.80D-05 DE=-2.26D-08 OVMax= 4.33D-05

 Cycle  13  Pass 1  IDiag  1:
 RMSU=  3.79D-07    CP:  5.15D-01  2.52D+00  1.90D+00  8.95D-01  8.71D-01
                    CP:  1.12D+00  1.16D+00  1.50D+00  1.28D+00  1.36D+00
                    CP:  1.46D+00  8.48D-01
 E= -3010.53616595837     Delta-E=       -0.000000002490 Rises=F Damp=F
 DIIS: error= 5.28D-07 at cycle  13 NSaved=  13.
 NSaved=13 IEnMin=13 EnMin= -3010.53616595837     IErMin=13 ErrMin= 5.28D-07
 ErrMax= 5.28D-07  0.00D+00 EMaxC= 1.00D-01 BMatC= 1.27D-10 BMatP= 9.69D-10
 IDIUse=1 WtCom= 1.00D+00 WtEn= 0.00D+00
 Coeff-Com: -0.111D-04 0.151D-04-0.945D-05-0.720D-04-0.506D-03-0.110D-02
 Coeff-Com: -0.492D-03 0.396D-02 0.136D-01-0.612D-02-0.143D+00 0.112D+00
 Coeff-Com:  0.102D+01
 Coeff:     -0.111D-04 0.151D-04-0.945D-05-0.720D-04-0.506D-03-0.110D-02
 Coeff:     -0.492D-03 0.396D-02 0.136D-01-0.612D-02-0.143D+00 0.112D+00
 Coeff:      0.102D+01
 Gap=     0.253 Goal=   None    Shift=    0.000
 RMSDP=3.57D-07 MaxDP=1.71D-05 DE=-2.49D-09 OVMax= 1.78D-05

 Cycle  14  Pass 1  IDiag  1:
 RMSU=  1.60D-07    CP:  5.15D-01  2.52D+00  1.90D+00  8.95D-01  8.71D-01
                    CP:  1.12D+00  1.16D+00  1.50D+00  1.28D+00  1.37D+00
                    CP:  1.49D+00  1.06D+00  1.25D+00
 E= -3010.53616595891     Delta-E=       -0.000000000545 Rises=F Damp=F
 DIIS: error= 1.81D-07 at cycle  14 NSaved=  14.
 NSaved=14 IEnMin=14 EnMin= -3010.53616595891     IErMin=14 ErrMin= 1.81D-07
 ErrMax= 1.81D-07  0.00D+00 EMaxC= 1.00D-01 BMatC= 1.34D-11 BMatP= 1.27D-10
 IDIUse=1 WtCom= 1.00D+00 WtEn= 0.00D+00
 Coeff-Com:  0.146D-04-0.193D-04-0.148D-05-0.487D-04-0.137D-03-0.506D-03
 Coeff-Com: -0.658D-03 0.124D-02 0.115D-01 0.142D-01-0.895D-01-0.653D-01
 Coeff-Com:  0.116D+00 0.101D+01
 Coeff:      0.146D-04-0.193D-04-0.148D-05-0.487D-04-0.137D-03-0.506D-03
 Coeff:     -0.658D-03 0.124D-02 0.115D-01 0.142D-01-0.895D-01-0.653D-01
 Coeff:      0.116D+00 0.101D+01
 Gap=     0.253 Goal=   None    Shift=    0.000
 RMSDP=1.40D-07 MaxDP=8.37D-06 DE=-5.45D-10 OVMax= 1.02D-05

 Cycle  15  Pass 1  IDiag  1:
 RMSU=  7.12D-08    CP:  5.15D-01  2.52D+00  1.90D+00  8.95D-01  8.71D-01
                    CP:  1.12D+00  1.16D+00  1.50D+00  1.28D+00  1.37D+00
                    CP:  1.49D+00  1.10D+00  1.42D+00  1.39D+00
 E= -3010.53616595904     Delta-E=       -0.000000000123 Rises=F Damp=F
 DIIS: error= 9.43D-08 at cycle  15 NSaved=  15.
 NSaved=15 IEnMin=15 EnMin= -3010.53616595904     IErMin=15 ErrMin= 9.43D-08
 ErrMax= 9.43D-08  0.00D+00 EMaxC= 1.00D-01 BMatC= 4.76D-12 BMatP= 1.34D-11
 IDIUse=1 WtCom= 1.00D+00 WtEn= 0.00D+00
 Coeff-Com:  0.841D-05-0.113D-04 0.163D-05 0.372D-05 0.938D-04 0.172D-03
 Coeff-Com: -0.192D-04-0.705D-03-0.970D-03 0.490D-02 0.113D-01-0.356D-01
 Coeff-Com: -0.219D+00 0.341D+00 0.898D+00
 Coeff:      0.841D-05-0.113D-04 0.163D-05 0.372D-05 0.938D-04 0.172D-03
 Coeff:     -0.192D-04-0.705D-03-0.970D-03 0.490D-02 0.113D-01-0.356D-01
 Coeff:     -0.219D+00 0.341D+00 0.898D+00
 Gap=     0.253 Goal=   None    Shift=    0.000
 RMSDP=9.05D-08 MaxDP=4.76D-06 DE=-1.23D-10 OVMax= 5.14D-06

 Cycle  16  Pass 1  IDiag  1:
 RMSU=  2.50D-08    CP:  5.15D-01  2.52D+00  1.90D+00  8.95D-01  8.71D-01
                    CP:  1.12D+00  1.16D+00  1.50D+00  1.28D+00  1.37D+00
                    CP:  1.49D+00  1.14D+00  1.45D+00  1.65D+00  1.54D+00
 E= -3010.53616595910     Delta-E=       -0.000000000062 Rises=F Damp=F
 DIIS: error= 4.19D-08 at cycle  16 NSaved=  16.
 NSaved=16 IEnMin=16 EnMin= -3010.53616595910     IErMin=16 ErrMin= 4.19D-08
 ErrMax= 4.19D-08  0.00D+00 EMaxC= 1.00D-01 BMatC= 5.22D-13 BMatP= 4.76D-12
 IDIUse=1 WtCom= 1.00D+00 WtEn= 0.00D+00
 Coeff-Com: -0.442D-06 0.569D-06 0.666D-06 0.750D-05 0.363D-04 0.110D-03
 Coeff-Com:  0.838D-04-0.349D-03-0.189D-02-0.483D-03 0.154D-01 0.395D-02
 Coeff-Com: -0.655D-01-0.105D+00 0.537D-01 0.110D+01
 Coeff:     -0.442D-06 0.569D-06 0.666D-06 0.750D-05 0.363D-04 0.110D-03
 Coeff:      0.838D-04-0.349D-03-0.189D-02-0.483D-03 0.154D-01 0.395D-02
 Coeff:     -0.655D-01-0.105D+00 0.537D-01 0.110D+01
 Gap=     0.253 Goal=   None    Shift=    0.000
 RMSDP=5.58D-08 MaxDP=5.22D-06 DE=-6.18D-11 OVMax= 2.61D-06

 Cycle  17  Pass 1  IDiag  1:
 RMSU=  1.15D-08    CP:  5.15D-01  2.52D+00  1.90D+00  8.95D-01  8.71D-01
                    CP:  1.12D+00  1.16D+00  1.50D+00  1.28D+00  1.38D+00
                    CP:  1.49D+00  1.15D+00  1.46D+00  1.79D+00  1.91D+00
                    CP:  1.29D+00
 E= -3010.53616595904     Delta-E=        0.000000000062 Rises=F Damp=F
 DIIS: error= 1.60D-08 at cycle  17 NSaved=  17.
 NSaved=17 IEnMin=16 EnMin= -3010.53616595910     IErMin=17 ErrMin= 1.60D-08
 ErrMax= 1.60D-08  0.00D+00 EMaxC= 1.00D-01 BMatC= 1.04D-13 BMatP= 5.22D-13
 IDIUse=1 WtCom= 1.00D+00 WtEn= 0.00D+00
 Coeff-Com: -0.584D-06 0.781D-06-0.991D-07-0.645D-06-0.114D-04-0.109D-04
 Coeff-Com:  0.219D-04 0.107D-03-0.137D-03-0.893D-03-0.259D-03 0.659D-02
 Coeff-Com:  0.264D-01-0.535D-01-0.165D+00 0.214D+00 0.973D+00
 Coeff:     -0.584D-06 0.781D-06-0.991D-07-0.645D-06-0.114D-04-0.109D-04
 Coeff:      0.219D-04 0.107D-03-0.137D-03-0.893D-03-0.259D-03 0.659D-02
 Coeff:      0.264D-01-0.535D-01-0.165D+00 0.214D+00 0.973D+00
 Gap=     0.253 Goal=   None    Shift=    0.000
 RMSDP=1.55D-08 MaxDP=8.98D-07 DE= 6.18D-11 OVMax= 6.35D-07

 Cycle  18  Pass 1  IDiag  1:
 RMSU=  3.69D-09    CP:  5.15D-01  2.52D+00  1.90D+00  8.95D-01  8.71D-01
                    CP:  1.12D+00  1.16D+00  1.50D+00  1.28D+00  1.38D+00
                    CP:  1.49D+00  1.16D+00  1.46D+00  1.81D+00  2.02D+00
                    CP:  1.48D+00  1.29D+00
 E= -3010.53616595906     Delta-E=       -0.000000000021 Rises=F Damp=F
 DIIS: error= 6.45D-09 at cycle  18 NSaved=  18.
 NSaved=18 IEnMin=16 EnMin= -3010.53616595910     IErMin=18 ErrMin= 6.45D-09
 ErrMax= 6.45D-09  0.00D+00 EMaxC= 1.00D-01 BMatC= 1.56D-14 BMatP= 1.04D-13
 IDIUse=1 WtCom= 1.00D+00 WtEn= 0.00D+00
 Coeff-Com:  0.492D-08-0.424D-08-0.775D-07-0.135D-05-0.906D-05-0.178D-04
 Coeff-Com: -0.488D-05 0.799D-04 0.180D-03-0.238D-03-0.196D-02 0.227D-02
 Coeff-Com:  0.181D-01-0.696D-02-0.812D-01-0.390D-01 0.363D+00 0.746D+00
 Coeff:      0.492D-08-0.424D-08-0.775D-07-0.135D-05-0.906D-05-0.178D-04
 Coeff:     -0.488D-05 0.799D-04 0.180D-03-0.238D-03-0.196D-02 0.227D-02
 Coeff:      0.181D-01-0.696D-02-0.812D-01-0.390D-01 0.363D+00 0.746D+00
 Gap=     0.253 Goal=   None    Shift=    0.000
 RMSDP=4.93D-09 MaxDP=2.31D-07 DE=-2.09D-11 OVMax= 1.60D-07

 SCF Done:  E(RwB97XD) =  -3010.53616596     A.U. after   18 cycles
            NFock= 18  Conv=0.49D-08     -V/T= 2.0016
 KE= 3.005848621684D+03 PE=-8.631447860594D+03 EE= 1.876403251172D+03
 Leave Link  502 at Wed May  1 15:24:49 2024, MaxMem=  1207959552 cpu:            1011.0 elap:            1011.2
 (Enter /software/gaussian/g16-c01/sse4/g16/l601.exe)
 Copying SCF densities to generalized density rwf, IOpCl= 0 IROHF=0.

 **********************************************************************

            Population analysis using the SCF Density.

 **********************************************************************

 Alpha  occ. eigenvalues -- -483.30352 -62.85367 -56.65071 -56.64483 -56.64481
 Alpha  occ. eigenvalues --  -19.45474 -19.45405 -14.84977 -10.57730 -10.57029
 Alpha  occ. eigenvalues --  -10.56741 -10.56541 -10.56305 -10.52531  -9.01166
 Alpha  occ. eigenvalues --   -6.83873  -6.81953  -6.81939  -2.93771  -2.93261
 Alpha  occ. eigenvalues --   -2.93248  -2.91713  -2.91713  -1.49240  -1.32217
 Alpha  occ. eigenvalues --   -1.22157  -1.13507  -1.11277  -1.03613  -1.00606
 Alpha  occ. eigenvalues --   -0.94964  -0.90499  -0.84864  -0.80340  -0.80195
 Alpha  occ. eigenvalues --   -0.79570  -0.77882  -0.75680  -0.75474  -0.71699
 Alpha  occ. eigenvalues --   -0.68884  -0.67100  -0.63062  -0.59521  -0.56705
 Alpha  occ. eigenvalues --   -0.55771  -0.55408  -0.55164  -0.54365
 Alpha virt. eigenvalues --   -0.29071  -0.20900  -0.15006  -0.12862  -0.08916
 Alpha virt. eigenvalues --   -0.06236  -0.05907  -0.04998  -0.03337  -0.03014
 Alpha virt. eigenvalues --   -0.02194  -0.01879  -0.00494  -0.00274   0.01114
 Alpha virt. eigenvalues --    0.01767   0.02150   0.02625   0.03479   0.03938
 Alpha virt. eigenvalues --    0.04724   0.04809   0.05294   0.06263   0.06980
 Alpha virt. eigenvalues --    0.07358   0.07773   0.07967   0.09290   0.09599
 Alpha virt. eigenvalues --    0.10848   0.11240   0.11526   0.12160   0.12988
 Alpha virt. eigenvalues --    0.13095   0.13394   0.13906   0.15296   0.16384
 Alpha virt. eigenvalues --    0.16825   0.17483   0.17966   0.18769   0.19013
 Alpha virt. eigenvalues --    0.19643   0.21402   0.21690   0.22104   0.24762
 Alpha virt. eigenvalues --    0.25539   0.28044   0.28598   0.30103   0.32768
 Alpha virt. eigenvalues --    0.33780   0.34014   0.34727   0.35286   0.36313
 Alpha virt. eigenvalues --    0.37596   0.38337   0.39590   0.40900   0.42391
 Alpha virt. eigenvalues --    0.42931   0.44056   0.44530   0.46577   0.47802
 Alpha virt. eigenvalues --    0.48038   0.50662   0.51393   0.52607   0.53841
 Alpha virt. eigenvalues --    0.54590   0.55575   0.56928   0.57344   0.59799
 Alpha virt. eigenvalues --    0.61616   0.62658   0.64554   0.67323   0.69005
 Alpha virt. eigenvalues --    0.70518   0.72535   0.72862   0.73627   0.74577
 Alpha virt. eigenvalues --    0.74959   0.79627   0.80293   0.83747   0.85529
 Alpha virt. eigenvalues --    0.86857   0.88344   0.92134   0.93504   0.98961
 Alpha virt. eigenvalues --    0.99957   1.01431   1.05057   1.05684   1.06926
 Alpha virt. eigenvalues --    1.09580   1.11253   1.12394   1.12826   1.14574
 Alpha virt. eigenvalues --    1.22377   1.24831   1.27061   1.33330   1.36845
 Alpha virt. eigenvalues --    1.37214   1.38399   1.45582   1.54733   1.57461
 Alpha virt. eigenvalues --    1.58845   1.59131   1.60959   1.62736   1.66695
 Alpha virt. eigenvalues --    1.69486   1.70117   1.73899   1.75630   1.79394
 Alpha virt. eigenvalues --    1.81465   1.85796   1.87762   1.94296   1.96379
 Alpha virt. eigenvalues --    1.98376   2.03275   2.04213   2.07403   2.08495
 Alpha virt. eigenvalues --    2.10050   2.15120   2.20723   2.22997   2.29657
 Alpha virt. eigenvalues --    2.37903   2.41499   2.42816   2.43823   2.52826
 Alpha virt. eigenvalues --    2.56990   2.63380   2.66436   2.68544   2.72078
 Alpha virt. eigenvalues --    2.73741   2.76862   2.77699   2.81399   2.82154
 Alpha virt. eigenvalues --    2.93913   2.96706   3.01014   3.05952   3.09302
 Alpha virt. eigenvalues --    3.13326   3.15288   3.19393   3.24039   3.24630
 Alpha virt. eigenvalues --    3.27718   3.39475   3.47971   3.51586   3.54844
 Alpha virt. eigenvalues --    3.57210   3.70300   3.74479   3.82531   3.87543
 Alpha virt. eigenvalues --    4.09852   4.10079   4.17504   4.22733   4.43534
 Alpha virt. eigenvalues --    4.44717   4.57824   4.60258   4.93564   4.96229
 Alpha virt. eigenvalues --    5.04879   5.09047   5.63198   6.16135   6.65524
 Alpha virt. eigenvalues --    7.48538   7.50106   7.59841  23.21690  23.61651
 Alpha virt. eigenvalues --   23.70057  23.79859  23.96394  24.01766  35.32980
 Alpha virt. eigenvalues --   47.92073  49.85948  49.94759 289.81393 289.83061
 Alpha virt. eigenvalues --  289.954921020.92480
          Condensed to atoms (all electrons):
               1          2          3          4          5          6
     1  C    8.812925  -2.171756   0.092490  -1.487756  -0.612194   0.307013
     2  C   -2.171756  12.614416  -1.603688  -2.813377   0.651188  -0.013683
     3  C    0.092490  -1.603688  13.100087  -3.266561  -1.159762   0.024514
     4  C   -1.487756  -2.813377  -3.266561  15.105182   1.166900   0.008220
     5  C   -0.612194   0.651188  -1.159762   1.166900   7.368236   0.015558
     6  H    0.307013  -0.013683   0.024514   0.008220   0.015558   0.337234
     7  H    0.067886   0.231808   0.076721  -0.033173  -0.020509  -0.001804
     8  H    0.004118  -0.010023   0.073321   0.241961  -0.019598   0.000002
     9  H    0.033451  -0.015217   0.003118  -0.006388   0.305696  -0.002363
    10  N   -0.136482   0.341090  -0.914791   0.302946   0.010462  -0.000634
    11  O    0.015155  -0.069707  -0.262522  -0.018355  -0.057386  -0.000021
    12  O    0.320669  -0.048061  -0.282095  -0.070924  -0.042959   0.000024
    13  C    1.297382  -1.607454   0.782110  -3.382050  -1.622242  -0.006222
    14  H   -0.013593  -0.002388   0.003920  -0.052478  -0.013531  -0.000053
    15  Br   0.039134   0.016656   0.043971   0.025944   0.041857  -0.000318
               7          8          9         10         11         12
     1  C    0.067886   0.004118   0.033451  -0.136482   0.015155   0.320669
     2  C    0.231808  -0.010023  -0.015217   0.341090  -0.069707  -0.048061
     3  C    0.076721   0.073321   0.003118  -0.914791  -0.262522  -0.282095
     4  C   -0.033173   0.241961  -0.006388   0.302946  -0.018355  -0.070924
     5  C   -0.020509  -0.019598   0.305696   0.010462  -0.057386  -0.042959
     6  H   -0.001804   0.000002  -0.002363  -0.000634  -0.000021   0.000024
     7  H    0.301616   0.000003   0.000021  -0.025569  -0.001491   0.022166
     8  H    0.000003   0.296855   0.000120  -0.023600   0.023014  -0.000925
     9  H    0.000021   0.000120   0.329789   0.000432   0.000001   0.000007
    10  N   -0.025569  -0.023600   0.000432   7.348792   0.193936   0.154145
    11  O   -0.001491   0.023014   0.000001   0.193936   7.835395   0.000055
    12  O    0.022166  -0.000925   0.000007   0.154145   0.000055   7.875880
    13  C    0.016223   0.043388   0.006325  -0.146427   0.310254   0.041689
    14  H   -0.000025  -0.004915  -0.006287  -0.000469  -0.000220  -0.000052
    15  Br   0.000001   0.003719   0.002172   0.004209   0.000731   0.002176
              13         14         15
     1  C    1.297382  -0.013593   0.039134
     2  C   -1.607454  -0.002388   0.016656
     3  C    0.782110   0.003920   0.043971
     4  C   -3.382050  -0.052478   0.025944
     5  C   -1.622242  -0.013531   0.041857
     6  H   -0.006222  -0.000053  -0.000318
     7  H    0.016223  -0.000025   0.000001
     8  H    0.043388  -0.004915   0.003719
     9  H    0.006325  -0.006287   0.002172
    10  N   -0.146427  -0.000469   0.004209
    11  O    0.310254  -0.000220   0.000731
    12  O    0.041689  -0.000052   0.002176
    13  C   10.340577   0.380622   0.013156
    14  H    0.380622   0.367829  -0.045503
    15  Br   0.013156  -0.045503  34.632689
 Mulliken charges:
               1
     1  C   -0.568443
     2  C    0.500198
     3  C   -0.710833
     4  C    0.279909
     5  C   -0.011716
     6  H    0.332535
     7  H    0.366126
     8  H    0.372560
     9  H    0.349122
    10  N   -0.108040
    11  O    0.031159
    12  O    0.028205
    13  C   -0.467330
    14  H    0.387143
    15  Br   0.219405
 Sum of Mulliken charges =   1.00000
 Mulliken charges with hydrogens summed into heavy atoms:
               1
     1  C   -0.235908
     2  C    0.866324
     3  C   -0.710833
     4  C    0.652469
     5  C    0.337406
    10  N   -0.108040
    11  O    0.031159
    12  O    0.028205
    13  C   -0.080187
    15  Br   0.219405
 Electronic spatial extent (au):  <R**2>=           2797.6659
 Charge=              1.0000 electrons
 Dipole moment (field-independent basis, Debye):
    X=             -0.9458    Y=             -0.7689    Z=             -0.8520  Tot=              1.4872
 Quadrupole moment (field-independent basis, Debye-Ang):
   XX=            -71.4151   YY=            -51.7432   ZZ=            -61.7447
   XY=              1.4334   XZ=              0.7272   YZ=              2.3704
 Traceless Quadrupole moment (field-independent basis, Debye-Ang):
   XX=             -9.7808   YY=              9.8911   ZZ=             -0.1104
   XY=              1.4334   XZ=              0.7272   YZ=              2.3704
 Octapole moment (field-independent basis, Debye-Ang**2):
  XXX=           -300.4238  YYY=             86.3025  ZZZ=             73.5169  XYY=            -76.5918
  XXY=             29.8093  XXZ=             29.4339  XZZ=            -78.7084  YZZ=             14.3162
  YYZ=             22.8124  XYZ=             -3.8707
 Hexadecapole moment (field-independent basis, Debye-Ang**3):
 XXXX=          -2282.3535 YYYY=           -673.8826 ZZZZ=           -339.3505 XXXY=            -67.8561
 XXXZ=            -29.2280 YYYX=            -58.7466 YYYZ=           -150.9152 ZZZX=            -17.5915
 ZZZY=           -129.8937 XXYY=           -456.1560 XXZZ=           -369.2616 YYZZ=           -158.9619
 XXYZ=            -53.8743 YYXZ=             -1.9603 ZZXY=             -7.3929
 N-N= 7.386598217788D+02 E-N=-8.631447861035D+03  KE= 3.005848621684D+03
 No NMR shielding tensors so no spin-rotation constants.
 Leave Link  601 at Wed May  1 15:24:57 2024, MaxMem=  1207959552 cpu:               7.5 elap:               7.5
 (Enter /software/gaussian/g16-c01/sse4/g16/l9999.exe)
 Unable to Open any file for archive entry.
 1\1\GINC-BHX0018\SP\RwB97XD\6-311+G(d)\C6H5Br1N1O2(1+)\BWEIGHT\01-May-
 2024\0\\#P wB97XD/6-311+G* NoSymm #P Field=Z+48\\TitleMe\\1,1\C,0,0.02
 95,1.3397,0.0682\C,0,1.4348,1.2867,0.0064\C,0,2.1118,0.0511,-0.0054\C,
 0,1.4451,-1.1372,0.0312\C,0,-0.6879,0.1682,0.11\H,0,-0.4713,2.2984,0.0
 781\H,0,2.0273,2.1965,-0.0322\H,0,1.9897,-2.0764,0.0232\H,0,-1.7716,0.
 1804,0.1582\N,0,3.5864,0.051,-0.0675\O,0,4.1471,-1.0597,-0.0881\O,0,4.
 145,1.1639,-0.0901\C,0,-0.0236,-1.1458,0.0835\H,0,-0.4367,-1.8725,0.78
 89\Br,0,-0.5359,-1.8697,-1.7408\\Version=ES64L-G16RevC.01\HF=-3010.536
 166\RMSD=4.932e-09\Dipole=-2.278657,0.8455562,0.8109829\Quadrupole=-7.
 2717662,7.353813,-0.0820467,1.0657072,0.5406549,1.7623659\PG=C01 [X(C6
 H5Br1N1O2)]\\@
 The archive entry for this job was punched.


 LET US PLACE AT THE END OF EVERY CHAPTER.....THE
 TWO LETTERS USED BY THE ROMAN JUDGES WHEN THEY DID
 NOT UNDERSTAND A PLEADING.
 N. L. -NON LIQUET- IT IS NOT CLEAR.
                                              -- VOLTAIRE
 Job cpu time:       0 days  0 hours 17 minutes 57.4 seconds.
 Elapsed time:       0 days  0 hours 17 minutes 57.6 seconds.
 File lengths (MBytes):  RWF=     40 Int=      0 D2E=      0 Chk=     32 Scr=      1
 Normal termination of Gaussian 16 at Wed May  1 15:24:58 2024.
