 Entering Gaussian System, Link 0=g16
 Initial command:
 /software/gaussian/g16-c01/sse4/g16/l1.exe "/local_scratch/24665363/Gau-29772.inp" -scrdir="/local_scratch/24665363/"
 Entering Link 1 = /software/gaussian/g16-c01/sse4/g16/l1.exe PID=     29794.
  
 Copyright (c) 1988-2019, Gaussian, Inc.  All Rights Reserved.
  
 This is part of the Gaussian(R) 16 program.  It is based on
 the Gaussian(R) 09 system (copyright 2009, Gaussian, Inc.),
 the Gaussian(R) 03 system (copyright 2003, Gaussian, Inc.),
 the Gaussian(R) 98 system (copyright 1998, Gaussian, Inc.),
 the Gaussian(R) 94 system (copyright 1995, Gaussian, Inc.),
 the Gaussian 92(TM) system (copyright 1992, Gaussian, Inc.),
 the Gaussian 90(TM) system (copyright 1990, Gaussian, Inc.),
 the Gaussian 88(TM) system (copyright 1988, Gaussian, Inc.),
 the Gaussian 86(TM) system (copyright 1986, Carnegie Mellon
 University), and the Gaussian 82(TM) system (copyright 1983,
 Carnegie Mellon University). Gaussian is a federally registered
 trademark of Gaussian, Inc.
  
 This software contains proprietary and confidential information,
 including trade secrets, belonging to Gaussian, Inc.
  
 This software is provided under written license and may be
 used, copied, transmitted, or stored only in accord with that
 written license.
  
 The following legend is applicable only to US Government
 contracts under FAR:
  
                    RESTRICTED RIGHTS LEGEND
  
 Use, reproduction and disclosure by the US Government is
 subject to restrictions as set forth in subparagraphs (a)
 and (c) of the Commercial Computer Software - Restricted
 Rights clause in FAR 52.227-19.
  
 Gaussian, Inc.
 340 Quinnipiac St., Bldg. 40, Wallingford CT 06492
  
  
 ---------------------------------------------------------------
 Warning -- This program may not be used in any manner that
 competes with the business of Gaussian, Inc. or will provide
 assistance to any competitor of Gaussian, Inc.  The licensee
 of this program is prohibited from giving any competitor of
 Gaussian, Inc. access to this program.  By using this program,
 the user acknowledges that Gaussian, Inc. is engaged in the
 business of creating and licensing software in the field of
 computational chemistry and represents and warrants to the
 licensee that it is not a competitor of Gaussian, Inc. and that
 it will not use this program in any manner prohibited above.
 ---------------------------------------------------------------
  

 Cite this work as:
 Gaussian 16, Revision C.01,
 M. J. Frisch, G. W. Trucks, H. B. Schlegel, G. E. Scuseria, 
 M. A. Robb, J. R. Cheeseman, G. Scalmani, V. Barone, 
 G. A. Petersson, H. Nakatsuji, X. Li, M. Caricato, A. V. Marenich, 
 J. Bloino, B. G. Janesko, R. Gomperts, B. Mennucci, H. P. Hratchian, 
 J. V. Ortiz, A. F. Izmaylov, J. L. Sonnenberg, D. Williams-Young, 
 F. Ding, F. Lipparini, F. Egidi, J. Goings, B. Peng, A. Petrone, 
 T. Henderson, D. Ranasinghe, V. G. Zakrzewski, J. Gao, N. Rega, 
 G. Zheng, W. Liang, M. Hada, M. Ehara, K. Toyota, R. Fukuda, 
 J. Hasegawa, M. Ishida, T. Nakajima, Y. Honda, O. Kitao, H. Nakai, 
 T. Vreven, K. Throssell, J. A. Montgomery, Jr., J. E. Peralta, 
 F. Ogliaro, M. J. Bearpark, J. J. Heyd, E. N. Brothers, K. N. Kudin, 
 V. N. Staroverov, T. A. Keith, R. Kobayashi, J. Normand, 
 K. Raghavachari, A. P. Rendell, J. C. Burant, S. S. Iyengar, 
 J. Tomasi, M. Cossi, J. M. Millam, M. Klene, C. Adamo, R. Cammi, 
 J. W. Ochterski, R. L. Martin, K. Morokuma, O. Farkas, 
 J. B. Foresman, and D. J. Fox, Gaussian, Inc., Wallingford CT, 2019.
 
 ******************************************
 Gaussian 16:  ES64L-G16RevC.01  3-Jul-2019
                 2-May-2024 
 ******************************************
 %chk=geometry.chk
 %mem=1GB
 %nprocshared=12
 Will use up to   12 processors via shared memory.
 ----------------------------------------
 #P wB97XD/6-311+G* NoSymm #P Field=Z-194
 ----------------------------------------
 1/38=1,172=1/1;
 2/12=2,15=1,17=6,18=5,40=1/2;
 3/5=4,6=6,7=11,11=2,14=3,15=-194,25=1,30=1,74=-58/1,2,3;
 4//1;
 5/5=2,38=5/2;
 6/7=2,8=2,9=2,10=2,28=1/1;
 99/5=1,9=1/99;
 Leave Link    1 at Thu May  2 13:58:21 2024, MaxMem=   134217728 cpu:               1.7 elap:               1.9
 (Enter /software/gaussian/g16-c01/sse4/g16/l101.exe)
 -------
 TitleMe
 -------
 Symbolic Z-matrix:
 Charge =  1 Multiplicity = 1
 C                     0.5193    1.233    -0.0319 
 C                     1.9445    1.2692   -0.0367 
 C                     2.6204    0.0928   -0.025 
 C                    -0.196     0.0301    0.001 
 H                    -0.0207    2.1742   -0.0434 
 H                     2.4828    2.2089   -0.0361 
 H                    -1.2777    0.0399    0.0117 
 N                     4.0921    0.0959    0.0366 
 O                     4.6393   -1.0217    0.1446 
 O                     4.6649    1.1984   -0.0233 
 C                     0.4943   -1.1671    0.021 
 H                    -0.0325   -2.1149    0.0545 
 C                     1.9629   -1.2165   -0.0211 
 H                     2.4436   -1.9631    0.6151 
 Br                    2.173    -1.9491   -1.9062 
 
 ITRead=  0  0  0  0  0  0  0  0  0  0  0  0  0  0  0
 MicOpt= -1 -1 -1 -1 -1 -1 -1 -1 -1 -1 -1 -1 -1 -1 -1
 NAtoms=     15 NQM=       15 NQMF=       0 NMMI=      0 NMMIF=      0
                NMic=       0 NMicF=      0.
                    Isotopes and Nuclear Properties:
 (Nuclear quadrupole moments (NQMom) in fm**2, nuclear magnetic moments (NMagM)
  in nuclear magnetons)

  Atom         1           2           3           4           5           6           7           8           9          10
 IAtWgt=          12          12          12          12           1           1           1          14          16          16
 AtmWgt=  12.0000000  12.0000000  12.0000000  12.0000000   1.0078250   1.0078250   1.0078250  14.0030740  15.9949146  15.9949146
 NucSpn=           0           0           0           0           1           1           1           2           0           0
 AtZEff=  -0.0000000  -0.0000000  -0.0000000  -0.0000000  -0.0000000  -0.0000000  -0.0000000  -0.0000000  -0.0000000  -0.0000000
 NQMom=    0.0000000   0.0000000   0.0000000   0.0000000   0.0000000   0.0000000   0.0000000   2.0440000   0.0000000   0.0000000
 NMagM=    0.0000000   0.0000000   0.0000000   0.0000000   2.7928460   2.7928460   2.7928460   0.4037610   0.0000000   0.0000000
 AtZNuc=   6.0000000   6.0000000   6.0000000   6.0000000   1.0000000   1.0000000   1.0000000   7.0000000   8.0000000   8.0000000

  Atom        11          12          13          14          15
 IAtWgt=          12           1          12           1          79
 AtmWgt=  12.0000000   1.0078250  12.0000000   1.0078250  78.9183361
 NucSpn=           0           1           0           1           3
 AtZEff=  -0.0000000  -0.0000000  -0.0000000  -0.0000000  -0.0000000
 NQMom=    0.0000000   0.0000000   0.0000000   0.0000000  31.3000000
 NMagM=    0.0000000   2.7928460   0.0000000   2.7928460   2.1063990
 AtZNuc=   6.0000000   1.0000000   6.0000000   1.0000000  35.0000000
 Leave Link  101 at Thu May  2 13:58:23 2024, MaxMem=   134217728 cpu:               1.6 elap:               1.6
 (Enter /software/gaussian/g16-c01/sse4/g16/l202.exe)
                          Input orientation:                          
 ---------------------------------------------------------------------
 Center     Atomic      Atomic             Coordinates (Angstroms)
 Number     Number       Type             X           Y           Z
 ---------------------------------------------------------------------
      1          6           0        0.519300    1.233000   -0.031900
      2          6           0        1.944500    1.269200   -0.036700
      3          6           0        2.620400    0.092800   -0.025000
      4          6           0       -0.196000    0.030100    0.001000
      5          1           0       -0.020700    2.174200   -0.043400
      6          1           0        2.482800    2.208900   -0.036100
      7          1           0       -1.277700    0.039900    0.011700
      8          7           0        4.092100    0.095900    0.036600
      9          8           0        4.639300   -1.021700    0.144600
     10          8           0        4.664900    1.198400   -0.023300
     11          6           0        0.494300   -1.167100    0.021000
     12          1           0       -0.032500   -2.114900    0.054500
     13          6           0        1.962900   -1.216500   -0.021100
     14          1           0        2.443600   -1.963100    0.615100
     15         35           0        2.173000   -1.949100   -1.906200
 ---------------------------------------------------------------------
                    Distance matrix (angstroms):
                    1          2          3          4          5
     1  C    0.000000
     2  C    1.425668   0.000000
     3  C    2.390549   1.356796   0.000000
     4  C    1.399895   2.473566   2.817218   0.000000
     5  H    1.085168   2.163581   3.362733   2.151712   0.000000
     6  H    2.192654   1.082960   2.120598   3.453189   2.503751
     7  H    2.157452   3.449071   3.898632   1.081797   2.477564
     8  N    3.750012   2.448304   1.472992   4.288753   4.608780
     9  O    4.699917   3.541615   2.312322   4.950458   5.653735
    10  O    4.145753   2.721354   2.324292   4.999386   4.786171
    11  C    2.400813   2.835836   2.471794   1.382101   3.381369
    12  H    3.394169   3.920329   3.452266   2.151887   4.290233
    13  C    2.843264   2.485817   1.465124   2.493060   3.928360
    14  H    3.786370   3.334922   2.160489   3.364142   4.860416
    15  Br   4.046416   3.728900   2.812194   3.628609   5.028314
                    6          7          8          9         10
     6  H    0.000000
     7  H    4.341452   0.000000
     8  N    2.657047   5.370150   0.000000
     9  O    3.888434   6.012948   1.249048   0.000000
    10  O    2.404752   6.054572   1.243863   2.226587   0.000000
    11  C    3.918516   2.144043   3.813080   4.149391   4.794941
    12  H    5.003018   2.489080   4.679774   4.798846   5.748876
    13  C    3.464662   3.475788   2.501842   2.688591   3.623886
    14  H    4.222698   4.268978   2.700314   2.434893   3.916224
    15  Br   4.569706   4.420610   3.411663   3.338935   4.434144
                   11         12         13         14         15
    11  C    0.000000
    12  H    1.084880   0.000000
    13  C    1.470034   2.189625   0.000000
    14  H    2.187771   2.543302   1.092353   0.000000
    15  Br   2.672762   2.955683   2.033334   2.535818   0.000000
 Symmetry turned off by external request.
 Stoichiometry    C6H5BrNO2(1+)
 Framework group  C1[X(C6H5BrNO2)]
 Deg. of freedom    39
 Full point group                 C1      NOp   1
 Rotational constants (GHZ):           1.1632986           0.9594224           0.5957624
 Leave Link  202 at Thu May  2 13:58:24 2024, MaxMem=   134217728 cpu:               1.3 elap:               1.3
 (Enter /software/gaussian/g16-c01/sse4/g16/l301.exe)
 Standard basis: 6-311+G(d) (5D, 7F)
 Ernie: Thresh=  0.10000D-02 Tol=  0.10000D-05 Strict=F.
 The following finite field(s) will be applied:
 An electric field of              0.0000  0.0000 -0.0194
   261 basis functions,   443 primitive gaussians,   273 cartesian basis functions
    49 alpha electrons       49 beta electrons
       nuclear repulsion energy       772.8945969580 Hartrees.
 IExCor= 4639 DFT=T Ex+Corr=wB97XD ExCW=0 ScaHFX=  1.000000
 ScaDFX=  1.000000  1.000000  1.000000  1.000000 ScalE2=  1.000000  1.000000
 IRadAn=      5 IRanWt=     -1 IRanGd=            0 ICorTp=0 IEmpDi=121
 HFx  wShort=  0.000000 wLong=  0.200000 cFull=  0.222036 cShort=  0.000000 cLong=  0.777964
 DFx  wShort=  0.000000 wLong=  0.200000 cFull=  0.000000 cShort=  0.000000 cLong=  1.000000
 NAtoms=   15 NActive=   15 NUniq=   15 SFac= 1.00D+00 NAtFMM=   60 NAOKFM=F Big=F
 Integral buffers will be    131072 words long.
 Raffenetti 2 integral format.
 Two-electron integral symmetry is turned off.
 R6Disp:  Grimme-D2 Dispersion energy=       -0.0080346408 Hartrees.
 Nuclear repulsion after empirical dispersion term =      772.8865623173 Hartrees.
 Leave Link  301 at Thu May  2 13:58:25 2024, MaxMem=   134217728 cpu:               1.0 elap:               1.0
 (Enter /software/gaussian/g16-c01/sse4/g16/l302.exe)
 NPDir=0 NMtPBC=     1 NCelOv=     1 NCel=       1 NClECP=     1 NCelD=      1
         NCelK=      1 NCelE2=     1 NClLst=     1 CellRange=     0.0.
 One-electron integrals computed using PRISM.
 NBasis=   261 RedAO= T EigKep=  2.52D-06  NBF=   261
 NBsUse=   261 1.00D-06 EigRej= -1.00D+00 NBFU=   261
 Precomputing XC quadrature grid using
 IXCGrd= 4 IRadAn=           5 IRanWt=          -1 IRanGd=           0 AccXCQ= 0.00D+00.
 Generated NRdTot=       0 NPtTot=           0 NUsed=           0 NTot=          32
 NSgBfM=   273   273   273   273   273 MxSgAt=    15 MxSgA2=    15.
 Leave Link  302 at Thu May  2 13:58:47 2024, MaxMem=   134217728 cpu:              21.8 elap:              21.8
 (Enter /software/gaussian/g16-c01/sse4/g16/l303.exe)
 DipDrv:  MaxL=1.
 The nuclear repulsion energy is now       775.2858136339 hartrees.
 Leave Link  303 at Thu May  2 13:58:50 2024, MaxMem=   134217728 cpu:               3.3 elap:               3.3
 (Enter /software/gaussian/g16-c01/sse4/g16/l401.exe)
 ExpMin= 3.50D-02 ExpMax= 4.40D+05 ExpMxC= 1.51D+04 IAcc=3 IRadAn=         5 AccDes= 0.00D+00
 Harris functional with IExCor= 4639 and IRadAn=       5 diagonalized for initial guess.
 HarFok:  IExCor= 4639 AccDes= 0.00D+00 IRadAn=         5 IDoV= 1 UseB2=F ITyADJ=14
 ICtDFT=  3500011 ScaDFX=  1.000000  1.000000  1.000000  1.000000
 FoFCou: FMM=F IPFlag=           0 FMFlag=      100000 FMFlg1=           0
         NFxFlg=           0 DoJE=T BraDBF=F KetDBF=T FulRan=T
         wScrn=  0.000000 ICntrl=       500 IOpCl=  0 I1Cent=   200000004 NGrid=           0
         NMat0=    1 NMatS0=      1 NMatT0=    0 NMatD0=    1 NMtDS0=    0 NMtDT0=    0
 Symmetry not used in FoFCou.
 Harris En= -2970.64409026291    
 JPrj=0 DoOrth=F DoCkMO=F.
 Leave Link  401 at Thu May  2 13:59:22 2024, MaxMem=   134217728 cpu:              31.1 elap:              31.1
 (Enter /software/gaussian/g16-c01/sse4/g16/l502.exe)
 Two-electron integral symmetry not used.
 Closed shell SCF:
 Using DIIS extrapolation, IDIIS=  1040.
 NGot=   134217728 LenX=   134063053 LenY=   133988083
 Requested convergence on RMS density matrix=1.00D-08 within 128 cycles.
 Requested convergence on MAX density matrix=1.00D-06.
 Requested convergence on             energy=1.00D-06.
 No special actions if energy rises.
 Fock matrices will be formed incrementally for  20 cycles.

 Cycle   1  Pass 1  IDiag  1:
 FoFJK:  IHMeth= 1 ICntrl=       0 DoSepK=T KAlg= 0 I1Cent=           0 FoldK=F
 IRaf=         1 NMat=       1 IRICut=       1 DoRegI=T DoRafI=F ISym2E= 0 IDoP0=0 IntGTp=1.
 FoFCou: FMM=F IPFlag=           0 FMFlag=      100000 FMFlg1=           0
         NFxFlg=           0 DoJE=T BraDBF=F KetDBF=F FulRan=T
         wScrn=  0.000000 ICntrl=       500 IOpCl=  0 I1Cent=           0 NGrid=           0
         NMat0=    1 NMatS0=      1 NMatT0=    0 NMatD0=    1 NMtDS0=    0 NMtDT0=    0
 Symmetry not used in FoFCou.
 E= -3008.51325147988    
 DIIS: error= 2.91D-01 at cycle   1 NSaved=   1.
 NSaved= 1 IEnMin= 1 EnMin= -3008.51325147988     IErMin= 1 ErrMin= 2.91D-01
 ErrMax= 2.91D-01  0.00D+00 EMaxC= 1.00D-01 BMatC= 1.24D+01 BMatP= 1.24D+01
 IDIUse=3 WtCom= 0.00D+00 WtEn= 1.00D+00
 Coeff-Com:  0.100D+01
 Coeff-En:   0.100D+01
 Coeff:      0.100D+01
 Gap=    -0.673 Goal=   None    Shift=    0.000
 GapD=   -0.673 DampG=0.250 DampE=0.250 DampFc=0.2500 IDamp=-1.
 Damping current iteration by 2.50D-01
 RMSDP=1.52D+00 MaxDP=1.59D+02              OVMax= 9.12D-01

 Cycle   2  Pass 1  IDiag  1:
 RMSU=  3.37D-02    CP:  7.59D-01
 E= -3008.94695340179     Delta-E=       -0.433701921917 Rises=F Damp=T
 DIIS: error= 2.19D-01 at cycle   2 NSaved=   2.
 NSaved= 2 IEnMin= 2 EnMin= -3008.94695340179     IErMin= 2 ErrMin= 2.19D-01
 ErrMax= 2.19D-01  0.00D+00 EMaxC= 1.00D-01 BMatC= 5.57D+00 BMatP= 1.24D+01
 IDIUse=3 WtCom= 0.00D+00 WtEn= 1.00D+00
 Coeff-Com: -0.133D+01 0.233D+01
 Coeff-En:   0.230D+00 0.770D+00
 Coeff:      0.230D+00 0.770D+00
 Gap=     0.054 Goal=   None    Shift=    0.000
 RMSDP=1.14D+00 MaxDP=1.20D+02 DE=-4.34D-01 OVMax= 9.43D-01

 Cycle   3  Pass 1  IDiag  1:
 RMSU=  2.30D-02    CP:  3.19D-02  2.05D+00
 E= -3010.14278069637     Delta-E=       -1.195827294578 Rises=F Damp=F
 DIIS: error= 8.28D-02 at cycle   3 NSaved=   3.
 NSaved= 3 IEnMin= 3 EnMin= -3010.14278069637     IErMin= 3 ErrMin= 8.28D-02
 ErrMax= 8.28D-02  0.00D+00 EMaxC= 1.00D-01 BMatC= 1.34D+00 BMatP= 5.57D+00
 IDIUse=3 WtCom= 1.72D-01 WtEn= 8.28D-01
 Coeff-Com:  0.215D+00-0.629D-02 0.792D+00
 Coeff-En:   0.707D-01 0.000D+00 0.929D+00
 Coeff:      0.954D-01-0.108D-02 0.906D+00
 Gap=     0.325 Goal=   None    Shift=    0.000
 RMSDP=3.02D-02 MaxDP=2.43D+00 DE=-1.20D+00 OVMax= 2.38D-01

 Cycle   4  Pass 1  IDiag  1:
 RMSU=  2.40D-02    CP:  3.21D-02  1.51D+00  1.02D+00
 E= -3010.23687012351     Delta-E=       -0.094089427135 Rises=F Damp=F
 DIIS: error= 5.94D-02 at cycle   4 NSaved=   4.
 NSaved= 4 IEnMin= 4 EnMin= -3010.23687012351     IErMin= 4 ErrMin= 5.94D-02
 ErrMax= 5.94D-02  0.00D+00 EMaxC= 1.00D-01 BMatC= 8.05D-01 BMatP= 1.34D+00
 IDIUse=3 WtCom= 4.06D-01 WtEn= 5.94D-01
 Coeff-Com:  0.630D-01-0.456D-01 0.467D+00 0.516D+00
 Coeff-En:   0.000D+00 0.000D+00 0.430D+00 0.570D+00
 Coeff:      0.256D-01-0.185D-01 0.445D+00 0.548D+00
 Gap=     0.279 Goal=   None    Shift=    0.000
 RMSDP=1.71D-02 MaxDP=1.66D+00 DE=-9.41D-02 OVMax= 1.72D-01

 Cycle   5  Pass 1  IDiag  1:
 RMSU=  8.27D-03    CP:  2.55D-02  1.45D+00  8.92D-01  5.73D-01
 E= -3010.48496006461     Delta-E=       -0.248089941107 Rises=F Damp=F
 DIIS: error= 3.05D-02 at cycle   5 NSaved=   5.
 NSaved= 5 IEnMin= 5 EnMin= -3010.48496006461     IErMin= 5 ErrMin= 3.05D-02
 ErrMax= 3.05D-02  0.00D+00 EMaxC= 1.00D-01 BMatC= 7.31D-02 BMatP= 8.05D-01
 IDIUse=3 WtCom= 6.95D-01 WtEn= 3.05D-01
 Coeff-Com:  0.287D-01-0.284D-01 0.268D+00 0.347D+00 0.384D+00
 Coeff-En:   0.000D+00 0.000D+00 0.000D+00 0.108D+00 0.892D+00
 Coeff:      0.199D-01-0.197D-01 0.187D+00 0.274D+00 0.539D+00
 Gap=     0.275 Goal=   None    Shift=    0.000
 RMSDP=6.55D-03 MaxDP=5.58D-01 DE=-2.48D-01 OVMax= 1.49D-01

 Cycle   6  Pass 1  IDiag  1:
 RMSU=  4.00D-03    CP:  2.67D-02  1.33D+00  8.94D-01  6.67D-01  8.30D-01
 E= -3010.52304222032     Delta-E=       -0.038082155709 Rises=F Damp=F
 DIIS: error= 1.84D-02 at cycle   6 NSaved=   6.
 NSaved= 6 IEnMin= 6 EnMin= -3010.52304222032     IErMin= 6 ErrMin= 1.84D-02
 ErrMax= 1.84D-02  0.00D+00 EMaxC= 1.00D-01 BMatC= 2.24D-02 BMatP= 7.31D-02
 IDIUse=3 WtCom= 8.16D-01 WtEn= 1.84D-01
 Coeff-Com:  0.578D-03-0.139D-02 0.345D-01 0.663D-01 0.359D+00 0.541D+00
 Coeff-En:   0.000D+00 0.000D+00 0.000D+00 0.000D+00 0.263D+00 0.737D+00
 Coeff:      0.472D-03-0.114D-02 0.281D-01 0.541D-01 0.341D+00 0.577D+00
 Gap=     0.244 Goal=   None    Shift=    0.000
 RMSDP=2.45D-03 MaxDP=2.33D-01 DE=-3.81D-02 OVMax= 6.53D-02

 Cycle   7  Pass 1  IDiag  1:
 RMSU=  1.54D-03    CP:  2.74D-02  1.35D+00  9.01D-01  6.50D-01  9.52D-01
                    CP:  8.15D-01
 E= -3010.53803078843     Delta-E=       -0.014988568104 Rises=F Damp=F
 DIIS: error= 3.89D-03 at cycle   7 NSaved=   7.
 NSaved= 7 IEnMin= 7 EnMin= -3010.53803078843     IErMin= 7 ErrMin= 3.89D-03
 ErrMax= 3.89D-03  0.00D+00 EMaxC= 1.00D-01 BMatC= 1.31D-03 BMatP= 2.24D-02
 IDIUse=3 WtCom= 9.61D-01 WtEn= 3.89D-02
 Coeff-Com: -0.262D-02 0.275D-02-0.192D-01-0.170D-01 0.129D+00 0.343D+00
 Coeff-Com:  0.564D+00
 Coeff-En:   0.000D+00 0.000D+00 0.000D+00 0.000D+00 0.000D+00 0.000D+00
 Coeff-En:   0.100D+01
 Coeff:     -0.252D-02 0.264D-02-0.185D-01-0.164D-01 0.124D+00 0.330D+00
 Coeff:      0.581D+00
 Gap=     0.245 Goal=   None    Shift=    0.000
 RMSDP=1.15D-03 MaxDP=1.05D-01 DE=-1.50D-02 OVMax= 1.31D-02

 Cycle   8  Pass 1  IDiag  1:
 RMSU=  3.82D-04    CP:  2.72D-02  1.33D+00  8.85D-01  6.56D-01  9.89D-01
                    CP:  9.62D-01  8.41D-01
 E= -3010.53916779273     Delta-E=       -0.001137004303 Rises=F Damp=F
 DIIS: error= 7.11D-04 at cycle   8 NSaved=   8.
 NSaved= 8 IEnMin= 8 EnMin= -3010.53916779273     IErMin= 8 ErrMin= 7.11D-04
 ErrMax= 7.11D-04  0.00D+00 EMaxC= 1.00D-01 BMatC= 8.53D-05 BMatP= 1.31D-03
 IDIUse=3 WtCom= 9.93D-01 WtEn= 7.11D-03
 Coeff-Com: -0.371D-02 0.457D-02-0.120D-01-0.134D-01 0.936D-02 0.580D-01
 Coeff-Com:  0.243D+00 0.714D+00
 Coeff-En:   0.000D+00 0.000D+00 0.000D+00 0.000D+00 0.000D+00 0.000D+00
 Coeff-En:   0.000D+00 0.100D+01
 Coeff:     -0.368D-02 0.454D-02-0.119D-01-0.133D-01 0.930D-02 0.576D-01
 Coeff:      0.241D+00 0.716D+00
 Gap=     0.244 Goal=   None    Shift=    0.000
 RMSDP=3.37D-04 MaxDP=2.96D-02 DE=-1.14D-03 OVMax= 1.04D-02

 Cycle   9  Pass 1  IDiag  1:
 RMSU=  1.51D-04    CP:  2.73D-02  1.33D+00  8.83D-01  6.58D-01  1.00D+00
                    CP:  9.96D-01  9.17D-01  1.11D+00
 E= -3010.53934399839     Delta-E=       -0.000176205658 Rises=F Damp=F
 DIIS: error= 2.36D-04 at cycle   9 NSaved=   9.
 NSaved= 9 IEnMin= 9 EnMin= -3010.53934399839     IErMin= 9 ErrMin= 2.36D-04
 ErrMax= 2.36D-04  0.00D+00 EMaxC= 1.00D-01 BMatC= 1.37D-05 BMatP= 8.53D-05
 IDIUse=3 WtCom= 9.98D-01 WtEn= 2.36D-03
 Coeff-Com: -0.251D-02 0.344D-02-0.722D-03-0.725D-03-0.208D-01-0.505D-01
 Coeff-Com: -0.402D-01 0.225D+00 0.887D+00
 Coeff-En:   0.000D+00 0.000D+00 0.000D+00 0.000D+00 0.000D+00 0.000D+00
 Coeff-En:   0.000D+00 0.000D+00 0.100D+01
 Coeff:     -0.250D-02 0.343D-02-0.720D-03-0.723D-03-0.207D-01-0.503D-01
 Coeff:     -0.401D-01 0.225D+00 0.887D+00
 Gap=     0.244 Goal=   None    Shift=    0.000
 RMSDP=2.80D-04 MaxDP=3.34D-02 DE=-1.76D-04 OVMax= 9.09D-03

 Cycle  10  Pass 1  IDiag  1:
 RMSU=  1.60D-04    CP:  2.73D-02  1.33D+00  8.81D-01  6.60D-01  9.99D-01
                    CP:  1.02D+00  9.25D-01  1.25D+00  1.83D+00
 E= -3010.53941848563     Delta-E=       -0.000074487239 Rises=F Damp=F
 DIIS: error= 1.12D-04 at cycle  10 NSaved=  10.
 NSaved=10 IEnMin=10 EnMin= -3010.53941848563     IErMin=10 ErrMin= 1.12D-04
 ErrMax= 1.12D-04  0.00D+00 EMaxC= 1.00D-01 BMatC= 4.70D-06 BMatP= 1.37D-05
 IDIUse=3 WtCom= 9.99D-01 WtEn= 1.12D-03
 Coeff-Com: -0.145D-02 0.208D-02 0.181D-02 0.260D-02-0.632D-02-0.229D-01
 Coeff-Com: -0.707D-01-0.153D+00 0.212D+00 0.104D+01
 Coeff-En:   0.000D+00 0.000D+00 0.000D+00 0.000D+00 0.000D+00 0.000D+00
 Coeff-En:   0.000D+00 0.000D+00 0.000D+00 0.100D+01
 Coeff:     -0.145D-02 0.208D-02 0.181D-02 0.260D-02-0.631D-02-0.229D-01
 Coeff:     -0.706D-01-0.153D+00 0.212D+00 0.104D+01
 Gap=     0.245 Goal=   None    Shift=    0.000
 RMSDP=1.86D-04 MaxDP=1.83D-02 DE=-7.45D-05 OVMax= 6.76D-03

 Cycle  11  Pass 1  IDiag  1:
 RMSU=  3.44D-05    CP:  2.72D-02  1.33D+00  8.81D-01  6.61D-01  9.95D-01
                    CP:  1.04D+00  9.32D-01  1.27D+00  2.53D+00  1.64D+00
 E= -3010.53944649372     Delta-E=       -0.000028008097 Rises=F Damp=F
 DIIS: error= 6.99D-05 at cycle  11 NSaved=  11.
 NSaved=11 IEnMin=11 EnMin= -3010.53944649372     IErMin=11 ErrMin= 6.99D-05
 ErrMax= 6.99D-05  0.00D+00 EMaxC= 1.00D-01 BMatC= 1.17D-06 BMatP= 4.70D-06
 IDIUse=1 WtCom= 1.00D+00 WtEn= 0.00D+00
 Coeff-Com: -0.637D-03 0.877D-03 0.481D-03 0.120D-02 0.451D-02 0.776D-02
 Coeff-Com: -0.956D-02-0.101D+00-0.160D+00 0.347D+00 0.909D+00
 Coeff:     -0.637D-03 0.877D-03 0.481D-03 0.120D-02 0.451D-02 0.776D-02
 Coeff:     -0.956D-02-0.101D+00-0.160D+00 0.347D+00 0.909D+00
 Gap=     0.245 Goal=   None    Shift=    0.000
 RMSDP=9.71D-05 MaxDP=9.41D-03 DE=-2.80D-05 OVMax= 2.94D-03

 Cycle  12  Pass 1  IDiag  1:
 RMSU=  1.61D-05    CP:  2.72D-02  1.33D+00  8.80D-01  6.62D-01  9.94D-01
                    CP:  1.05D+00  9.23D-01  1.30D+00  2.83D+00  1.93D+00
                    CP:  1.39D+00
 E= -3010.53945196815     Delta-E=       -0.000005474432 Rises=F Damp=F
 DIIS: error= 4.22D-05 at cycle  12 NSaved=  12.
 NSaved=12 IEnMin=12 EnMin= -3010.53945196815     IErMin=12 ErrMin= 4.22D-05
 ErrMax= 4.22D-05  0.00D+00 EMaxC= 1.00D-01 BMatC= 2.38D-07 BMatP= 1.17D-06
 IDIUse=1 WtCom= 1.00D+00 WtEn= 0.00D+00
 Coeff-Com: -0.133D-03 0.158D-03-0.265D-03 0.588D-05 0.279D-02 0.661D-02
 Coeff-Com:  0.143D-01 0.951D-02-0.974D-01-0.139D+00 0.283D+00 0.920D+00
 Coeff:     -0.133D-03 0.158D-03-0.265D-03 0.588D-05 0.279D-02 0.661D-02
 Coeff:      0.143D-01 0.951D-02-0.974D-01-0.139D+00 0.283D+00 0.920D+00
 Gap=     0.245 Goal=   None    Shift=    0.000
 RMSDP=3.64D-05 MaxDP=3.70D-03 DE=-5.47D-06 OVMax= 1.15D-03

 Cycle  13  Pass 1  IDiag  1:
 RMSU=  7.91D-06    CP:  2.72D-02  1.33D+00  8.80D-01  6.62D-01  9.92D-01
                    CP:  1.05D+00  9.24D-01  1.31D+00  2.91D+00  2.05D+00
                    CP:  1.64D+00  1.30D+00
 E= -3010.53945299961     Delta-E=       -0.000001031452 Rises=F Damp=F
 DIIS: error= 2.06D-05 at cycle  13 NSaved=  13.
 NSaved=13 IEnMin=13 EnMin= -3010.53945299961     IErMin=13 ErrMin= 2.06D-05
 ErrMax= 2.06D-05  0.00D+00 EMaxC= 1.00D-01 BMatC= 3.92D-08 BMatP= 2.38D-07
 IDIUse=1 WtCom= 1.00D+00 WtEn= 0.00D+00
 Coeff-Com:  0.625D-04-0.898D-04-0.938D-04-0.156D-03-0.844D-04 0.239D-03
 Coeff-Com:  0.700D-02 0.214D-01 0.184D-03-0.101D+00-0.982D-01 0.283D+00
 Coeff-Com:  0.888D+00
 Coeff:      0.625D-04-0.898D-04-0.938D-04-0.156D-03-0.844D-04 0.239D-03
 Coeff:      0.700D-02 0.214D-01 0.184D-03-0.101D+00-0.982D-01 0.283D+00
 Coeff:      0.888D+00
 Gap=     0.245 Goal=   None    Shift=    0.000
 RMSDP=1.17D-05 MaxDP=1.01D-03 DE=-1.03D-06 OVMax= 3.86D-04

 Cycle  14  Pass 1  IDiag  1:
 RMSU=  3.57D-06    CP:  2.72D-02  1.33D+00  8.80D-01  6.62D-01  9.92D-01
                    CP:  1.05D+00  9.26D-01  1.31D+00  2.93D+00  2.08D+00
                    CP:  1.71D+00  1.59D+00  1.28D+00
 E= -3010.53945316155     Delta-E=       -0.000000161939 Rises=F Damp=F
 DIIS: error= 7.37D-06 at cycle  14 NSaved=  14.
 NSaved=14 IEnMin=14 EnMin= -3010.53945316155     IErMin=14 ErrMin= 7.37D-06
 ErrMax= 7.37D-06  0.00D+00 EMaxC= 1.00D-01 BMatC= 7.98D-09 BMatP= 3.92D-08
 IDIUse=1 WtCom= 1.00D+00 WtEn= 0.00D+00
 Coeff-Com:  0.711D-04-0.936D-04 0.143D-04-0.787D-04-0.607D-03-0.113D-02
 Coeff-Com: -0.296D-03 0.400D-02 0.164D-01-0.241D-02-0.760D-01-0.717D-01
 Coeff-Com:  0.288D+00 0.844D+00
 Coeff:      0.711D-04-0.936D-04 0.143D-04-0.787D-04-0.607D-03-0.113D-02
 Coeff:     -0.296D-03 0.400D-02 0.164D-01-0.241D-02-0.760D-01-0.717D-01
 Coeff:      0.288D+00 0.844D+00
 Gap=     0.245 Goal=   None    Shift=    0.000
 RMSDP=5.39D-06 MaxDP=3.99D-04 DE=-1.62D-07 OVMax= 1.32D-04

 Cycle  15  Pass 1  IDiag  1:
 RMSU=  1.56D-06    CP:  2.72D-02  1.33D+00  8.80D-01  6.62D-01  9.93D-01
                    CP:  1.05D+00  9.27D-01  1.31D+00  2.93D+00  2.08D+00
                    CP:  1.74D+00  1.63D+00  1.46D+00  1.22D+00
 E= -3010.53945318923     Delta-E=       -0.000000027688 Rises=F Damp=F
 DIIS: error= 5.14D-06 at cycle  15 NSaved=  15.
 NSaved=15 IEnMin=15 EnMin= -3010.53945318923     IErMin=15 ErrMin= 5.14D-06
 ErrMax= 5.14D-06  0.00D+00 EMaxC= 1.00D-01 BMatC= 1.96D-09 BMatP= 7.98D-09
 IDIUse=1 WtCom= 1.00D+00 WtEn= 0.00D+00
 Coeff-Com:  0.286D-04-0.390D-04 0.141D-04 0.156D-04 0.334D-04 0.104D-03
 Coeff-Com: -0.168D-02-0.529D-02-0.255D-02 0.238D-01 0.289D-01-0.637D-01
 Coeff-Com: -0.205D+00-0.581D-01 0.128D+01
 Coeff:      0.286D-04-0.390D-04 0.141D-04 0.156D-04 0.334D-04 0.104D-03
 Coeff:     -0.168D-02-0.529D-02-0.255D-02 0.238D-01 0.289D-01-0.637D-01
 Coeff:     -0.205D+00-0.581D-01 0.128D+01
 Gap=     0.245 Goal=   None    Shift=    0.000
 RMSDP=4.85D-06 MaxDP=3.03D-04 DE=-2.77D-08 OVMax= 9.85D-05

 Cycle  16  Pass 1  IDiag  1:
 RMSU=  6.72D-07    CP:  2.72D-02  1.33D+00  8.80D-01  6.62D-01  9.93D-01
                    CP:  1.05D+00  9.28D-01  1.31D+00  2.93D+00  2.08D+00
                    CP:  1.74D+00  1.66D+00  1.58D+00  1.57D+00  1.37D+00
 E= -3010.53945319721     Delta-E=       -0.000000007977 Rises=F Damp=F
 DIIS: error= 8.50D-07 at cycle  16 NSaved=  16.
 NSaved=16 IEnMin=16 EnMin= -3010.53945319721     IErMin=16 ErrMin= 8.50D-07
 ErrMax= 8.50D-07  0.00D+00 EMaxC= 1.00D-01 BMatC= 2.21D-10 BMatP= 1.96D-09
 IDIUse=1 WtCom= 1.00D+00 WtEn= 0.00D+00
 Coeff-Com:  0.804D-05-0.113D-04 0.187D-05 0.781D-05 0.926D-04 0.184D-03
 Coeff-Com: -0.281D-03-0.139D-02-0.288D-02 0.429D-02 0.159D-01-0.184D-02
 Coeff-Com: -0.698D-01-0.131D+00 0.265D+00 0.922D+00
 Coeff:      0.804D-05-0.113D-04 0.187D-05 0.781D-05 0.926D-04 0.184D-03
 Coeff:     -0.281D-03-0.139D-02-0.288D-02 0.429D-02 0.159D-01-0.184D-02
 Coeff:     -0.698D-01-0.131D+00 0.265D+00 0.922D+00
 Gap=     0.245 Goal=   None    Shift=    0.000
 RMSDP=6.74D-07 MaxDP=5.39D-05 DE=-7.98D-09 OVMax= 2.21D-05

 Cycle  17  Pass 1  IDiag  1:
 RMSU=  2.19D-07    CP:  2.72D-02  1.33D+00  8.80D-01  6.62D-01  9.93D-01
                    CP:  1.05D+00  9.28D-01  1.31D+00  2.93D+00  2.07D+00
                    CP:  1.74D+00  1.66D+00  1.60D+00  1.58D+00  1.54D+00
                    CP:  1.33D+00
 E= -3010.53945319777     Delta-E=       -0.000000000563 Rises=F Damp=F
 DIIS: error= 2.75D-07 at cycle  17 NSaved=  17.
 NSaved=17 IEnMin=17 EnMin= -3010.53945319777     IErMin=17 ErrMin= 2.75D-07
 ErrMax= 2.75D-07  0.00D+00 EMaxC= 1.00D-01 BMatC= 2.68D-11 BMatP= 2.21D-10
 IDIUse=1 WtCom= 1.00D+00 WtEn= 0.00D+00
 Coeff-Com:  0.163D-05-0.219D-05 0.597D-06 0.676D-06 0.289D-04 0.470D-04
 Coeff-Com:  0.131D-03 0.256D-03-0.591D-03-0.182D-02 0.147D-02 0.756D-02
 Coeff-Com:  0.615D-02-0.360D-01-0.758D-01 0.253D+00 0.845D+00
 Coeff:      0.163D-05-0.219D-05 0.597D-06 0.676D-06 0.289D-04 0.470D-04
 Coeff:      0.131D-03 0.256D-03-0.591D-03-0.182D-02 0.147D-02 0.756D-02
 Coeff:      0.615D-02-0.360D-01-0.758D-01 0.253D+00 0.845D+00
 Gap=     0.245 Goal=   None    Shift=    0.000
 RMSDP=2.54D-07 MaxDP=1.56D-05 DE=-5.63D-10 OVMax= 5.52D-06

 Cycle  18  Pass 1  IDiag  1:
 RMSU=  5.97D-08    CP:  2.72D-02  1.33D+00  8.80D-01  6.62D-01  9.93D-01
                    CP:  1.05D+00  9.28D-01  1.31D+00  2.93D+00  2.07D+00
                    CP:  1.74D+00  1.66D+00  1.60D+00  1.57D+00  1.58D+00
                    CP:  1.45D+00  1.32D+00
 E= -3010.53945319779     Delta-E=       -0.000000000015 Rises=F Damp=F
 DIIS: error= 9.53D-08 at cycle  18 NSaved=  18.
 NSaved=18 IEnMin=18 EnMin= -3010.53945319779     IErMin=18 ErrMin= 9.53D-08
 ErrMax= 9.53D-08  0.00D+00 EMaxC= 1.00D-01 BMatC= 2.97D-12 BMatP= 2.68D-11
 IDIUse=1 WtCom= 1.00D+00 WtEn= 0.00D+00
 Coeff-Com: -0.118D-06 0.226D-06 0.964D-06 0.226D-06-0.264D-05-0.950D-05
 Coeff-Com:  0.488D-04 0.145D-03 0.154D-03-0.672D-03-0.117D-02 0.135D-02
 Coeff-Com:  0.900D-02 0.829D-02-0.412D-01-0.907D-01 0.157D+00 0.958D+00
 Coeff:     -0.118D-06 0.226D-06 0.964D-06 0.226D-06-0.264D-05-0.950D-05
 Coeff:      0.488D-04 0.145D-03 0.154D-03-0.672D-03-0.117D-02 0.135D-02
 Coeff:      0.900D-02 0.829D-02-0.412D-01-0.907D-01 0.157D+00 0.958D+00
 Gap=     0.245 Goal=   None    Shift=    0.000
 RMSDP=8.68D-08 MaxDP=7.53D-06 DE=-1.46D-11 OVMax= 1.90D-06

 Cycle  19  Pass 1  IDiag  1:
 RMSU=  3.20D-08    CP:  2.72D-02  1.33D+00  8.80D-01  6.62D-01  9.93D-01
                    CP:  1.05D+00  9.28D-01  1.31D+00  2.93D+00  2.07D+00
                    CP:  1.74D+00  1.66D+00  1.60D+00  1.57D+00  1.58D+00
                    CP:  1.50D+00  1.44D+00  1.33D+00
 E= -3010.53945319782     Delta-E=       -0.000000000035 Rises=F Damp=F
 DIIS: error= 3.30D-08 at cycle  19 NSaved=  19.
 NSaved=19 IEnMin=19 EnMin= -3010.53945319782     IErMin=19 ErrMin= 3.30D-08
 ErrMax= 3.30D-08  0.00D+00 EMaxC= 1.00D-01 BMatC= 3.80D-13 BMatP= 2.97D-12
 IDIUse=1 WtCom= 1.00D+00 WtEn= 0.00D+00
 Coeff-Com: -0.777D-07 0.112D-06 0.152D-06 0.161D-06-0.309D-05-0.639D-05
 Coeff-Com: -0.142D-04-0.290D-04 0.681D-04 0.160D-03-0.243D-03-0.888D-03
 Coeff-Com:  0.400D-04 0.513D-02 0.925D-02-0.483D-01-0.787D-01 0.147D+00
 Coeff-Com:  0.966D+00
 Coeff:     -0.777D-07 0.112D-06 0.152D-06 0.161D-06-0.309D-05-0.639D-05
 Coeff:     -0.142D-04-0.290D-04 0.681D-04 0.160D-03-0.243D-03-0.888D-03
 Coeff:      0.400D-04 0.513D-02 0.925D-02-0.483D-01-0.787D-01 0.147D+00
 Coeff:      0.966D+00
 Gap=     0.245 Goal=   None    Shift=    0.000
 RMSDP=4.10D-08 MaxDP=3.67D-06 DE=-3.46D-11 OVMax= 7.85D-07

 Cycle  20  Pass 1  IDiag  1:
 RMSU=  1.32D-08    CP:  2.72D-02  1.33D+00  8.80D-01  6.62D-01  9.93D-01
                    CP:  1.05D+00  9.28D-01  1.31D+00  2.93D+00  2.07D+00
                    CP:  1.74D+00  1.66D+00  1.60D+00  1.57D+00  1.58D+00
                    CP:  1.50D+00  1.46D+00  1.52D+00  1.40D+00
 E= -3010.53945319783     Delta-E=       -0.000000000005 Rises=F Damp=F
 DIIS: error= 2.18D-08 at cycle  20 NSaved=  20.
 NSaved=20 IEnMin=20 EnMin= -3010.53945319783     IErMin=20 ErrMin= 2.18D-08
 ErrMax= 2.18D-08  0.00D+00 EMaxC= 1.00D-01 BMatC= 1.05D-13 BMatP= 3.80D-13
 IDIUse=1 WtCom= 1.00D+00 WtEn= 0.00D+00
 Coeff-Com: -0.112D-06 0.140D-06-0.108D-06 0.106D-06-0.240D-06-0.316D-06
 Coeff-Com: -0.145D-04-0.378D-04-0.119D-05 0.219D-03 0.142D-03-0.620D-03
 Coeff-Com: -0.182D-02-0.717D-04 0.109D-01-0.215D-02-0.539D-01-0.120D+00
 Coeff-Com:  0.343D+00 0.824D+00
 Coeff:     -0.112D-06 0.140D-06-0.108D-06 0.106D-06-0.240D-06-0.316D-06
 Coeff:     -0.145D-04-0.378D-04-0.119D-05 0.219D-03 0.142D-03-0.620D-03
 Coeff:     -0.182D-02-0.717D-04 0.109D-01-0.215D-02-0.539D-01-0.120D+00
 Coeff:      0.343D+00 0.824D+00
 Gap=     0.245 Goal=   None    Shift=    0.000
 RMSDP=1.50D-08 MaxDP=9.15D-07 DE=-4.55D-12 OVMax= 5.04D-07

 Cycle  21  Pass 1  IDiag  1:
 Restarting incremental Fock formation.
 E= -3010.53945319786     Delta-E=       -0.000000000034 Rises=F Damp=F
 DIIS: error= 1.18D-08 at cycle  21 NSaved=  20.
 NSaved=20 IEnMin=20 EnMin= -3010.53945319786     IErMin=20 ErrMin= 1.18D-08
 ErrMax= 1.18D-08  0.00D+00 EMaxC= 1.00D-01 BMatC= 1.58D-14 BMatP= 1.05D-13
 IDIUse=1 WtCom= 1.00D+00 WtEn= 0.00D+00
 Coeff-Com:  0.231D-09-0.105D-08 0.991D-08 0.368D-06 0.697D-06 0.659D-06
 Coeff-Com: -0.122D-05-0.153D-04 0.943D-05 0.362D-04 0.671D-04-0.188D-03
 Coeff-Com: -0.786D-03-0.569D-04 0.818D-02 0.100D-01-0.376D-01-0.168D+00
 Coeff-Com:  0.288D-01 0.116D+01
 Coeff:      0.231D-09-0.105D-08 0.991D-08 0.368D-06 0.697D-06 0.659D-06
 Coeff:     -0.122D-05-0.153D-04 0.943D-05 0.362D-04 0.671D-04-0.188D-03
 Coeff:     -0.786D-03-0.569D-04 0.818D-02 0.100D-01-0.376D-01-0.168D+00
 Coeff:      0.288D-01 0.116D+01
 Gap=     0.245 Goal=   None    Shift=    0.000
 RMSDP=1.42D-08 MaxDP=1.51D-06 DE=-3.37D-11 OVMax= 3.38D-07

 Cycle  22  Pass 1  IDiag  1:
 RMSU=  1.30D-08    CP:  1.00D+00
 E= -3010.53945319784     Delta-E=        0.000000000020 Rises=F Damp=F
 DIIS: error= 4.28D-09 at cycle  22 NSaved=  20.
 NSaved=20 IEnMin=19 EnMin= -3010.53945319786     IErMin=20 ErrMin= 4.28D-09
 ErrMax= 4.28D-09  0.00D+00 EMaxC= 1.00D-01 BMatC= 4.27D-15 BMatP= 1.58D-14
 IDIUse=1 WtCom= 1.00D+00 WtEn= 0.00D+00
 Large coefficients: NSaved= 20 BigCof=    0.00 CofMax=   10.00 Det=-8.22D-15
 Inversion failed.  Reducing to 19 matrices.
 Large coefficients: NSaved= 19 BigCof=    0.00 CofMax=   10.00 Det=-7.02D-15
 Inversion failed.  Reducing to 18 matrices.
 Large coefficients: NSaved= 18 BigCof=    0.00 CofMax=   10.00 Det=-7.03D-15
 Inversion failed.  Reducing to 17 matrices.
 Large coefficients: NSaved= 17 BigCof=    0.00 CofMax=   10.00 Det=-7.29D-15
 Inversion failed.  Reducing to 16 matrices.
 Large coefficients: NSaved= 16 BigCof=    0.00 CofMax=   10.00 Det=-7.38D-15
 Inversion failed.  Reducing to 15 matrices.
 Coeff-Com: -0.619D-06-0.452D-05 0.719D-05 0.168D-04 0.329D-04-0.601D-04
 Coeff-Com: -0.302D-03-0.295D-03 0.237D-02 0.431D-02-0.629D-02-0.642D-01
 Coeff-Com: -0.858D-01 0.384D+00 0.767D+00
 Coeff:     -0.619D-06-0.452D-05 0.719D-05 0.168D-04 0.329D-04-0.601D-04
 Coeff:     -0.302D-03-0.295D-03 0.237D-02 0.431D-02-0.629D-02-0.642D-01
 Coeff:     -0.858D-01 0.384D+00 0.767D+00
 Gap=     0.245 Goal=   None    Shift=    0.000
 RMSDP=3.19D-09 MaxDP=2.57D-07 DE= 2.00D-11 OVMax= 1.03D-07

 SCF Done:  E(RwB97XD) =  -3010.53945320     A.U. after   22 cycles
            NFock= 22  Conv=0.32D-08     -V/T= 2.0016
 KE= 3.005860429211D+03 PE=-8.702421561891D+03 EE= 1.910735865848D+03
 Leave Link  502 at Thu May  2 14:21:32 2024, MaxMem=   134217728 cpu:            1329.4 elap:            1330.1
 (Enter /software/gaussian/g16-c01/sse4/g16/l601.exe)
 Copying SCF densities to generalized density rwf, IOpCl= 0 IROHF=0.

 **********************************************************************

            Population analysis using the SCF Density.

 **********************************************************************

 Alpha  occ. eigenvalues -- -483.34514 -62.89577 -56.69214 -56.68722 -56.68717
 Alpha  occ. eigenvalues --  -19.46778 -19.46719 -14.86220 -10.60349 -10.59930
 Alpha  occ. eigenvalues --  -10.58479 -10.58335 -10.54496 -10.53801  -9.05411
 Alpha  occ. eigenvalues --   -6.87938  -6.86301  -6.86289  -2.97878  -2.97440
 Alpha  occ. eigenvalues --   -2.97429  -2.96119  -2.96118  -1.50437  -1.33383
 Alpha  occ. eigenvalues --   -1.23796  -1.14676  -1.13611  -1.07129  -1.01571
 Alpha  occ. eigenvalues --   -0.96601  -0.91676  -0.85737  -0.81794  -0.81115
 Alpha  occ. eigenvalues --   -0.80781  -0.78935  -0.76929  -0.76631  -0.73790
 Alpha  occ. eigenvalues --   -0.69714  -0.68722  -0.65182  -0.62243  -0.60165
 Alpha  occ. eigenvalues --   -0.58056  -0.57706  -0.56514  -0.56212
 Alpha virt. eigenvalues --   -0.31737  -0.21307  -0.18979  -0.16123  -0.14125
 Alpha virt. eigenvalues --   -0.12443  -0.10979  -0.08915  -0.07706  -0.06785
 Alpha virt. eigenvalues --   -0.05285  -0.04823  -0.02847  -0.02203  -0.01747
 Alpha virt. eigenvalues --   -0.01490   0.00268   0.00455   0.02237   0.02301
 Alpha virt. eigenvalues --    0.03948   0.04622   0.04957   0.05375   0.06835
 Alpha virt. eigenvalues --    0.07035   0.07559   0.08096   0.08345   0.09208
 Alpha virt. eigenvalues --    0.09805   0.11014   0.11269   0.11933   0.12903
 Alpha virt. eigenvalues --    0.13055   0.13286   0.13970   0.14539   0.15753
 Alpha virt. eigenvalues --    0.16397   0.17293   0.17961   0.18575   0.19436
 Alpha virt. eigenvalues --    0.20275   0.20670   0.21655   0.22131   0.23467
 Alpha virt. eigenvalues --    0.23954   0.25623   0.26659   0.27991   0.28691
 Alpha virt. eigenvalues --    0.30551   0.32750   0.33639   0.33661   0.35151
 Alpha virt. eigenvalues --    0.36503   0.37490   0.38473   0.39269   0.40677
 Alpha virt. eigenvalues --    0.43097   0.43811   0.44590   0.46323   0.46997
 Alpha virt. eigenvalues --    0.47700   0.49223   0.49410   0.50450   0.52849
 Alpha virt. eigenvalues --    0.53876   0.55258   0.57199   0.57539   0.59241
 Alpha virt. eigenvalues --    0.60114   0.61353   0.62928   0.65325   0.67256
 Alpha virt. eigenvalues --    0.70527   0.70727   0.72274   0.73169   0.73736
 Alpha virt. eigenvalues --    0.73973   0.76795   0.79191   0.80641   0.84362
 Alpha virt. eigenvalues --    0.85658   0.86985   0.90764   0.92968   0.98081
 Alpha virt. eigenvalues --    0.99669   1.01462   1.02989   1.04663   1.06195
 Alpha virt. eigenvalues --    1.07963   1.12166   1.12865   1.13475   1.17210
 Alpha virt. eigenvalues --    1.20571   1.22321   1.27266   1.32457   1.35407
 Alpha virt. eigenvalues --    1.35984   1.38063   1.41781   1.53804   1.55859
 Alpha virt. eigenvalues --    1.56569   1.59089   1.60350   1.63113   1.64614
 Alpha virt. eigenvalues --    1.67393   1.70377   1.73350   1.74406   1.78454
 Alpha virt. eigenvalues --    1.83064   1.84421   1.86331   1.91237   1.93346
 Alpha virt. eigenvalues --    1.96941   2.00907   2.02007   2.06022   2.07272
 Alpha virt. eigenvalues --    2.11418   2.13495   2.21491   2.23014   2.26605
 Alpha virt. eigenvalues --    2.32670   2.39205   2.40876   2.43637   2.52327
 Alpha virt. eigenvalues --    2.57272   2.62302   2.65017   2.67842   2.71220
 Alpha virt. eigenvalues --    2.73033   2.75818   2.76687   2.79913   2.81032
 Alpha virt. eigenvalues --    2.92049   2.97276   3.00624   3.04747   3.07978
 Alpha virt. eigenvalues --    3.13935   3.15485   3.16729   3.21919   3.26018
 Alpha virt. eigenvalues --    3.27037   3.37238   3.45662   3.49363   3.54098
 Alpha virt. eigenvalues --    3.56771   3.68377   3.73709   3.82633   3.86295
 Alpha virt. eigenvalues --    4.06426   4.07238   4.16184   4.20194   4.40159
 Alpha virt. eigenvalues --    4.44585   4.53563   4.59172   4.93095   4.95971
 Alpha virt. eigenvalues --    5.04777   5.09293   5.61494   6.14696   6.64545
 Alpha virt. eigenvalues --    7.45198   7.47582   7.57853  23.21039  23.60274
 Alpha virt. eigenvalues --   23.70231  23.76842  23.94685  24.01111  35.30944
 Alpha virt. eigenvalues --   47.90749  49.84717  49.93381 289.78423 289.80766
 Alpha virt. eigenvalues --  289.934271020.91986
          Condensed to atoms (all electrons):
               1          2          3          4          5          6
     1  C    8.314312  -3.150573   1.294506  -0.258118   0.307687   0.046071
     2  C   -3.150573  18.554461  -6.079184   0.748748  -0.036037   0.179815
     3  C    1.294506  -6.079184  20.004434  -1.666753   0.048775   0.131091
     4  C   -0.258118   0.748748  -1.666753   6.598010   0.003666  -0.017422
     5  H    0.307687  -0.036037   0.048775   0.003666   0.325732  -0.001497
     6  H    0.046071   0.179815   0.131091  -0.017422  -0.001497   0.307109
     7  H    0.017906  -0.021259   0.025625   0.318285  -0.002679  -0.000005
     8  N   -0.132617   0.558797  -1.697325   0.024111  -0.000828  -0.031082
     9  O   -0.047567   0.117955  -0.416095  -0.006012  -0.000043  -0.002317
    10  O    0.277135  -0.460234   0.014310  -0.035975   0.000081   0.021875
    11  C    1.005875  -1.550977   2.260395  -0.397761  -0.022165   0.010079
    12  H   -0.010124   0.010439   0.016322   0.001948   0.000008  -0.000017
    13  C   -1.546140  -2.897976  -7.584663   0.952161   0.025816  -0.000004
    14  H   -0.005107   0.015441   0.022727   0.007545  -0.000021   0.000011
    15  Br  -0.053288  -0.089621  -0.276671   0.085382  -0.000186  -0.000551
               7          8          9         10         11         12
     1  C    0.017906  -0.132617  -0.047567   0.277135   1.005875  -0.010124
     2  C   -0.021259   0.558797   0.117955  -0.460234  -1.550977   0.010439
     3  C    0.025625  -1.697325  -0.416095   0.014310   2.260395   0.016322
     4  C    0.318285   0.024111  -0.006012  -0.035975  -0.397761   0.001948
     5  H   -0.002679  -0.000828  -0.000043   0.000081  -0.022165   0.000008
     6  H   -0.000005  -0.031082  -0.002317   0.021875   0.010079  -0.000017
     7  H    0.330512  -0.000004   0.000016  -0.000015   0.029066  -0.002092
     8  N   -0.000004   7.668744   0.146325   0.073489  -0.268831   0.000120
     9  O    0.000016   0.146325   7.812550   0.009918   0.218647   0.000083
    10  O   -0.000015   0.073489   0.009918   7.883810   0.038825   0.000001
    11  C    0.029066  -0.268831   0.218647   0.038825   8.530101   0.327744
    12  H   -0.002092   0.000120   0.000083   0.000001   0.327744   0.309594
    13  C   -0.034475   0.763535   0.109134   0.106258  -3.984229  -0.012403
    14  H    0.000007  -0.015874   0.002145  -0.001882  -0.019435  -0.002777
    15  Br  -0.000424   0.115418  -0.036525  -0.002754  -0.032268  -0.004140
              13         14         15
     1  C   -1.546140  -0.005107  -0.053288
     2  C   -2.897976   0.015441  -0.089621
     3  C   -7.584663   0.022727  -0.276671
     4  C    0.952161   0.007545   0.085382
     5  H    0.025816  -0.000021  -0.000186
     6  H   -0.000004   0.000011  -0.000551
     7  H   -0.034475   0.000007  -0.000424
     8  N    0.763535  -0.015874   0.115418
     9  O    0.109134   0.002145  -0.036525
    10  O    0.106258  -0.001882  -0.002754
    11  C   -3.984229  -0.019435  -0.032268
    12  H   -0.012403  -0.002777  -0.004140
    13  C   19.737969   0.297162   0.347593
    14  H    0.297162   0.248934  -0.022450
    15  Br   0.347593  -0.022450  34.980527
 Mulliken charges:
               1
     1  C   -0.059958
     2  C    0.100205
     3  C   -0.097495
     4  C   -0.357817
     5  H    0.351692
     6  H    0.356845
     7  H    0.339536
     8  N   -0.203980
     9  O    0.091786
    10  O    0.075159
    11  C   -0.145066
    12  H    0.365296
    13  C   -0.279736
    14  H    0.473573
    15  Br  -0.010041
 Sum of Mulliken charges =   1.00000
 Mulliken charges with hydrogens summed into heavy atoms:
               1
     1  C    0.291734
     2  C    0.457050
     3  C   -0.097495
     4  C   -0.018280
     8  N   -0.203980
     9  O    0.091786
    10  O    0.075159
    11  C    0.220230
    13  C    0.193837
    15  Br  -0.010041
 Electronic spatial extent (au):  <R**2>=           3950.5910
 Charge=              1.0000 electrons
 Dipole moment (field-independent basis, Debye):
    X=              2.5255    Y=             -0.1490    Z=              2.7342  Tot=              3.7251
 Quadrupole moment (field-independent basis, Debye-Ang):
   XX=            -67.7835   YY=            -52.3907   ZZ=            -66.9897
   XY=             -1.4703   XZ=              4.6179   YZ=             -0.9549
 Traceless Quadrupole moment (field-independent basis, Debye-Ang):
   XX=             -5.3955   YY=              9.9973   ZZ=             -4.6017
   XY=             -1.4703   XZ=              4.6179   YZ=             -0.9549
 Octapole moment (field-independent basis, Debye-Ang**2):
  XXX=           -510.3543  YYY=             98.0547  ZZZ=            101.9953  XYY=           -140.0173
  XXY=             27.6860  XXZ=             47.8213  XZZ=           -143.0980  YZZ=             26.8637
  YYZ=             37.1231  XYZ=              0.4005
 Hexadecapole moment (field-independent basis, Debye-Ang**3):
 XXXX=          -3425.0523 YYYY=           -716.5238 ZZZZ=           -445.2292 XXXY=            185.9546
 XXXZ=            261.3934 YYYX=            198.1606 YYYZ=           -194.2240 ZZZX=            207.7652
 ZZZY=           -174.8645 XXYY=           -632.1099 XXZZ=           -552.8153 YYZZ=           -194.7970
 XXYZ=            -60.5827 YYXZ=             73.9766 ZZXY=             50.0799
 N-N= 7.752858136339D+02 E-N=-8.702421562126D+03  KE= 3.005860429211D+03
 No NMR shielding tensors so no spin-rotation constants.
 Leave Link  601 at Thu May  2 14:21:39 2024, MaxMem=   134217728 cpu:               7.2 elap:               7.2
 (Enter /software/gaussian/g16-c01/sse4/g16/l9999.exe)
 Unable to Open any file for archive entry.
 1\1\GINC-BHX0015\SP\RwB97XD\6-311+G(d)\C6H5Br1N1O2(1+)\BWEIGHT\02-May-
 2024\0\\#P wB97XD/6-311+G* NoSymm #P Field=Z-194\\TitleMe\\1,1\C,0,0.5
 193,1.233,-0.0319\C,0,1.9445,1.2692,-0.0367\C,0,2.6204,0.0928,-0.025\C
 ,0,-0.196,0.0301,0.001\H,0,-0.0207,2.1742,-0.0434\H,0,2.4828,2.2089,-0
 .0361\H,0,-1.2777,0.0399,0.0117\N,0,4.0921,0.0959,0.0366\O,0,4.6393,-1
 .0217,0.1446\O,0,4.6649,1.1984,-0.0233\C,0,0.4943,-1.1671,0.021\H,0,-0
 .0325,-2.1149,0.0545\C,0,1.9629,-1.2165,-0.0211\H,0,2.4436,-1.9631,0.6
 151\Br,0,2.173,-1.9491,-1.9062\\Version=ES64L-G16RevC.01\HF=-3010.5394
 532\RMSD=3.186e-09\Dipole=-3.3356154,1.1694969,2.3249454\Quadrupole=-4
 .0114567,7.4327386,-3.4212818,-1.0931191,3.4332655,-0.7099778\PG=C01 [
 X(C6H5Br1N1O2)]\\@
 The archive entry for this job was punched.


 MYSTERY IS THE WISDOM OF BLOCKHEADS... HORACE WALPOLE 
 Job cpu time:       0 days  0 hours 23 minutes 19.4 seconds.
 Elapsed time:       0 days  0 hours 23 minutes 20.2 seconds.
 File lengths (MBytes):  RWF=     40 Int=      0 D2E=      0 Chk=     32 Scr=      1
 Normal termination of Gaussian 16 at Thu May  2 14:21:40 2024.
