 Entering Gaussian System, Link 0=g16
 Initial command:
 /software/gaussian/g16-c01/sse4/g16/l1.exe "/local_scratch/24665286/Gau-23267.inp" -scrdir="/local_scratch/24665286/"
 Entering Link 1 = /software/gaussian/g16-c01/sse4/g16/l1.exe PID=     23347.
  
 Copyright (c) 1988-2019, Gaussian, Inc.  All Rights Reserved.
  
 This is part of the Gaussian(R) 16 program.  It is based on
 the Gaussian(R) 09 system (copyright 2009, Gaussian, Inc.),
 the Gaussian(R) 03 system (copyright 2003, Gaussian, Inc.),
 the Gaussian(R) 98 system (copyright 1998, Gaussian, Inc.),
 the Gaussian(R) 94 system (copyright 1995, Gaussian, Inc.),
 the Gaussian 92(TM) system (copyright 1992, Gaussian, Inc.),
 the Gaussian 90(TM) system (copyright 1990, Gaussian, Inc.),
 the Gaussian 88(TM) system (copyright 1988, Gaussian, Inc.),
 the Gaussian 86(TM) system (copyright 1986, Carnegie Mellon
 University), and the Gaussian 82(TM) system (copyright 1983,
 Carnegie Mellon University). Gaussian is a federally registered
 trademark of Gaussian, Inc.
  
 This software contains proprietary and confidential information,
 including trade secrets, belonging to Gaussian, Inc.
  
 This software is provided under written license and may be
 used, copied, transmitted, or stored only in accord with that
 written license.
  
 The following legend is applicable only to US Government
 contracts under FAR:
  
                    RESTRICTED RIGHTS LEGEND
  
 Use, reproduction and disclosure by the US Government is
 subject to restrictions as set forth in subparagraphs (a)
 and (c) of the Commercial Computer Software - Restricted
 Rights clause in FAR 52.227-19.
  
 Gaussian, Inc.
 340 Quinnipiac St., Bldg. 40, Wallingford CT 06492
  
  
 ---------------------------------------------------------------
 Warning -- This program may not be used in any manner that
 competes with the business of Gaussian, Inc. or will provide
 assistance to any competitor of Gaussian, Inc.  The licensee
 of this program is prohibited from giving any competitor of
 Gaussian, Inc. access to this program.  By using this program,
 the user acknowledges that Gaussian, Inc. is engaged in the
 business of creating and licensing software in the field of
 computational chemistry and represents and warrants to the
 licensee that it is not a competitor of Gaussian, Inc. and that
 it will not use this program in any manner prohibited above.
 ---------------------------------------------------------------
  

 Cite this work as:
 Gaussian 16, Revision C.01,
 M. J. Frisch, G. W. Trucks, H. B. Schlegel, G. E. Scuseria, 
 M. A. Robb, J. R. Cheeseman, G. Scalmani, V. Barone, 
 G. A. Petersson, H. Nakatsuji, X. Li, M. Caricato, A. V. Marenich, 
 J. Bloino, B. G. Janesko, R. Gomperts, B. Mennucci, H. P. Hratchian, 
 J. V. Ortiz, A. F. Izmaylov, J. L. Sonnenberg, D. Williams-Young, 
 F. Ding, F. Lipparini, F. Egidi, J. Goings, B. Peng, A. Petrone, 
 T. Henderson, D. Ranasinghe, V. G. Zakrzewski, J. Gao, N. Rega, 
 G. Zheng, W. Liang, M. Hada, M. Ehara, K. Toyota, R. Fukuda, 
 J. Hasegawa, M. Ishida, T. Nakajima, Y. Honda, O. Kitao, H. Nakai, 
 T. Vreven, K. Throssell, J. A. Montgomery, Jr., J. E. Peralta, 
 F. Ogliaro, M. J. Bearpark, J. J. Heyd, E. N. Brothers, K. N. Kudin, 
 V. N. Staroverov, T. A. Keith, R. Kobayashi, J. Normand, 
 K. Raghavachari, A. P. Rendell, J. C. Burant, S. S. Iyengar, 
 J. Tomasi, M. Cossi, J. M. Millam, M. Klene, C. Adamo, R. Cammi, 
 J. W. Ochterski, R. L. Martin, K. Morokuma, O. Farkas, 
 J. B. Foresman, and D. J. Fox, Gaussian, Inc., Wallingford CT, 2019.
 
 ******************************************
 Gaussian 16:  ES64L-G16RevC.01  3-Jul-2019
                 2-May-2024 
 ******************************************
 %chk=geometry.chk
 %mem=1GB
 %nprocshared=12
 Will use up to   12 processors via shared memory.
 ----------------------------------------
 #P wB97XD/6-311+G* NoSymm #P Field=X+223
 ----------------------------------------
 1/38=1,172=1/1;
 2/12=2,15=1,17=6,18=5,40=1/2;
 3/5=4,6=6,7=11,11=2,14=1,15=223,25=1,30=1,74=-58/1,2,3;
 4//1;
 5/5=2,38=5/2;
 6/7=2,8=2,9=2,10=2,28=1/1;
 99/5=1,9=1/99;
 Leave Link    1 at Thu May  2 13:57:37 2024, MaxMem=   134217728 cpu:               2.8 elap:               2.8
 (Enter /software/gaussian/g16-c01/sse4/g16/l101.exe)
 -------
 TitleMe
 -------
 Symbolic Z-matrix:
 Charge =  1 Multiplicity = 1
 C                     0.5193    1.233    -0.0319 
 C                     1.9445    1.2692   -0.0367 
 C                     2.6204    0.0928   -0.025 
 C                    -0.196     0.0301    0.001 
 H                    -0.0207    2.1742   -0.0434 
 H                     2.4828    2.2089   -0.0361 
 H                    -1.2777    0.0399    0.0117 
 N                     4.0921    0.0959    0.0366 
 O                     4.6393   -1.0217    0.1446 
 O                     4.6649    1.1984   -0.0233 
 C                     0.4943   -1.1671    0.021 
 H                    -0.0325   -2.1149    0.0545 
 C                     1.9629   -1.2165   -0.0211 
 H                     2.4436   -1.9631    0.6151 
 Br                    2.173    -1.9491   -1.9062 
 
 ITRead=  0  0  0  0  0  0  0  0  0  0  0  0  0  0  0
 MicOpt= -1 -1 -1 -1 -1 -1 -1 -1 -1 -1 -1 -1 -1 -1 -1
 NAtoms=     15 NQM=       15 NQMF=       0 NMMI=      0 NMMIF=      0
                NMic=       0 NMicF=      0.
                    Isotopes and Nuclear Properties:
 (Nuclear quadrupole moments (NQMom) in fm**2, nuclear magnetic moments (NMagM)
  in nuclear magnetons)

  Atom         1           2           3           4           5           6           7           8           9          10
 IAtWgt=          12          12          12          12           1           1           1          14          16          16
 AtmWgt=  12.0000000  12.0000000  12.0000000  12.0000000   1.0078250   1.0078250   1.0078250  14.0030740  15.9949146  15.9949146
 NucSpn=           0           0           0           0           1           1           1           2           0           0
 AtZEff=  -0.0000000  -0.0000000  -0.0000000  -0.0000000  -0.0000000  -0.0000000  -0.0000000  -0.0000000  -0.0000000  -0.0000000
 NQMom=    0.0000000   0.0000000   0.0000000   0.0000000   0.0000000   0.0000000   0.0000000   2.0440000   0.0000000   0.0000000
 NMagM=    0.0000000   0.0000000   0.0000000   0.0000000   2.7928460   2.7928460   2.7928460   0.4037610   0.0000000   0.0000000
 AtZNuc=   6.0000000   6.0000000   6.0000000   6.0000000   1.0000000   1.0000000   1.0000000   7.0000000   8.0000000   8.0000000

  Atom        11          12          13          14          15
 IAtWgt=          12           1          12           1          79
 AtmWgt=  12.0000000   1.0078250  12.0000000   1.0078250  78.9183361
 NucSpn=           0           1           0           1           3
 AtZEff=  -0.0000000  -0.0000000  -0.0000000  -0.0000000  -0.0000000
 NQMom=    0.0000000   0.0000000   0.0000000   0.0000000  31.3000000
 NMagM=    0.0000000   2.7928460   0.0000000   2.7928460   2.1063990
 AtZNuc=   6.0000000   1.0000000   6.0000000   1.0000000  35.0000000
 Leave Link  101 at Thu May  2 13:57:40 2024, MaxMem=   134217728 cpu:               1.6 elap:               2.2
 (Enter /software/gaussian/g16-c01/sse4/g16/l202.exe)
                          Input orientation:                          
 ---------------------------------------------------------------------
 Center     Atomic      Atomic             Coordinates (Angstroms)
 Number     Number       Type             X           Y           Z
 ---------------------------------------------------------------------
      1          6           0        0.519300    1.233000   -0.031900
      2          6           0        1.944500    1.269200   -0.036700
      3          6           0        2.620400    0.092800   -0.025000
      4          6           0       -0.196000    0.030100    0.001000
      5          1           0       -0.020700    2.174200   -0.043400
      6          1           0        2.482800    2.208900   -0.036100
      7          1           0       -1.277700    0.039900    0.011700
      8          7           0        4.092100    0.095900    0.036600
      9          8           0        4.639300   -1.021700    0.144600
     10          8           0        4.664900    1.198400   -0.023300
     11          6           0        0.494300   -1.167100    0.021000
     12          1           0       -0.032500   -2.114900    0.054500
     13          6           0        1.962900   -1.216500   -0.021100
     14          1           0        2.443600   -1.963100    0.615100
     15         35           0        2.173000   -1.949100   -1.906200
 ---------------------------------------------------------------------
                    Distance matrix (angstroms):
                    1          2          3          4          5
     1  C    0.000000
     2  C    1.425668   0.000000
     3  C    2.390549   1.356796   0.000000
     4  C    1.399895   2.473566   2.817218   0.000000
     5  H    1.085168   2.163581   3.362733   2.151712   0.000000
     6  H    2.192654   1.082960   2.120598   3.453189   2.503751
     7  H    2.157452   3.449071   3.898632   1.081797   2.477564
     8  N    3.750012   2.448304   1.472992   4.288753   4.608780
     9  O    4.699917   3.541615   2.312322   4.950458   5.653735
    10  O    4.145753   2.721354   2.324292   4.999386   4.786171
    11  C    2.400813   2.835836   2.471794   1.382101   3.381369
    12  H    3.394169   3.920329   3.452266   2.151887   4.290233
    13  C    2.843264   2.485817   1.465124   2.493060   3.928360
    14  H    3.786370   3.334922   2.160489   3.364142   4.860416
    15  Br   4.046416   3.728900   2.812194   3.628609   5.028314
                    6          7          8          9         10
     6  H    0.000000
     7  H    4.341452   0.000000
     8  N    2.657047   5.370150   0.000000
     9  O    3.888434   6.012948   1.249048   0.000000
    10  O    2.404752   6.054572   1.243863   2.226587   0.000000
    11  C    3.918516   2.144043   3.813080   4.149391   4.794941
    12  H    5.003018   2.489080   4.679774   4.798846   5.748876
    13  C    3.464662   3.475788   2.501842   2.688591   3.623886
    14  H    4.222698   4.268978   2.700314   2.434893   3.916224
    15  Br   4.569706   4.420610   3.411663   3.338935   4.434144
                   11         12         13         14         15
    11  C    0.000000
    12  H    1.084880   0.000000
    13  C    1.470034   2.189625   0.000000
    14  H    2.187771   2.543302   1.092353   0.000000
    15  Br   2.672762   2.955683   2.033334   2.535818   0.000000
 Symmetry turned off by external request.
 Stoichiometry    C6H5BrNO2(1+)
 Framework group  C1[X(C6H5BrNO2)]
 Deg. of freedom    39
 Full point group                 C1      NOp   1
 Rotational constants (GHZ):           1.1632986           0.9594224           0.5957624
 Leave Link  202 at Thu May  2 13:57:41 2024, MaxMem=   134217728 cpu:               1.3 elap:               1.3
 (Enter /software/gaussian/g16-c01/sse4/g16/l301.exe)
 Standard basis: 6-311+G(d) (5D, 7F)
 Ernie: Thresh=  0.10000D-02 Tol=  0.10000D-05 Strict=F.
 The following finite field(s) will be applied:
 An electric field of              0.0223  0.0000  0.0000
   261 basis functions,   443 primitive gaussians,   273 cartesian basis functions
    49 alpha electrons       49 beta electrons
       nuclear repulsion energy       772.8945969580 Hartrees.
 IExCor= 4639 DFT=T Ex+Corr=wB97XD ExCW=0 ScaHFX=  1.000000
 ScaDFX=  1.000000  1.000000  1.000000  1.000000 ScalE2=  1.000000  1.000000
 IRadAn=      5 IRanWt=     -1 IRanGd=            0 ICorTp=0 IEmpDi=121
 HFx  wShort=  0.000000 wLong=  0.200000 cFull=  0.222036 cShort=  0.000000 cLong=  0.777964
 DFx  wShort=  0.000000 wLong=  0.200000 cFull=  0.000000 cShort=  0.000000 cLong=  1.000000
 NAtoms=   15 NActive=   15 NUniq=   15 SFac= 1.00D+00 NAtFMM=   60 NAOKFM=F Big=F
 Integral buffers will be    131072 words long.
 Raffenetti 2 integral format.
 Two-electron integral symmetry is turned off.
 R6Disp:  Grimme-D2 Dispersion energy=       -0.0080346408 Hartrees.
 Nuclear repulsion after empirical dispersion term =      772.8865623173 Hartrees.
 Leave Link  301 at Thu May  2 13:57:42 2024, MaxMem=   134217728 cpu:               1.0 elap:               1.0
 (Enter /software/gaussian/g16-c01/sse4/g16/l302.exe)
 NPDir=0 NMtPBC=     1 NCelOv=     1 NCel=       1 NClECP=     1 NCelD=      1
         NCelK=      1 NCelE2=     1 NClLst=     1 CellRange=     0.0.
 One-electron integrals computed using PRISM.
 NBasis=   261 RedAO= T EigKep=  2.52D-06  NBF=   261
 NBsUse=   261 1.00D-06 EigRej= -1.00D+00 NBFU=   261
 Precomputing XC quadrature grid using
 IXCGrd= 4 IRadAn=           5 IRanWt=          -1 IRanGd=           0 AccXCQ= 0.00D+00.
 Generated NRdTot=       0 NPtTot=           0 NUsed=           0 NTot=          32
 NSgBfM=   273   273   273   273   273 MxSgAt=    15 MxSgA2=    15.
 Leave Link  302 at Thu May  2 13:58:04 2024, MaxMem=   134217728 cpu:              21.8 elap:              21.9
 (Enter /software/gaussian/g16-c01/sse4/g16/l303.exe)
 DipDrv:  MaxL=1.
 The nuclear repulsion energy is now       782.4441673230 hartrees.
 Leave Link  303 at Thu May  2 13:58:07 2024, MaxMem=   134217728 cpu:               3.3 elap:               3.3
 (Enter /software/gaussian/g16-c01/sse4/g16/l401.exe)
 ExpMin= 3.50D-02 ExpMax= 4.40D+05 ExpMxC= 1.51D+04 IAcc=3 IRadAn=         5 AccDes= 0.00D+00
 Harris functional with IExCor= 4639 and IRadAn=       5 diagonalized for initial guess.
 HarFok:  IExCor= 4639 AccDes= 0.00D+00 IRadAn=         5 IDoV= 1 UseB2=F ITyADJ=14
 ICtDFT=  3500011 ScaDFX=  1.000000  1.000000  1.000000  1.000000
 FoFCou: FMM=F IPFlag=           0 FMFlag=      100000 FMFlg1=           0
         NFxFlg=           0 DoJE=T BraDBF=F KetDBF=T FulRan=T
         wScrn=  0.000000 ICntrl=       500 IOpCl=  0 I1Cent=   200000004 NGrid=           0
         NMat0=    1 NMatS0=      1 NMatT0=    0 NMatD0=    1 NMtDS0=    0 NMtDT0=    0
 Symmetry not used in FoFCou.
 Harris En= -2970.63055752750    
 JPrj=0 DoOrth=F DoCkMO=F.
 Leave Link  401 at Thu May  2 13:58:39 2024, MaxMem=   134217728 cpu:              31.4 elap:              31.4
 (Enter /software/gaussian/g16-c01/sse4/g16/l502.exe)
 Two-electron integral symmetry not used.
 Closed shell SCF:
 Using DIIS extrapolation, IDIIS=  1040.
 NGot=   134217728 LenX=   134063053 LenY=   133988083
 Requested convergence on RMS density matrix=1.00D-08 within 128 cycles.
 Requested convergence on MAX density matrix=1.00D-06.
 Requested convergence on             energy=1.00D-06.
 No special actions if energy rises.
 Fock matrices will be formed incrementally for  20 cycles.

 Cycle   1  Pass 1  IDiag  1:
 FoFJK:  IHMeth= 1 ICntrl=       0 DoSepK=T KAlg= 0 I1Cent=           0 FoldK=F
 IRaf=         1 NMat=       1 IRICut=       1 DoRegI=T DoRafI=F ISym2E= 0 IDoP0=0 IntGTp=1.
 FoFCou: FMM=F IPFlag=           0 FMFlag=      100000 FMFlg1=           0
         NFxFlg=           0 DoJE=T BraDBF=F KetDBF=F FulRan=T
         wScrn=  0.000000 ICntrl=       500 IOpCl=  0 I1Cent=           0 NGrid=           0
         NMat0=    1 NMatS0=      1 NMatT0=    0 NMatD0=    1 NMtDS0=    0 NMtDT0=    0
 Symmetry not used in FoFCou.
 E= -3009.70537120595    
 DIIS: error= 2.90D-01 at cycle   1 NSaved=   1.
 NSaved= 1 IEnMin= 1 EnMin= -3009.70537120595     IErMin= 1 ErrMin= 2.90D-01
 ErrMax= 2.90D-01  0.00D+00 EMaxC= 1.00D-01 BMatC= 1.19D+01 BMatP= 1.19D+01
 IDIUse=3 WtCom= 0.00D+00 WtEn= 1.00D+00
 Coeff-Com:  0.100D+01
 Coeff-En:   0.100D+01
 Coeff:      0.100D+01
 Gap=     0.265 Goal=   None    Shift=    0.000
 GapD=    0.265 DampG=1.000 DampE=0.250 DampFc=0.2500 IDamp=-1.
 Damping current iteration by 2.50D-01
 RMSDP=1.50D-01 MaxDP=1.55D+01              OVMax= 2.59D-01

 Cycle   2  Pass 1  IDiag  1:
 RMSU=  8.78D-03    CP:  8.24D-01
 E= -3009.99082690637     Delta-E=       -0.285455700420 Rises=F Damp=T
 DIIS: error= 2.19D-01 at cycle   2 NSaved=   2.
 NSaved= 2 IEnMin= 2 EnMin= -3009.99082690637     IErMin= 2 ErrMin= 2.19D-01
 ErrMax= 2.19D-01  0.00D+00 EMaxC= 1.00D-01 BMatC= 5.46D+00 BMatP= 1.19D+01
 IDIUse=3 WtCom= 0.00D+00 WtEn= 1.00D+00
 Coeff-Com: -0.185D+01 0.285D+01
 Coeff-En:   0.000D+00 0.100D+01
 Coeff:      0.000D+00 0.100D+01
 Gap=     0.239 Goal=   None    Shift=    0.000
 RMSDP=1.13D-01 MaxDP=1.19D+01 DE=-2.85D-01 OVMax= 7.33D-02

 Cycle   3  Pass 1  IDiag  1:
 RMSU=  5.84D-03    CP:  2.91D-01  3.00D+00
 E= -3010.38901994632     Delta-E=       -0.398193039945 Rises=F Damp=F
 DIIS: error= 6.57D-02 at cycle   3 NSaved=   3.
 NSaved= 3 IEnMin= 3 EnMin= -3010.38901994632     IErMin= 3 ErrMin= 6.57D-02
 ErrMax= 6.57D-02  0.00D+00 EMaxC= 1.00D-01 BMatC= 7.22D-01 BMatP= 5.46D+00
 IDIUse=3 WtCom= 3.43D-01 WtEn= 6.57D-01
 Coeff-Com:  0.275D+01-0.362D+01 0.187D+01
 Coeff-En:   0.000D+00 0.000D+00 0.100D+01
 Coeff:      0.944D+00-0.124D+01 0.130D+01
 Gap=     0.241 Goal=   None    Shift=    0.000
 RMSDP=1.58D-02 MaxDP=9.69D-01 DE=-3.98D-01 OVMax= 6.98D-02

 Cycle   4  Pass 1  IDiag  1:
 RMSU=  9.47D-03    CP:  3.17D-01  2.31D+00  2.37D+00
 E= -3010.48215701760     Delta-E=       -0.093137071284 Rises=F Damp=F
 DIIS: error= 4.14D-02 at cycle   4 NSaved=   4.
 NSaved= 4 IEnMin= 4 EnMin= -3010.48215701760     IErMin= 4 ErrMin= 4.14D-02
 ErrMax= 4.14D-02  0.00D+00 EMaxC= 1.00D-01 BMatC= 2.67D-01 BMatP= 7.22D-01
 IDIUse=3 WtCom= 5.86D-01 WtEn= 4.14D-01
 Coeff-Com: -0.209D+00 0.292D+00 0.277D+00 0.640D+00
 Coeff-En:   0.000D+00 0.000D+00 0.235D+00 0.765D+00
 Coeff:     -0.122D+00 0.171D+00 0.260D+00 0.692D+00
 Gap=     0.251 Goal=   None    Shift=    0.000
 RMSDP=7.18D-03 MaxDP=6.64D-01 DE=-9.31D-02 OVMax= 3.35D-02

 Cycle   5  Pass 1  IDiag  1:
 RMSU=  2.58D-03    CP:  2.89D-01  2.43D+00  2.11D+00  7.25D-01
 E= -3010.53351802615     Delta-E=       -0.051361008545 Rises=F Damp=F
 DIIS: error= 6.61D-03 at cycle   5 NSaved=   5.
 NSaved= 5 IEnMin= 5 EnMin= -3010.53351802615     IErMin= 5 ErrMin= 6.61D-03
 ErrMax= 6.61D-03  0.00D+00 EMaxC= 1.00D-01 BMatC= 7.33D-03 BMatP= 2.67D-01
 IDIUse=3 WtCom= 9.34D-01 WtEn= 6.61D-02
 Coeff-Com: -0.144D+00 0.196D+00 0.681D-01 0.336D+00 0.544D+00
 Coeff-En:   0.000D+00 0.000D+00 0.000D+00 0.000D+00 0.100D+01
 Coeff:     -0.135D+00 0.183D+00 0.636D-01 0.314D+00 0.574D+00
 Gap=     0.244 Goal=   None    Shift=    0.000
 RMSDP=1.35D-03 MaxDP=1.55D-01 DE=-5.14D-02 OVMax= 1.16D-02

 Cycle   6  Pass 1  IDiag  1:
 RMSU=  6.10D-04    CP:  2.91D-01  2.44D+00  2.19D+00  8.18D-01  8.13D-01
 E= -3010.53512596841     Delta-E=       -0.001607942262 Rises=F Damp=F
 DIIS: error= 2.02D-03 at cycle   6 NSaved=   6.
 NSaved= 6 IEnMin= 6 EnMin= -3010.53512596841     IErMin= 6 ErrMin= 2.02D-03
 ErrMax= 2.02D-03  0.00D+00 EMaxC= 1.00D-01 BMatC= 3.68D-04 BMatP= 7.33D-03
 IDIUse=3 WtCom= 9.80D-01 WtEn= 2.02D-02
 Coeff-Com: -0.928D-01 0.125D+00-0.450D-02 0.141D+00 0.372D+00 0.459D+00
 Coeff-En:   0.000D+00 0.000D+00 0.000D+00 0.000D+00 0.144D-01 0.986D+00
 Coeff:     -0.909D-01 0.122D+00-0.441D-02 0.139D+00 0.365D+00 0.470D+00
 Gap=     0.244 Goal=   None    Shift=    0.000
 RMSDP=5.05D-04 MaxDP=4.08D-02 DE=-1.61D-03 OVMax= 5.92D-03

 Cycle   7  Pass 1  IDiag  1:
 RMSU=  2.10D-04    CP:  2.90D-01  2.42D+00  2.19D+00  8.06D-01  9.19D-01
                    CP:  8.50D-01
 E= -3010.53539274294     Delta-E=       -0.000266774529 Rises=F Damp=F
 DIIS: error= 3.73D-04 at cycle   7 NSaved=   7.
 NSaved= 7 IEnMin= 7 EnMin= -3010.53539274294     IErMin= 7 ErrMin= 3.73D-04
 ErrMax= 3.73D-04  0.00D+00 EMaxC= 1.00D-01 BMatC= 1.87D-05 BMatP= 3.68D-04
 IDIUse=3 WtCom= 9.96D-01 WtEn= 3.73D-03
 Coeff-Com: -0.216D-01 0.285D-01-0.152D-01 0.875D-02 0.598D-01 0.186D+00
 Coeff-Com:  0.754D+00
 Coeff-En:   0.000D+00 0.000D+00 0.000D+00 0.000D+00 0.000D+00 0.000D+00
 Coeff-En:   0.100D+01
 Coeff:     -0.216D-01 0.284D-01-0.151D-01 0.872D-02 0.596D-01 0.185D+00
 Coeff:      0.755D+00
 Gap=     0.245 Goal=   None    Shift=    0.000
 RMSDP=3.09D-04 MaxDP=3.17D-02 DE=-2.67D-04 OVMax= 3.28D-03

 Cycle   8  Pass 1  IDiag  1:
 RMSU=  1.33D-04    CP:  2.89D-01  2.41D+00  2.22D+00  8.19D-01  9.69D-01
                    CP:  9.21D-01  1.29D+00
 E= -3010.53542060390     Delta-E=       -0.000027860964 Rises=F Damp=F
 DIIS: error= 1.85D-04 at cycle   8 NSaved=   8.
 NSaved= 8 IEnMin= 8 EnMin= -3010.53542060390     IErMin= 8 ErrMin= 1.85D-04
 ErrMax= 1.85D-04  0.00D+00 EMaxC= 1.00D-01 BMatC= 3.49D-06 BMatP= 1.87D-05
 IDIUse=3 WtCom= 9.98D-01 WtEn= 1.85D-03
 Coeff-Com:  0.138D-01-0.188D-01-0.309D-02-0.247D-01-0.536D-01-0.462D-01
 Coeff-Com:  0.262D+00 0.870D+00
 Coeff-En:   0.000D+00 0.000D+00 0.000D+00 0.000D+00 0.000D+00 0.000D+00
 Coeff-En:   0.000D+00 0.100D+01
 Coeff:      0.138D-01-0.187D-01-0.308D-02-0.246D-01-0.535D-01-0.461D-01
 Coeff:      0.262D+00 0.870D+00
 Gap=     0.245 Goal=   None    Shift=    0.000
 RMSDP=1.51D-04 MaxDP=1.14D-02 DE=-2.79D-05 OVMax= 2.21D-03

 Cycle   9  Pass 1  IDiag  1:
 RMSU=  4.01D-05    CP:  2.90D-01  2.41D+00  2.23D+00  8.27D-01  9.86D-01
                    CP:  1.01D+00  1.54D+00  1.23D+00
 E= -3010.53542900379     Delta-E=       -0.000008399882 Rises=F Damp=F
 DIIS: error= 3.53D-05 at cycle   9 NSaved=   9.
 NSaved= 9 IEnMin= 9 EnMin= -3010.53542900379     IErMin= 9 ErrMin= 3.53D-05
 ErrMax= 3.53D-05  0.00D+00 EMaxC= 1.00D-01 BMatC= 4.79D-07 BMatP= 3.49D-06
 IDIUse=1 WtCom= 1.00D+00 WtEn= 0.00D+00
 Coeff-Com:  0.822D-02-0.110D-01 0.133D-02-0.102D-01-0.249D-01-0.388D-01
 Coeff-Com: -0.299D-01 0.254D+00 0.852D+00
 Coeff:      0.822D-02-0.110D-01 0.133D-02-0.102D-01-0.249D-01-0.388D-01
 Coeff:     -0.299D-01 0.254D+00 0.852D+00
 Gap=     0.245 Goal=   None    Shift=    0.000
 RMSDP=4.68D-05 MaxDP=2.92D-03 DE=-8.40D-06 OVMax= 1.22D-03

 Cycle  10  Pass 1  IDiag  1:
 RMSU=  1.66D-05    CP:  2.90D-01  2.40D+00  2.23D+00  8.28D-01  9.96D-01
                    CP:  1.01D+00  1.58D+00  1.30D+00  1.26D+00
 E= -3010.53543052954     Delta-E=       -0.000001525750 Rises=F Damp=F
 DIIS: error= 2.17D-05 at cycle  10 NSaved=  10.
 NSaved=10 IEnMin=10 EnMin= -3010.53543052954     IErMin=10 ErrMin= 2.17D-05
 ErrMax= 2.17D-05  0.00D+00 EMaxC= 1.00D-01 BMatC= 1.20D-07 BMatP= 4.79D-07
 IDIUse=1 WtCom= 1.00D+00 WtEn= 0.00D+00
 Coeff-Com: -0.647D-05 0.484D-04 0.589D-03 0.450D-03 0.194D-02 0.618D-03
 Coeff-Com: -0.477D-01-0.852D-01 0.253D+00 0.876D+00
 Coeff:     -0.647D-05 0.484D-04 0.589D-03 0.450D-03 0.194D-02 0.618D-03
 Coeff:     -0.477D-01-0.852D-01 0.253D+00 0.876D+00
 Gap=     0.245 Goal=   None    Shift=    0.000
 RMSDP=2.25D-05 MaxDP=1.70D-03 DE=-1.53D-06 OVMax= 6.17D-04

 Cycle  11  Pass 1  IDiag  1:
 RMSU=  6.91D-06    CP:  2.90D-01  2.40D+00  2.23D+00  8.28D-01  9.96D-01
                    CP:  1.02D+00  1.55D+00  1.28D+00  1.45D+00  1.49D+00
 E= -3010.53543089919     Delta-E=       -0.000000369658 Rises=F Damp=F
 DIIS: error= 8.87D-06 at cycle  11 NSaved=  11.
 NSaved=11 IEnMin=11 EnMin= -3010.53543089919     IErMin=11 ErrMin= 8.87D-06
 ErrMax= 8.87D-06  0.00D+00 EMaxC= 1.00D-01 BMatC= 1.25D-08 BMatP= 1.20D-07
 IDIUse=1 WtCom= 1.00D+00 WtEn= 0.00D+00
 Coeff-Com: -0.643D-03 0.858D-03-0.192D-05 0.129D-02 0.363D-02 0.713D-02
 Coeff-Com:  0.127D-01-0.518D-01-0.148D+00-0.221D-01 0.120D+01
 Coeff:     -0.643D-03 0.858D-03-0.192D-05 0.129D-02 0.363D-02 0.713D-02
 Coeff:      0.127D-01-0.518D-01-0.148D+00-0.221D-01 0.120D+01
 Gap=     0.245 Goal=   None    Shift=    0.000
 RMSDP=1.43D-05 MaxDP=1.28D-03 DE=-3.70D-07 OVMax= 4.55D-04

 Cycle  12  Pass 1  IDiag  1:
 RMSU=  2.64D-06    CP:  2.90D-01  2.40D+00  2.23D+00  8.28D-01  9.95D-01
                    CP:  1.02D+00  1.52D+00  1.25D+00  1.59D+00  1.83D+00
                    CP:  1.56D+00
 E= -3010.53543100222     Delta-E=       -0.000000103027 Rises=F Damp=F
 DIIS: error= 4.42D-06 at cycle  12 NSaved=  12.
 NSaved=12 IEnMin=12 EnMin= -3010.53543100222     IErMin=12 ErrMin= 4.42D-06
 ErrMax= 4.42D-06  0.00D+00 EMaxC= 1.00D-01 BMatC= 6.48D-09 BMatP= 1.25D-08
 IDIUse=1 WtCom= 1.00D+00 WtEn= 0.00D+00
 Coeff-Com: -0.352D-03 0.464D-03-0.649D-04 0.638D-03 0.127D-02 0.305D-02
 Coeff-Com:  0.138D-01-0.180D-01-0.114D+00-0.170D+00 0.624D+00 0.660D+00
 Coeff:     -0.352D-03 0.464D-03-0.649D-04 0.638D-03 0.127D-02 0.305D-02
 Coeff:      0.138D-01-0.180D-01-0.114D+00-0.170D+00 0.624D+00 0.660D+00
 Gap=     0.245 Goal=   None    Shift=    0.000
 RMSDP=5.11D-06 MaxDP=3.38D-04 DE=-1.03D-07 OVMax= 1.45D-04

 Cycle  13  Pass 1  IDiag  1:
 RMSU=  1.51D-06    CP:  2.90D-01  2.40D+00  2.23D+00  8.28D-01  9.95D-01
                    CP:  1.02D+00  1.51D+00  1.24D+00  1.63D+00  1.96D+00
                    CP:  1.72D+00  1.11D+00
 E= -3010.53543102053     Delta-E=       -0.000000018309 Rises=F Damp=F
 DIIS: error= 1.24D-06 at cycle  13 NSaved=  13.
 NSaved=13 IEnMin=13 EnMin= -3010.53543102053     IErMin=13 ErrMin= 1.24D-06
 ErrMax= 1.24D-06  0.00D+00 EMaxC= 1.00D-01 BMatC= 6.72D-10 BMatP= 6.48D-09
 IDIUse=1 WtCom= 1.00D+00 WtEn= 0.00D+00
 Coeff-Com: -0.508D-04 0.684D-04-0.402D-04-0.127D-03-0.855D-03-0.148D-02
 Coeff-Com: -0.832D-03 0.827D-02 0.267D-01-0.275D-01-0.163D+00 0.439D-01
 Coeff-Com:  0.112D+01
 Coeff:     -0.508D-04 0.684D-04-0.402D-04-0.127D-03-0.855D-03-0.148D-02
 Coeff:     -0.832D-03 0.827D-02 0.267D-01-0.275D-01-0.163D+00 0.439D-01
 Coeff:      0.112D+01
 Gap=     0.245 Goal=   None    Shift=    0.000
 RMSDP=2.31D-06 MaxDP=1.75D-04 DE=-1.83D-08 OVMax= 8.14D-05

 Cycle  14  Pass 1  IDiag  1:
 RMSU=  6.99D-07    CP:  2.90D-01  2.40D+00  2.23D+00  8.28D-01  9.95D-01
                    CP:  1.02D+00  1.51D+00  1.25D+00  1.65D+00  1.97D+00
                    CP:  1.74D+00  1.34D+00  1.65D+00
 E= -3010.53543102435     Delta-E=       -0.000000003819 Rises=F Damp=F
 DIIS: error= 9.18D-07 at cycle  14 NSaved=  14.
 NSaved=14 IEnMin=14 EnMin= -3010.53543102435     IErMin=14 ErrMin= 9.18D-07
 ErrMax= 9.18D-07  0.00D+00 EMaxC= 1.00D-01 BMatC= 1.24D-10 BMatP= 6.72D-10
 IDIUse=1 WtCom= 1.00D+00 WtEn= 0.00D+00
 Coeff-Com:  0.398D-04-0.523D-04-0.499D-05-0.139D-03-0.426D-03-0.870D-03
 Coeff-Com: -0.222D-02 0.562D-02 0.274D-01 0.162D-01-0.144D+00-0.109D+00
 Coeff-Com:  0.355D+00 0.852D+00
 Coeff:      0.398D-04-0.523D-04-0.499D-05-0.139D-03-0.426D-03-0.870D-03
 Coeff:     -0.222D-02 0.562D-02 0.274D-01 0.162D-01-0.144D+00-0.109D+00
 Coeff:      0.355D+00 0.852D+00
 Gap=     0.245 Goal=   None    Shift=    0.000
 RMSDP=1.12D-06 MaxDP=1.25D-04 DE=-3.82D-09 OVMax= 2.54D-05

 Cycle  15  Pass 1  IDiag  1:
 RMSU=  1.95D-07    CP:  2.90D-01  2.40D+00  2.23D+00  8.28D-01  9.95D-01
                    CP:  1.02D+00  1.51D+00  1.25D+00  1.65D+00  1.96D+00
                    CP:  1.72D+00  1.40D+00  2.02D+00  1.32D+00
 E= -3010.53543102495     Delta-E=       -0.000000000598 Rises=F Damp=F
 DIIS: error= 3.60D-07 at cycle  15 NSaved=  15.
 NSaved=15 IEnMin=15 EnMin= -3010.53543102495     IErMin=15 ErrMin= 3.60D-07
 ErrMax= 3.60D-07  0.00D+00 EMaxC= 1.00D-01 BMatC= 2.60D-11 BMatP= 1.24D-10
 IDIUse=1 WtCom= 1.00D+00 WtEn= 0.00D+00
 Coeff-Com:  0.107D-04-0.143D-04 0.482D-05 0.446D-05 0.123D-03 0.145D-03
 Coeff-Com: -0.477D-03-0.759D-03 0.748D-03 0.891D-02-0.679D-02-0.429D-01
 Coeff-Com: -0.124D+00 0.288D+00 0.877D+00
 Coeff:      0.107D-04-0.143D-04 0.482D-05 0.446D-05 0.123D-03 0.145D-03
 Coeff:     -0.477D-03-0.759D-03 0.748D-03 0.891D-02-0.679D-02-0.429D-01
 Coeff:     -0.124D+00 0.288D+00 0.877D+00
 Gap=     0.245 Goal=   None    Shift=    0.000
 RMSDP=5.75D-07 MaxDP=4.78D-05 DE=-5.98D-10 OVMax= 1.38D-05

 Cycle  16  Pass 1  IDiag  1:
 RMSU=  7.44D-08    CP:  2.90D-01  2.40D+00  2.23D+00  8.28D-01  9.95D-01
                    CP:  1.02D+00  1.51D+00  1.25D+00  1.66D+00  1.97D+00
                    CP:  1.71D+00  1.41D+00  2.19D+00  1.53D+00  1.46D+00
 E= -3010.53543102500     Delta-E=       -0.000000000053 Rises=F Damp=F
 DIIS: error= 8.67D-08 at cycle  16 NSaved=  16.
 NSaved=16 IEnMin=16 EnMin= -3010.53543102500     IErMin=16 ErrMin= 8.67D-08
 ErrMax= 8.67D-08  0.00D+00 EMaxC= 1.00D-01 BMatC= 3.03D-12 BMatP= 2.60D-11
 IDIUse=1 WtCom= 1.00D+00 WtEn= 0.00D+00
 Coeff-Com:  0.372D-06-0.546D-06 0.222D-05 0.142D-04 0.712D-04 0.117D-03
 Coeff-Com:  0.999D-04-0.725D-03-0.275D-02 0.203D-02 0.149D-01 0.552D-02
 Coeff-Com: -0.812D-01-0.511D-01 0.196D+00 0.917D+00
 Coeff:      0.372D-06-0.546D-06 0.222D-05 0.142D-04 0.712D-04 0.117D-03
 Coeff:      0.999D-04-0.725D-03-0.275D-02 0.203D-02 0.149D-01 0.552D-02
 Coeff:     -0.812D-01-0.511D-01 0.196D+00 0.917D+00
 Gap=     0.245 Goal=   None    Shift=    0.000
 RMSDP=2.30D-07 MaxDP=2.80D-05 DE=-5.32D-11 OVMax= 2.60D-06

 Cycle  17  Pass 1  IDiag  1:
 RMSU=  2.77D-08    CP:  2.90D-01  2.40D+00  2.23D+00  8.28D-01  9.96D-01
                    CP:  1.02D+00  1.52D+00  1.25D+00  1.66D+00  1.96D+00
                    CP:  1.70D+00  1.41D+00  2.24D+00  1.60D+00  1.73D+00
                    CP:  1.20D+00
 E= -3010.53543102502     Delta-E=       -0.000000000017 Rises=F Damp=F
 DIIS: error= 3.91D-08 at cycle  17 NSaved=  17.
 NSaved=17 IEnMin=17 EnMin= -3010.53543102502     IErMin=17 ErrMin= 3.91D-08
 ErrMax= 3.91D-08  0.00D+00 EMaxC= 1.00D-01 BMatC= 5.34D-13 BMatP= 3.03D-12
 IDIUse=1 WtCom= 1.00D+00 WtEn= 0.00D+00
 Coeff-Com: -0.129D-05 0.171D-05 0.191D-07 0.299D-05 0.179D-05 0.376D-05
 Coeff-Com:  0.697D-04-0.252D-04-0.973D-03-0.637D-03 0.321D-02 0.813D-02
 Coeff-Com: -0.673D-02-0.473D-01-0.615D-01 0.266D+00 0.839D+00
 Coeff:     -0.129D-05 0.171D-05 0.191D-07 0.299D-05 0.179D-05 0.376D-05
 Coeff:      0.697D-04-0.252D-04-0.973D-03-0.637D-03 0.321D-02 0.813D-02
 Coeff:     -0.673D-02-0.473D-01-0.615D-01 0.266D+00 0.839D+00
 Gap=     0.245 Goal=   None    Shift=    0.000
 RMSDP=4.29D-08 MaxDP=2.88D-06 DE=-1.73D-11 OVMax= 1.27D-06

 Cycle  18  Pass 1  IDiag  1:
 RMSU=  9.27D-09    CP:  2.90D-01  2.40D+00  2.23D+00  8.28D-01  9.96D-01
                    CP:  1.02D+00  1.52D+00  1.25D+00  1.66D+00  1.97D+00
                    CP:  1.70D+00  1.41D+00  2.25D+00  1.61D+00  1.82D+00
                    CP:  1.39D+00  1.18D+00
 E= -3010.53543102504     Delta-E=       -0.000000000019 Rises=F Damp=F
 DIIS: error= 1.49D-08 at cycle  18 NSaved=  18.
 NSaved=18 IEnMin=18 EnMin= -3010.53543102504     IErMin=18 ErrMin= 1.49D-08
 ErrMax= 1.49D-08  0.00D+00 EMaxC= 1.00D-01 BMatC= 1.17D-13 BMatP= 5.34D-13
 IDIUse=1 WtCom= 1.00D+00 WtEn= 0.00D+00
 Coeff-Com:  0.631D-08-0.682D-08-0.347D-06-0.225D-05-0.136D-04-0.239D-04
 Coeff-Com:  0.443D-05 0.165D-03 0.203D-03-0.470D-03-0.189D-02 0.287D-02
 Coeff-Com:  0.140D-01-0.644D-02-0.661D-01-0.960D-01 0.299D+00 0.855D+00
 Coeff:      0.631D-08-0.682D-08-0.347D-06-0.225D-05-0.136D-04-0.239D-04
 Coeff:      0.443D-05 0.165D-03 0.203D-03-0.470D-03-0.189D-02 0.287D-02
 Coeff:      0.140D-01-0.644D-02-0.661D-01-0.960D-01 0.299D+00 0.855D+00
 Gap=     0.245 Goal=   None    Shift=    0.000
 RMSDP=3.47D-08 MaxDP=4.01D-06 DE=-1.91D-11 OVMax= 3.89D-07

 Cycle  19  Pass 1  IDiag  1:
 RMSU=  3.61D-09    CP:  2.90D-01  2.40D+00  2.23D+00  8.28D-01  9.96D-01
                    CP:  1.02D+00  1.52D+00  1.25D+00  1.66D+00  1.97D+00
                    CP:  1.70D+00  1.41D+00  2.25D+00  1.60D+00  1.86D+00
                    CP:  1.46D+00  1.40D+00  1.08D+00
 E= -3010.53543102499     Delta-E=        0.000000000045 Rises=F Damp=F
 DIIS: error= 3.54D-09 at cycle  19 NSaved=  19.
 NSaved=19 IEnMin=18 EnMin= -3010.53543102504     IErMin=19 ErrMin= 3.54D-09
 ErrMax= 3.54D-09  0.00D+00 EMaxC= 1.00D-01 BMatC= 4.95D-15 BMatP= 1.17D-13
 IDIUse=1 WtCom= 1.00D+00 WtEn= 0.00D+00
 Large coefficients: NSaved= 19 BigCof=    0.00 CofMax=   10.00 Det=-1.32D-14
 Inversion failed.  Reducing to 18 matrices.
 Coeff-Com:  0.856D-09-0.412D-07-0.115D-06 0.316D-06-0.746D-06-0.701D-05
 Coeff-Com:  0.111D-05 0.616D-04 0.109D-03-0.494D-03-0.300D-03 0.418D-03
 Coeff-Com:  0.343D-02 0.399D-02-0.234D-01-0.461D-01 0.857D-02 0.105D+01
 Coeff:      0.856D-09-0.412D-07-0.115D-06 0.316D-06-0.746D-06-0.701D-05
 Coeff:      0.111D-05 0.616D-04 0.109D-03-0.494D-03-0.300D-03 0.418D-03
 Coeff:      0.343D-02 0.399D-02-0.234D-01-0.461D-01 0.857D-02 0.105D+01
 Gap=     0.245 Goal=   None    Shift=    0.000
 RMSDP=4.28D-09 MaxDP=4.08D-07 DE= 4.55D-11 OVMax= 1.15D-07

 SCF Done:  E(RwB97XD) =  -3010.53543102     A.U. after   19 cycles
            NFock= 19  Conv=0.43D-08     -V/T= 2.0016
 KE= 3.005873492720D+03 PE=-8.709773824233D+03 EE= 1.910920733165D+03
 Leave Link  502 at Thu May  2 14:17:56 2024, MaxMem=   134217728 cpu:            1156.7 elap:            1157.5
 (Enter /software/gaussian/g16-c01/sse4/g16/l601.exe)
 Copying SCF densities to generalized density rwf, IOpCl= 0 IROHF=0.

 **********************************************************************

            Population analysis using the SCF Density.

 **********************************************************************

 Alpha  occ. eigenvalues -- -483.39030 -62.94065 -56.73743 -56.73195 -56.73186
 Alpha  occ. eigenvalues --  -19.60189 -19.60061 -14.99184 -10.67372 -10.66079
 Alpha  occ. eigenvalues --  -10.63604 -10.62736 -10.62350 -10.57881  -9.09881
 Alpha  occ. eigenvalues --   -6.92517  -6.90715  -6.90687  -3.02431  -3.01956
 Alpha  occ. eigenvalues --   -3.01933  -3.00490  -3.00490  -1.63735  -1.46833
 Alpha  occ. eigenvalues --   -1.30367  -1.21077  -1.20025  -1.12771  -1.09069
 Alpha  occ. eigenvalues --   -1.02465  -0.99235  -0.96034  -0.93634  -0.92114
 Alpha  occ. eigenvalues --   -0.88482  -0.86040  -0.84170  -0.83373  -0.79339
 Alpha  occ. eigenvalues --   -0.74251  -0.73922  -0.71471  -0.71409  -0.70187
 Alpha  occ. eigenvalues --   -0.70117  -0.67118  -0.64397  -0.62578
 Alpha virt. eigenvalues --   -0.38058  -0.31513  -0.23599  -0.21180  -0.20163
 Alpha virt. eigenvalues --   -0.17052  -0.15717  -0.15189  -0.13716  -0.11156
 Alpha virt. eigenvalues --   -0.10805  -0.10109  -0.09887  -0.08351  -0.07394
 Alpha virt. eigenvalues --   -0.07329  -0.06817  -0.06138  -0.05282  -0.04243
 Alpha virt. eigenvalues --   -0.03854  -0.02947  -0.01925  -0.01377  -0.00993
 Alpha virt. eigenvalues --   -0.00726   0.00276   0.00526   0.01016   0.01292
 Alpha virt. eigenvalues --    0.02779   0.03435   0.03920   0.04522   0.05333
 Alpha virt. eigenvalues --    0.05730   0.06556   0.07564   0.07899   0.08180
 Alpha virt. eigenvalues --    0.09470   0.09751   0.09952   0.11096   0.11969
 Alpha virt. eigenvalues --    0.12965   0.13606   0.14633   0.15590   0.16773
 Alpha virt. eigenvalues --    0.17196   0.17503   0.18067   0.19997   0.20727
 Alpha virt. eigenvalues --    0.22644   0.23272   0.24479   0.25541   0.27449
 Alpha virt. eigenvalues --    0.29517   0.29683   0.32183   0.33617   0.35325
 Alpha virt. eigenvalues --    0.36958   0.37048   0.37976   0.38918   0.40236
 Alpha virt. eigenvalues --    0.41263   0.41987   0.43001   0.44057   0.46324
 Alpha virt. eigenvalues --    0.47861   0.48925   0.50406   0.51543   0.52575
 Alpha virt. eigenvalues --    0.55991   0.56332   0.58045   0.59958   0.62321
 Alpha virt. eigenvalues --    0.63039   0.64599   0.65870   0.67501   0.68850
 Alpha virt. eigenvalues --    0.69622   0.70808   0.72051   0.73166   0.75253
 Alpha virt. eigenvalues --    0.78758   0.79676   0.81940   0.85147   0.87262
 Alpha virt. eigenvalues --    0.88017   0.91779   0.94484   0.96933   0.97287
 Alpha virt. eigenvalues --    0.98973   1.00351   1.00834   1.02578   1.07114
 Alpha virt. eigenvalues --    1.08984   1.10399   1.20012   1.26011   1.29329
 Alpha virt. eigenvalues --    1.29893   1.31138   1.35853   1.44499   1.46095
 Alpha virt. eigenvalues --    1.48055   1.49564   1.53809   1.55890   1.58509
 Alpha virt. eigenvalues --    1.59461   1.61803   1.64076   1.69025   1.72047
 Alpha virt. eigenvalues --    1.77412   1.77990   1.80239   1.86443   1.87652
 Alpha virt. eigenvalues --    1.88009   1.93046   1.94331   1.99213   2.01326
 Alpha virt. eigenvalues --    2.05363   2.07541   2.13074   2.15970   2.21858
 Alpha virt. eigenvalues --    2.26542   2.30498   2.32530   2.36470   2.46308
 Alpha virt. eigenvalues --    2.51225   2.54669   2.57246   2.59146   2.60985
 Alpha virt. eigenvalues --    2.62752   2.63473   2.67019   2.69317   2.74730
 Alpha virt. eigenvalues --    2.84631   2.88034   2.91451   2.97440   3.01097
 Alpha virt. eigenvalues --    3.06049   3.10008   3.10307   3.12257   3.12756
 Alpha virt. eigenvalues --    3.19821   3.27244   3.40558   3.41415   3.42081
 Alpha virt. eigenvalues --    3.48699   3.55506   3.60679   3.76649   3.80117
 Alpha virt. eigenvalues --    4.02062   4.02925   4.11435   4.15662   4.30718
 Alpha virt. eigenvalues --    4.35785   4.45375   4.49668   4.79150   4.81892
 Alpha virt. eigenvalues --    4.90752   4.95247   5.48182   6.00868   6.60129
 Alpha virt. eigenvalues --    7.40963   7.43276   7.53462  23.15349  23.54143
 Alpha virt. eigenvalues --   23.64113  23.71961  23.89586  23.94384  35.18007
 Alpha virt. eigenvalues --   47.86276  49.71278  49.79941 289.73931 289.76271
 Alpha virt. eigenvalues --  289.889051020.87478
          Condensed to atoms (all electrons):
               1          2          3          4          5          6
     1  C    6.774116  -1.479691   0.488982   0.025389   0.286124   0.064467
     2  C   -1.479691  16.706793  -4.019218   0.433259  -0.030156   0.250264
     3  C    0.488982  -4.019218  20.245955  -0.853563   0.025816   0.091711
     4  C    0.025389   0.433259  -0.853563   6.225787   0.036715  -0.019948
     5  H    0.286124  -0.030156   0.025816   0.036715   0.282929  -0.001489
     6  H    0.064467   0.250264   0.091711  -0.019948  -0.001489   0.340156
     7  H    0.019979  -0.010917   0.005214   0.295253  -0.001575   0.000013
     8  N   -0.023265  -0.238672  -1.911759  -0.004751  -0.000468  -0.033655
     9  O    0.001377   0.314900   0.027713  -0.007383  -0.000018  -0.002096
    10  O    0.156426  -0.219358  -0.248459  -0.024744  -0.000067   0.013263
    11  C    0.403094  -0.701617   0.402415  -0.041262  -0.021660   0.011425
    12  H   -0.013200   0.016220   0.002497   0.037418   0.000064  -0.000013
    13  C   -0.582391  -5.082236  -7.904431   0.211275   0.023449  -0.037376
    14  H    0.002731   0.072610   0.283549  -0.009163  -0.000032   0.000118
    15  Br   0.018147  -0.179733  -0.454595  -0.008092   0.000057  -0.001078
               7          8          9         10         11         12
     1  C    0.019979  -0.023265   0.001377   0.156426   0.403094  -0.013200
     2  C   -0.010917  -0.238672   0.314900  -0.219358  -0.701617   0.016220
     3  C    0.005214  -1.911759   0.027713  -0.248459   0.402415   0.002497
     4  C    0.295253  -0.004751  -0.007383  -0.024744  -0.041262   0.037418
     5  H   -0.001575  -0.000468  -0.000018  -0.000067  -0.021660   0.000064
     6  H    0.000013  -0.033655  -0.002096   0.013263   0.011425  -0.000013
     7  H    0.255895   0.000199  -0.000009   0.000005   0.021286  -0.001480
     8  N    0.000199   7.337518   0.199874   0.308839   0.040631  -0.000495
     9  O   -0.000009   0.199874   7.944363  -0.040670   0.101562   0.000170
    10  O    0.000005   0.308839  -0.040670   7.897434   0.018657  -0.000023
    11  C    0.021286   0.040631   0.101562   0.018657   6.837396   0.309160
    12  H   -0.001480  -0.000495   0.000170  -0.000023   0.309160   0.269367
    13  C   -0.011930   1.444260  -0.494108   0.171528  -1.213585  -0.033781
    14  H   -0.000005  -0.057739   0.014058  -0.002032  -0.092173  -0.003100
    15  Br  -0.000380   0.176951  -0.060373   0.007792   0.067686   0.006255
              13         14         15
     1  C   -0.582391   0.002731   0.018147
     2  C   -5.082236   0.072610  -0.179733
     3  C   -7.904431   0.283549  -0.454595
     4  C    0.211275  -0.009163  -0.008092
     5  H    0.023449  -0.000032   0.000057
     6  H   -0.037376   0.000118  -0.001078
     7  H   -0.011930  -0.000005  -0.000380
     8  N    1.444260  -0.057739   0.176951
     9  O   -0.494108   0.014058  -0.060373
    10  O    0.171528  -0.002032   0.007792
    11  C   -1.213585  -0.092173   0.067686
    12  H   -0.033781  -0.003100   0.006255
    13  C   19.048609   0.092037   0.590167
    14  H    0.092037   0.370085  -0.055789
    15  Br   0.590167  -0.055789  34.749097
 Mulliken charges:
               1
     1  C   -0.142285
     2  C    0.167552
     3  C   -0.181826
     4  C   -0.296192
     5  H    0.400309
     6  H    0.324238
     7  H    0.428450
     8  N   -0.237468
     9  O    0.000641
    10  O   -0.038592
    11  C   -0.143014
    12  H    0.410941
    13  C   -0.221485
    14  H    0.384845
    15  Br   0.143886
 Sum of Mulliken charges =   1.00000
 Mulliken charges with hydrogens summed into heavy atoms:
               1
     1  C    0.258024
     2  C    0.491791
     3  C   -0.181826
     4  C    0.132258
     8  N   -0.237468
     9  O    0.000641
    10  O   -0.038592
    11  C    0.267927
    13  C    0.163359
    15  Br   0.143886
 Electronic spatial extent (au):  <R**2>=           3966.4166
 Charge=              1.0000 electrons
 Dipole moment (field-independent basis, Debye):
    X=             -3.6365    Y=             -0.6002    Z=             -0.4592  Tot=              3.7143
 Quadrupole moment (field-independent basis, Debye-Ang):
   XX=            -93.9159   YY=            -51.6363   ZZ=            -62.8975
   XY=             -1.3432   XZ=             -0.8314   YZ=              1.7632
 Traceless Quadrupole moment (field-independent basis, Debye-Ang):
   XX=            -24.4327   YY=             17.8470   ZZ=              6.5857
   XY=             -1.3432   XZ=             -0.8314   YZ=              1.7632
 Octapole moment (field-independent basis, Debye-Ang**2):
  XXX=           -647.8488  YYY=             94.4965  ZZZ=             85.0802  XYY=           -151.5512
  XXY=             28.9789  XXZ=             31.5999  XZZ=           -140.9171  YZZ=             19.0663
  YYZ=             27.3549  XYZ=              4.3048
 Hexadecapole moment (field-independent basis, Debye-Ang**3):
 XXXX=          -4128.5661 YYYY=           -705.4836 ZZZZ=           -401.3561 XXXY=            189.0455
 XXXZ=            203.4098 YYYX=            196.6440 YYYZ=           -176.8690 ZZZX=            179.2992
 ZZZY=           -149.1428 XXYY=           -686.0944 XXZZ=           -558.9636 YYZZ=           -175.8555
 XXYZ=            -54.2730 YYXZ=             58.5703 ZZXY=             38.7155
 N-N= 7.824441673230D+02 E-N=-8.709773823228D+03  KE= 3.005873492720D+03
 No NMR shielding tensors so no spin-rotation constants.
 Leave Link  601 at Thu May  2 14:18:04 2024, MaxMem=   134217728 cpu:               7.4 elap:               7.4
 (Enter /software/gaussian/g16-c01/sse4/g16/l9999.exe)
 Unable to Open any file for archive entry.
 1\1\GINC-BHX0008\SP\RwB97XD\6-311+G(d)\C6H5Br1N1O2(1+)\BWEIGHT\02-May-
 2024\0\\#P wB97XD/6-311+G* NoSymm #P Field=X+223\\TitleMe\\1,1\C,0,0.5
 193,1.233,-0.0319\C,0,1.9445,1.2692,-0.0367\C,0,2.6204,0.0928,-0.025\C
 ,0,-0.196,0.0301,0.001\H,0,-0.0207,2.1742,-0.0434\H,0,2.4828,2.2089,-0
 .0361\H,0,-1.2777,0.0399,0.0117\N,0,4.0921,0.0959,0.0366\O,0,4.6393,-1
 .0217,0.1446\O,0,4.6649,1.1984,-0.0233\C,0,0.4943,-1.1671,0.021\H,0,-0
 .0325,-2.1149,0.0545\C,0,1.9629,-1.2165,-0.0211\H,0,2.4436,-1.9631,0.6
 151\Br,0,2.173,-1.9491,-1.9062\\Version=ES64L-G16RevC.01\HF=-3010.5354
 31\RMSD=4.276e-09\Dipole=-5.7599415,0.9919689,1.0685453\Quadrupole=-18
 .1650982,13.2687796,4.8963186,-0.9986627,-0.618104,1.3108747\PG=C01 [X
 (C6H5Br1N1O2)]\\@
 The archive entry for this job was punched.


 A great many people think they are thinking when they
 are merely rearranging their prejudices.
                               -- William James
 Job cpu time:       0 days  0 hours 20 minutes 28.3 seconds.
 Elapsed time:       0 days  0 hours 20 minutes 29.6 seconds.
 File lengths (MBytes):  RWF=     40 Int=      0 D2E=      0 Chk=     32 Scr=      1
 Normal termination of Gaussian 16 at Thu May  2 14:18:04 2024.
