
Running Job 1 of 1 QCHEM.in
qchem QCHEM.in_21920.0 /local_scratch/16284720/QCLOCALSCR/save/ 0
/gpfs/fs2/scratch/phuo_lab/Program/Qchem/exe/qcprog.exe_s QCHEM.in_21920.0 /local_scratch/16284720/QCLOCALSCR/save/
                  Welcome to Q-Chem
     A Quantum Leap Into The Future Of Chemistry


 Q-Chem 6.0, Q-Chem, Inc., Pleasanton, CA (2022)

 License issued to: SRG Frank Huo, University of Rochester

 E. Epifanovsky,  A. T. B. Gilbert,  Xintian Feng,  Joonho Lee,  Yuezhi Mao,  
 N. Mardirossian,  P. Pokhilko,  A. White,  M. Wormit,  M. P. Coons,  
 A. L. Dempwolff,  Zhengting Gan,  D. Hait,  P. R. Horn,  L. D. Jacobson,  
 I. Kaliman,  J. Kussmann,  A. W. Lange,  Ka Un Lao,  D. S. Levine,  Jie Liu,  
 S. C. McKenzie,  A. F. Morrison,  K. Nanda,  F. Plasser,  D. R. Rehn,  
 M. L. Vidal,  Zhi-Qiang You,  Ying Zhu,  B. Alam,  B. Albrecht,  
 A. Aldossary,  E. Alguire,  J. H. Andersen,  V. Athavale,  D. Barton,  
 K. Begam,  A. Behn,  N. Bellonzi,  Y. A. Bernard,  E. J. Berquist,  
 H. Burton,  A. Carreras,  K. Carter-Fenk,  Romit Chakraborty,  
 Chandrima Chakravarty,  Junhan Chen,  A. D. Chien,  K. D. Closser,  
 V. Cofer-Shabica,  L. Cunha,  S. Dasgupta,  Jia Deng,  M. de Wergifosse,  
 M. Diedenhofen,  Hainam Do,  S. Ehlert,  Po-Tung Fang,  S. Fatehi,  
 Qingguo Feng,  T. Friedhoff,  B. Ganoe,  J. Gayvert,  Qinghui Ge,  
 G. Gidofalvi,  M. Goldey,  J. Gomes,  C. Gonzalez-Espinoza,  S. Gulania,  
 A. Gunina,  J. A. Gyamfi,  M. W. D. Hanson-Heine,  P. H. P. Harbach,  
 A. W. Hauser,  M. F. Herbst,  M. Hernandez Vera,  M. Hodecker,  
 Z. C. Holden,  S. Houck,  Xunkun Huang,  Kerwin Hui,  B. C. Huynh,  
 K. Ikeda,  M. Ivanov,  Hyunjun Ji,  Zuxin Jin,  Hanjie Jiang,  B. Kaduk,  
 S. Kaehler,  R. Kang,  K. Khistyaev,  Jaehoon Kim,  Yongbin Kim,  
 P. Klunzinger,  Z. Koczor-Benda,  Joong Hoon Koh,  D. Kosenkov,  
 Saikiran Kotaru,  L. Koulias,  T. Kowalczyk,  C. M. Krauter,  K. Kue,  
 A. Kunitsa,  T. Kus,  A. Landau,  K. V. Lawler,  D. Lefrancois,  S. Lehtola,  
 Rain Li,  Shaozhi Li,  Yi-Pei Li,  Jiashu Liang,  M. Liebenthal,  
 Hung-Hsuan Lin,  You-Sheng Lin,  Fenglai Liu,  Kuan-Yu Liu,  
 M. Loipersberger,  A. Luenser,  C. Malbon,  A. Manjanath,  P. Manohar,  
 E. Mansoor,  S. F. Manzer,  Shan-Ping Mao,  A. V. Marenich,  T. Markovich,  
 S. Mason,  F. Matz,  S. A. Maurer,  P. F. McLaughlin,  M. F. S. J. Menger,  
 J.-M. Mewes,  S. A. Mewes,  P. Morgante,  Mohammad Mostafanejad,  
 J. W. Mullinax,  K. J. Oosterbaan,  G. Paran,  V. Parravicini,  
 Alexander C. Paul,  Suranjan K. Paul,  F. Pavosevic,  Zheng Pei,  S. Prager,  
 E. I. Proynov,  E. Ramos,  B. Rana,  A. E. Rask,  A. Rettig,  R. M. Richard,  
 F. Rob,  E. Rossomme,  T. Scheele,  M. Scheurer,  M. Schneider,  
 P. E. Schneider,  N. Sergueev,  S. M. Sharada,  Hengyuan Shen,  
 W. Skomorowski,  D. W. Small,  C. J. Stein,  Yingli Su,  Yu-Chuan Su,  
 E. J. Sundstrom,  Zhen Tao,  J. Thirman,  Hung-Yi Tsai,  T. Tsuchimochi,  
 N. M. Tubman,  C. Utku,  S. P. Veccham,  O. Vydrov,  J. Wenzel,  
 Jonathan Wong,  J. Witte,  A. Yamada,  Chou-Hsun Yang,  Kun Yao,  
 S. Yeganeh,  S. R. Yost,  A. Zech,  F. Zeller,  Igor Ying Zhang,  
 Xing Zhang,  Yu Zhang,  D. Zuev,  A. Aspuru-Guzik,  A. T. Bell,  
 N. A. Besley,  K. B. Bravaya,  B. R. Brooks,  D. Casanova,  Jeng-Da Chai,  
 Hsing-Ta Chen,  S. Coriani,  C. J. Cramer,  A. E. DePrince, III,  
 R. A. DiStasio Jr.,  A. Dreuw,  B. D. Dunietz,  T. R. Furlani,  
 W. A. Goddard III,  S. Grimme,  S. Hammes-Schiffer,  T. Head-Gordon,  
 W. J. Hehre,  Chao-Ping Hsu,  T.-C. Jagau,  Yousung Jung,  A. Klamt,  
 Jing Kong,  D. S. Lambrecht,  Xiangyuan Li,  WanZhen Liang,  N. J. Mayhall,  
 C. W. McCurdy,  J. B. Neaton,  T. Neudecker,  C. Ochsenfeld,  
 J. A. Parkhill,  R. Peverati,  V. A. Rassolov,  Haisheng Ren,  Yihan Shao,  
 L. V. Slipchenko,  R. P. Steele,  J. E. Subotnik,  A. J. W. Thom,  
 A. Tkatchenko,  D. G. Truhlar,  T. Van Voorhis,  Fan Wang,  
 T. A. Wesolowski,  K. B. Whaley,  H. L. Woodcock III,  P. M. Zimmerman,  
 S. Faraji,  P. M. W. Gill,  M. Head-Gordon,  J. M. Herbert,  A. I. Krylov

 Contributors to earlier versions of Q-Chem not listed above: 
 R. D. Adamson,  B. Austin,  R. Baer,  J. Baker,  G. J. O. Beran,  
 K. Brandhorst,  S. T. Brown,  E. F. C. Byrd,  Arup K. Chakraborty,  
 G. K. L. Chan,  Chun-Min Chang,  Yunqing Chen,  C.-L. Cheng,  
 Siu Hung Chien,  D. M. Chipman,  D. L. Crittenden,  H. Dachsel,  
 R. J. Doerksen,  A. D. Dutoi,  R. G. Edgar,  J. Fosso-Tande,  
 L. Fusti-Molnar,  D. Ghosh,  A. Ghysels,  A. Golubeva-Zadorozhnaya,  
 J. Gonthier,  M. S. Gordon,  S. R. Gwaltney,  G. Hawkins,  J. E. Herr,  
 A. Heyden,  S. Hirata,  E. G. Hohenstein,  G. Kedziora,  F. J. Keil,  
 C. Kelley,  Jihan Kim,  R. A. King,  R. Z. Khaliullin,  P. P. Korambath,  
 W. Kurlancheek,  A. Laurent,  A. M. Lee,  M. S. Lee,  S. V. Levchenko,  
 Ching Yeh Lin,  D. Liotard,  E. Livshits,  R. C. Lochan,  I. Lotan,  
 L. A. Martinez-Martinez,  P. E. Maslen,  N. Nair,  D. P. O'Neill,  
 D. Neuhauser,  E. Neuscamman,  C. M. Oana,  R. Olivares-Amaya,  R. Olson,  
 T. M. Perrine,  B. Peters,  P. A. Pieniazek,  A. Prociuk,  Y. M. Rhee,  
 J. Ritchie,  M. A. Rohrdanz,  E. Rosta,  N. J. Russ,  H. F. Schaefer III,  
 M. W. Schmidt,  N. E. Schultz,  S. Sharma,  N. Shenvi,  C. D. Sherrill,  
 A. C. Simmonett,  A. Sodt,  T. Stein,  D. Stuck,  K. S. Thanthiriwatte,  
 V. Vanovschi,  L. Vogt,  Tao Wang,  A. Warshel,  M. A. Watson,  
 C. F. Williams,  Q. Wu,  X. Xu,  Jun Yang,  W. Zhang,  Yan Zhao

   Please cite Q-Chem as follows:
  "Software for the frontiers of quantum chemistry:
   An overview of developments in the Q-Chem 5 package"
   J. Chem. Phys. 155, 084801 (2021)
   https://doi.org/10.1063/5.0055522 (open access)

 Q-Chem 6.0.2 for Intel X86 EM64T Linux

 Parts of Q-Chem use Armadillo 9.900.5 (Nocturnal Misbehaviour).
 http://arma.sourceforge.net/

 Q-Chem begins on Wed Apr 26 09:17:44 2023  

 Host: 
0

     Scratch files written to /local_scratch/16284720/QCLOCALSCR/save//
 Dec722 |scratch|qcdevops|jenkins|workspace|build_RNUM 9024   
 Processing $rem in /gpfs/fs2/scratch/phuo_lab/Program/Qchem/config/preferences:
 Processing $rem in /home/bweight/.qchemrc:

 Checking the input file for inconsistencies... 	...done.

--------------------------------------------------------------
User input:
--------------------------------------------------------------
$molecule
1 1
C                  0.02949981    1.33972592    0.06817723
C                  1.43483278    1.28667967    0.00635313
C                  2.11179024    0.05106117   -0.00544138
C                  1.44506636   -1.13720058    0.03116583
C                 -0.68793171    0.16822220    0.10995314
H                 -0.47126997    2.29839666    0.07811355
H                  2.02732783    2.19651728   -0.03220624
H                  1.98966526   -2.07643217    0.02318494
H                 -1.77163480    0.18040547    0.15819632
N                  3.58635895    0.05097292   -0.06745286
O                  4.14711759   -1.05966097   -0.08807849
O                  4.14497859    1.16390951   -0.09010823
C                 -0.02361177   -1.14582791    0.08353483
H                 -0.43674996   -1.87247364    0.78889576
Br                -0.53591638   -1.86972195   -1.74078671
$end

$rem
!SCF_GUESS         read
!SKIP_CIS_RPA      TRUE
METHOD             wB97XD
RPA                TRUE
BASIS              6-311+G*
CIS_N_ROOTS        100
CIS_SINGLETS       TRUE
CIS_TRIPLETS       FALSE
MAKE_CUBE_FILES    TRUE
PLOTS              TRUE
STS_MOM            TRUE
SYM_IGNORE         TRUE
SYMMETRY           FALSE
NTO_PAIRS          1
! NBO                2
$end

$plots
grid_points                    75 75 75
total_density                  0-100
transition_density             1-100
natural_transition_orbital     1-100
$end

! natural_bond_orbital           1-5 ! How many here ? Is it physical to mix these ?
! nbo_state                      0-10






























--------------------------------------------------------------
 ----------------------------------------------------------------
             Standard Nuclear Orientation (Angstroms)
    I     Atom           X                Y                Z
 ----------------------------------------------------------------
    1      C       0.0294998100     1.3397259200     0.0681772300
    2      C       1.4348327800     1.2866796700     0.0063531300
    3      C       2.1117902400     0.0510611700    -0.0054413800
    4      C       1.4450663600    -1.1372005800     0.0311658300
    5      C      -0.6879317100     0.1682222000     0.1099531400
    6      H      -0.4712699700     2.2983966600     0.0781135500
    7      H       2.0273278300     2.1965172800    -0.0322062400
    8      H       1.9896652600    -2.0764321700     0.0231849400
    9      H      -1.7716348000     0.1804054700     0.1581963200
   10      N       3.5863589500     0.0509729200    -0.0674528600
   11      O       4.1471175900    -1.0596609700    -0.0880784900
   12      O       4.1449785900     1.1639095100    -0.0901082300
   13      C      -0.0236117700    -1.1458279100     0.0835348300
   14      H      -0.4367499600    -1.8724736400     0.7888957600
   15      Br     -0.5359163800    -1.8697219500    -1.7407867100
 ----------------------------------------------------------------
 Nuclear Repulsion Energy =         739.20410593 hartrees
 There are       49 alpha and       49 beta electrons
 Requested basis set is 6-311+G(d)
 There are 88 shells and 261 basis functions

 Total QAlloc Memory Limit   2000 MB
 Mega-Array Size       188 MB
 MEM_STATIC part       192 MB


                       Distance Matrix (Angstroms)
             C (  1)   C (  2)   C (  3)   C (  4)   C (  5)   H (  6)
   C (  2)  1.407692
   C (  3)  2.449900  1.408958
   C (  4)  2.853132  2.424029  1.363021
   C (  5)  1.374363  2.401626  2.804547  2.502003
   H (  6)  1.081628  2.159155  3.424865  3.934193  2.141401
   H (  7)  2.176117  1.086435  2.147285  3.384778  3.392171  2.503106
   H (  8)  3.938833  3.408613  2.131188  1.085729  3.495072  5.019795
   H (  9)  2.143878  3.395340  3.889023  3.478418  1.084845  2.486614
   N ( 10)  3.785568  2.482234  1.475872  2.450840  4.279577  4.640739
   O ( 11)  4.768254  3.587579  2.320149  2.705792  4.992456  5.712589
   O ( 12)  4.122273  2.714640  2.319365  3.549555  4.938465  4.756586
   C ( 13)  2.486169  2.837272  2.449572  1.469637  1.472666  3.473199
   H ( 14)  3.324914  3.754390  3.290291  2.157780  2.165293  4.231142
   Br( 15)  3.727278  4.110866  3.702861  2.756936  2.757093  4.548163
             H (  7)   H (  8)   H (  9)   N ( 10)   O ( 11)   O ( 12)
   H (  8)  4.273474
   H (  9)  4.305006  4.388499
   N ( 10)  2.652392  2.661484  5.364305
   O ( 11)  3.885785  2.387636  6.052276  1.244341
   O ( 12)  2.356709  3.893331  6.002937  1.245471  2.223572
   C ( 13)  3.923139  2.218772  2.195462  3.806182  4.175148  4.768877
   H ( 14)  4.827274  2.552529  2.528638  4.540747  4.737256  5.566373
   Br( 15)  5.101350  3.087537  3.055513  4.845851  5.031744  5.817081
             C ( 13)   H ( 14)
   H ( 14)  1.093724
   Br( 15)  2.028455  2.531627
 
 A cutoff of  1.0D-12 yielded   3337 shell pairs
 There are     30656 function pairs (     33446 Cartesian)
 Smallest overlap matrix eigenvalue = 2.35E-06

 Scale SEOQF with 1.000000e-01/1.000000e-01/1.000000e-01

 Standard Electronic Orientation quadrupole field applied
 Nucleus-field energy     =     0.0000000183 hartrees
 Guess from superposition of atomic densities
 Warning:  Energy on first SCF cycle will be non-variational
 SAD guess density has 99.000000 electrons

 -----------------------------------------------------------------------
  General SCF calculation program by
  Eric Jon Sundstrom, Paul Horn, Yuezhi Mao, Dmitri Zuev, Alec White,
  David Stuck, Shaama M.S., Shane Yost, Joonho Lee, David Small,
  Daniel Levine, Susi Lehtola, Hugh Burton, Evgeny Epifanovsky,
  Bang C. Huynh
 -----------------------------------------------------------------------
 Exchange:     0.2220 Hartree-Fock + 1.0000 wB97X-D + LR-HF
 Correlation:  1.0000 wB97X-D
 Using SG-2 standard quadrature grid
 Dispersion:   Grimme D
 using 12 threads for integral computing
 -------------------------------------------------------
 OpenMP Integral computing Module                
 Release: version 1.0, May 2013, Q-Chem Inc. Pittsburgh 
 -------------------------------------------------------
 A restricted SCF calculation will be
 performed using DIIS
 SCF converges when DIIS error is below 1.0e-08
 ---------------------------------------
  Cycle       Energy         DIIS error
 ---------------------------------------
    1   -3013.4387130291      3.98e-02  
    2   -3010.2693207400      6.13e-03  
    3   -3010.0341725245      9.45e-03  
    4   -3010.5255154656      5.45e-04  
    5   -3010.5268171554      3.58e-04  
    6   -3010.5276695384      8.06e-05  
    7   -3010.5277294565      3.80e-05  
    8   -3010.5277416526      1.68e-05  
    9   -3010.5277435369      1.13e-05  
   10   -3010.5277445252      1.57e-06  
   11   -3010.5277445797      5.89e-07  
   12   -3010.5277445865      2.10e-07  
   13   -3010.5277445876      7.86e-08  
   14   -3010.5277445879      3.02e-08  
   15   -3010.5277445879      1.35e-08  
   16   -3010.5277445879      6.17e-09  Convergence criterion met
 ---------------------------------------
 SCF time:   CPU 264.44s  wall 23.00s 
 SCF   energy in the final basis set =    -3010.5277445879
 Total energy in the final basis set =    -3010.5277445879
 
 MAX_CIS_SUBSPACE fits in available memory
 Direct TDDFT/TDA calculation will be performed
 Exchange:     0.2220 Hartree-Fock + 1.0000 wB97X-D + LR-HF
 Correlation:  1.0000 wB97X-D
 Using SG-2 standard quadrature grid
 Dispersion:   Grimme D
 Singlet excitation energies requested
 CIS energy converged when residual is below 10e- 6
 ---------------------------------------------------
 Iter    Rts Conv    Rts Left    Ttl Dev     Max Dev
 ---------------------------------------------------
   1         0         100      0.045829    0.001680
   2         0         100      0.012959    0.000243
   3         0         100      0.008721    0.000434
   4         6          94      0.003687    0.000213
   5        31          69      0.001268    0.000089
   6        55          45      0.000373    0.000031
   7        80          20      0.000102    0.000008
   8        92           8      0.000038    0.000002
   9       100           0      0.000026    0.000001    Roots Converged
 ---------------------------------------------------
 
 ---------------------------------------------------
         TDDFT/TDA Excitation Energies              
 ---------------------------------------------------

 Excited state   1: excitation energy (eV) =    2.6228
 Total energy for state  1:                 -3010.43135743 au
    Multiplicity: Singlet
    Trans. Mom.:  0.2520 X  -0.0829 Y  -0.0052 Z
    Strength   :     0.0045233286
    D(   49) --> V(    1) amplitude =  0.9514

 Excited state   2: excitation energy (eV) =    2.8874
 Total energy for state  2:                 -3010.42163293 au
    Multiplicity: Singlet
    Trans. Mom.:  0.1492 X   0.2104 Y   0.1930 Z
    Strength   :     0.0073412109
    D(   45) --> V(    1) amplitude =  0.2500
    D(   46) --> V(    1) amplitude =  0.8946
    D(   47) --> V(    1) amplitude =  0.2507

 Excited state   3: excitation energy (eV) =    3.4050
 Total energy for state  3:                 -3010.40261300 au
    Multiplicity: Singlet
    Trans. Mom.: -0.0291 X   0.0185 Y   0.0046 Z
    Strength   :     0.0001010584
    D(   48) --> V(    1) amplitude =  0.9408

 Excited state   4: excitation energy (eV) =    3.6313
 Total energy for state  4:                 -3010.39429607 au
    Multiplicity: Singlet
    Trans. Mom.:  0.0831 X  -0.0098 Y   0.0257 Z
    Strength   :     0.0006817782
    D(   45) --> V(    1) amplitude = -0.6061
    D(   48) --> V(    2) amplitude =  0.6806
    D(   48) --> V(    4) amplitude = -0.2344

 Excited state   5: excitation energy (eV) =    3.6707
 Total energy for state  5:                 -3010.39284855 au
    Multiplicity: Singlet
    Trans. Mom.:  0.3610 X   0.0102 Y   0.0216 Z
    Strength   :     0.0117742227
    D(   46) --> V(    1) amplitude = -0.2481
    D(   47) --> V(    1) amplitude =  0.9354

 Excited state   6: excitation energy (eV) =    3.6861
 Total energy for state  6:                 -3010.39228319 au
    Multiplicity: Singlet
    Trans. Mom.: -0.0107 X   0.0085 Y  -0.0342 Z
    Strength   :     0.0001227097
    D(   45) --> V(    1) amplitude =  0.7255
    D(   46) --> V(    1) amplitude = -0.2453
    D(   48) --> V(    2) amplitude =  0.5380
    D(   48) --> V(    4) amplitude = -0.2124

 Excited state   7: excitation energy (eV) =    4.1090
 Total energy for state  7:                 -3010.37674105 au
    Multiplicity: Singlet
    Trans. Mom.: -0.0143 X  -0.0094 Y  -0.0485 Z
    Strength   :     0.0002657478
    D(   45) --> V(    2) amplitude =  0.8559
    D(   45) --> V(    4) amplitude = -0.3014
    D(   46) --> V(    2) amplitude = -0.3038

 Excited state   8: excitation energy (eV) =    4.3252
 Total energy for state  8:                 -3010.36879468 au
    Multiplicity: Singlet
    Trans. Mom.:  0.8675 X  -0.4126 Y  -0.0622 Z
    Strength   :     0.0982018004
    D(   44) --> V(    1) amplitude =  0.9480

 Excited state   9: excitation energy (eV) =    5.2924
 Total energy for state  9:                 -3010.33325393 au
    Multiplicity: Singlet
    Trans. Mom.:  0.0983 X   0.3345 Y   0.3724 Z
    Strength   :     0.0337400153
    D(   42) --> V(    1) amplitude = -0.4567
    D(   43) --> V(    1) amplitude =  0.6694
    D(   49) --> V(    2) amplitude =  0.5072

 Excited state  10: excitation energy (eV) =    5.4186
 Total energy for state 10:                 -3010.32861420 au
    Multiplicity: Singlet
    Trans. Mom.: -0.2958 X   0.0553 Y  -0.1096 Z
    Strength   :     0.0136217732
    D(   42) --> V(    1) amplitude =  0.8206
    D(   49) --> V(    2) amplitude =  0.4353

 Excited state  11: excitation energy (eV) =    5.8307
 Total energy for state 11:                 -3010.31346883 au
    Multiplicity: Singlet
    Trans. Mom.: -0.2114 X  -0.1795 Y  -0.2950 Z
    Strength   :     0.0234213004
    D(   40) --> V(    1) amplitude =  0.2128
    D(   41) --> V(    1) amplitude =  0.9302

 Excited state  12: excitation energy (eV) =    5.9030
 Total energy for state 12:                 -3010.31081190 au
    Multiplicity: Singlet
    Trans. Mom.:  0.3968 X   0.0652 Y   0.0549 Z
    Strength   :     0.0238191459
    D(   45) --> V(    2) amplitude =  0.3137
    D(   46) --> V(    2) amplitude =  0.8055
    D(   46) --> V(    4) amplitude =  0.2985
    D(   47) --> V(    2) amplitude =  0.2432

 Excited state  13: excitation energy (eV) =    6.0112
 Total energy for state 13:                 -3010.30683572 au
    Multiplicity: Singlet
    Trans. Mom.: -0.8877 X  -0.5334 Y  -0.3182 Z
    Strength   :     0.1728610891
    D(   43) --> V(    1) amplitude = -0.4368
    D(   47) --> V(    2) amplitude =  0.3085
    D(   49) --> V(    2) amplitude =  0.4725
    D(   49) --> V(    3) amplitude =  0.5023

 Excited state  14: excitation energy (eV) =    6.1866
 Total energy for state 14:                 -3010.30039046 au
    Multiplicity: Singlet
    Trans. Mom.:  0.4589 X  -0.0149 Y   0.1436 Z
    Strength   :     0.0350792513
    D(   46) --> V(    3) amplitude =  0.2568
    D(   47) --> V(    2) amplitude = -0.4893
    D(   49) --> V(    2) amplitude = -0.2396
    D(   49) --> V(    3) amplitude =  0.6258
    D(   49) --> V(    4) amplitude =  0.2692

 Excited state  15: excitation energy (eV) =    6.2861
 Total energy for state 15:                 -3010.29673547 au
    Multiplicity: Singlet
    Trans. Mom.: -0.0739 X   0.5026 Y   0.0563 Z
    Strength   :     0.0402399963
    D(   46) --> V(    2) amplitude = -0.3161
    D(   46) --> V(    3) amplitude =  0.6659
    D(   47) --> V(    2) amplitude =  0.4903

 Excited state  16: excitation energy (eV) =    6.4641
 Total energy for state 16:                 -3010.29019270 au
    Multiplicity: Singlet
    Trans. Mom.:  0.9745 X   1.2204 Y   0.4118 Z
    Strength   :     0.4131264323
    D(   43) --> V(    1) amplitude =  0.3782
    D(   46) --> V(    3) amplitude = -0.3953
    D(   47) --> V(    2) amplitude =  0.4497
    D(   47) --> V(    3) amplitude = -0.2251
    D(   49) --> V(    2) amplitude = -0.3428
    D(   49) --> V(    3) amplitude =  0.2625

 Excited state  17: excitation energy (eV) =    6.6336
 Total energy for state 17:                 -3010.28396496 au
    Multiplicity: Singlet
    Trans. Mom.: -0.9348 X  -0.3678 Y  -0.1267 Z
    Strength   :     0.1666130507
    D(   40) --> V(    1) amplitude = -0.3477
    D(   44) --> V(    2) amplitude =  0.8210
    D(   49) --> V(    4) amplitude = -0.3116

 Excited state  18: excitation energy (eV) =    7.0541
 Total energy for state 18:                 -3010.26850981 au
    Multiplicity: Singlet
    Trans. Mom.: -0.0137 X   0.0253 Y  -0.0037 Z
    Strength   :     0.0001457050
    D(   48) --> V(    2) amplitude =  0.3359
    D(   48) --> V(    3) amplitude = -0.5226
    D(   48) --> V(    4) amplitude =  0.6919

 Excited state  19: excitation energy (eV) =    7.1532
 Total energy for state 19:                 -3010.26486877 au
    Multiplicity: Singlet
    Trans. Mom.: -0.2746 X   0.2082 Y   0.3212 Z
    Strength   :     0.0388947163
    D(   39) --> V(    1) amplitude =  0.4873
    D(   40) --> V(    1) amplitude =  0.6990

 Excited state  20: excitation energy (eV) =    7.2989
 Total energy for state 20:                 -3010.25951339 au
    Multiplicity: Singlet
    Trans. Mom.: -0.1522 X   0.0696 Y   0.0982 Z
    Strength   :     0.0067317265
    D(   43) --> V(    2) amplitude = -0.2279
    D(   45) --> V(    2) amplitude =  0.3231
    D(   45) --> V(    3) amplitude = -0.4840
    D(   45) --> V(    4) amplitude =  0.6362
    D(   46) --> V(    4) amplitude = -0.2272

 Excited state  21: excitation energy (eV) =    7.3651
 Total energy for state 21:                 -3010.25708239 au
    Multiplicity: Singlet
    Trans. Mom.:  0.2600 X   0.0062 Y   0.1284 Z
    Strength   :     0.0151835481
    D(   43) --> V(    2) amplitude =  0.7657
    D(   44) --> V(    3) amplitude =  0.4687

 Excited state  22: excitation energy (eV) =    7.7003
 Total energy for state 22:                 -3010.24476200 au
    Multiplicity: Singlet
    Trans. Mom.: -0.0210 X  -0.5312 Y  -0.4331 Z
    Strength   :     0.0887111829
    D(   37) --> V(    1) amplitude =  0.2441
    D(   39) --> V(    1) amplitude =  0.5466
    D(   40) --> V(    1) amplitude = -0.3089
    D(   42) --> V(    2) amplitude =  0.5251
    D(   44) --> V(    3) amplitude = -0.2238

 Excited state  23: excitation energy (eV) =    7.7778
 Total energy for state 23:                 -3010.24191560 au
    Multiplicity: Singlet
    Trans. Mom.:  0.0152 X   0.1149 Y   0.0969 Z
    Strength   :     0.0043504700
    D(   44) --> V(    3) amplitude = -0.2520
    D(   47) --> V(    3) amplitude =  0.5632
    D(   47) --> V(    4) amplitude = -0.3173
    D(   48) --> V(    3) amplitude =  0.4489
    D(   48) --> V(    4) amplitude =  0.3291

 Excited state  24: excitation energy (eV) =    7.8045
 Total energy for state 24:                 -3010.24093492 au
    Multiplicity: Singlet
    Trans. Mom.: -0.4145 X   0.2755 Y  -0.0420 Z
    Strength   :     0.0476918457
    D(   43) --> V(    2) amplitude = -0.2183
    D(   46) --> V(    3) amplitude = -0.2656
    D(   47) --> V(    3) amplitude =  0.5302
    D(   48) --> V(    3) amplitude = -0.4979
    D(   48) --> V(    4) amplitude = -0.3507
    D(   49) --> V(    4) amplitude =  0.2158

 Excited state  25: excitation energy (eV) =    7.8361
 Total energy for state 25:                 -3010.23977190 au
    Multiplicity: Singlet
    Trans. Mom.: -0.3258 X   0.4913 Y  -0.0158 Z
    Strength   :     0.0667634906
    D(   42) --> V(    2) amplitude =  0.2501
    D(   43) --> V(    2) amplitude = -0.3183
    D(   44) --> V(    3) amplitude =  0.5477
    D(   48) --> V(    3) amplitude =  0.3688

 Excited state  26: excitation energy (eV) =    7.9279
 Total energy for state 26:                 -3010.23639892 au
    Multiplicity: Singlet
    Trans. Mom.: -0.5282 X  -1.1136 Y  -0.2920 Z
    Strength   :     0.3115974189
    D(   42) --> V(    2) amplitude = -0.2819
    D(   44) --> V(    2) amplitude =  0.2165
    D(   49) --> V(    3) amplitude = -0.3021
    D(   49) --> V(    4) amplitude =  0.6388

 Excited state  27: excitation energy (eV) =    8.0356
 Total energy for state 27:                 -3010.23244263 au
    Multiplicity: Singlet
    Trans. Mom.: -0.1428 X  -0.5263 Y  -0.0332 Z
    Strength   :     0.0587657283
    D(   35) --> V(    1) amplitude =  0.3063
    D(   38) --> V(    1) amplitude =  0.3956
    D(   42) --> V(    2) amplitude =  0.2291
    D(   45) --> V(    3) amplitude =  0.3592
    D(   46) --> V(    4) amplitude = -0.2429
    D(   47) --> V(    3) amplitude = -0.2590
    D(   47) --> V(    4) amplitude = -0.2695
    D(   49) --> V(    4) amplitude =  0.2343

 Excited state  28: excitation energy (eV) =    8.1415
 Total energy for state 28:                 -3010.22854941 au
    Multiplicity: Singlet
    Trans. Mom.: -0.2631 X  -0.2932 Y  -0.1631 Z
    Strength   :     0.0362671854
    D(   45) --> V(    3) amplitude =  0.5197
    D(   45) --> V(    4) amplitude =  0.5466
    D(   46) --> V(    3) amplitude = -0.3139
    D(   46) --> V(    4) amplitude =  0.3678

 Excited state  29: excitation energy (eV) =    8.1528
 Total energy for state 29:                 -3010.22813367 au
    Multiplicity: Singlet
    Trans. Mom.:  0.2866 X  -0.2063 Y   0.0967 Z
    Strength   :     0.0267722561
    D(   39) --> V(    1) amplitude = -0.2853
    D(   42) --> V(    2) amplitude =  0.3874
    D(   45) --> V(    3) amplitude = -0.3994
    D(   46) --> V(    4) amplitude =  0.5925

 Excited state  30: excitation energy (eV) =    8.2087
 Total energy for state 30:                 -3010.22607870 au
    Multiplicity: Singlet
    Trans. Mom.:  0.0825 X  -0.5011 Y  -0.1121 Z
    Strength   :     0.0543954273
    D(   34) --> V(    1) amplitude = -0.2613
    D(   35) --> V(    1) amplitude =  0.3229
    D(   37) --> V(    1) amplitude = -0.2569
    D(   38) --> V(    1) amplitude =  0.3931
    D(   39) --> V(    1) amplitude =  0.3538
    D(   41) --> V(    2) amplitude =  0.2569
    D(   42) --> V(    2) amplitude = -0.2566
    D(   46) --> V(    4) amplitude =  0.2246
    D(   47) --> V(    4) amplitude =  0.3426

 Excited state  31: excitation energy (eV) =    8.2652
 Total energy for state 31:                 -3010.22400492 au
    Multiplicity: Singlet
    Trans. Mom.: -0.0757 X  -0.9564 Y   0.0029 Z
    Strength   :     0.1863909513
    D(   39) --> V(    1) amplitude = -0.2424
    D(   42) --> V(    2) amplitude =  0.2455
    D(   47) --> V(    3) amplitude =  0.2682
    D(   47) --> V(    4) amplitude =  0.6539

 Excited state  32: excitation energy (eV) =    8.4900
 Total energy for state 32:                 -3010.21574428 au
    Multiplicity: Singlet
    Trans. Mom.:  0.1597 X  -0.0904 Y   0.1839 Z
    Strength   :     0.0140427456
    D(   37) --> V(    1) amplitude =  0.6212
    D(   41) --> V(    2) amplitude =  0.5512

 Excited state  33: excitation energy (eV) =    8.6402
 Total energy for state 33:                 -3010.21022379 au
    Multiplicity: Singlet
    Trans. Mom.: -0.2722 X  -0.1759 Y  -0.1074 Z
    Strength   :     0.0246694476
    D(   35) --> V(    1) amplitude = -0.2826
    D(   37) --> V(    1) amplitude = -0.5099
    D(   38) --> V(    1) amplitude = -0.3509
    D(   41) --> V(    2) amplitude =  0.5676
    D(   44) --> V(    4) amplitude =  0.2407

 Excited state  34: excitation energy (eV) =    8.7871
 Total energy for state 34:                 -3010.20482488 au
    Multiplicity: Singlet
    Trans. Mom.:  0.6483 X  -0.1034 Y   0.0313 Z
    Strength   :     0.0929981024
    D(   49) --> V(    5) amplitude =  0.8592

 Excited state  35: excitation energy (eV) =    8.8804
 Total energy for state 35:                 -3010.20139585 au
    Multiplicity: Singlet
    Trans. Mom.: -0.2883 X  -0.4897 Y  -0.1671 Z
    Strength   :     0.0763344347
    D(   37) --> V(    1) amplitude =  0.2362
    D(   43) --> V(    3) amplitude = -0.2515
    D(   44) --> V(    3) amplitude = -0.2572
    D(   44) --> V(    4) amplitude =  0.7634
    D(   49) --> V(    5) amplitude =  0.2616

 Excited state  36: excitation energy (eV) =    9.0285
 Total energy for state 36:                 -3010.19595193 au
    Multiplicity: Singlet
    Trans. Mom.: -0.1667 X  -0.4092 Y   0.0044 Z
    Strength   :     0.0431882906
    D(   46) --> V(    5) amplitude =  0.7529
    D(   46) --> V(    6) amplitude = -0.2668
    D(   47) --> V(    5) amplitude =  0.2226
    D(   48) --> V(    5) amplitude = -0.2645

 Excited state  37: excitation energy (eV) =    9.1153
 Total energy for state 37:                 -3010.19276230 au
    Multiplicity: Singlet
    Trans. Mom.: -0.3208 X   0.2923 Y   0.2464 Z
    Strength   :     0.0556274759
    D(   43) --> V(    3) amplitude =  0.3970
    D(   46) --> V(    5) amplitude =  0.2788
    D(   48) --> V(    5) amplitude =  0.5586
    D(   48) --> V(    7) amplitude =  0.3364
    D(   48) --> V(   11) amplitude =  0.3072

 Excited state  38: excitation energy (eV) =    9.1649
 Total energy for state 38:                 -3010.19094105 au
    Multiplicity: Singlet
    Trans. Mom.: -0.3244 X   0.0625 Y   0.3479 Z
    Strength   :     0.0516916546
    D(   40) --> V(    2) amplitude = -0.2518
    D(   43) --> V(    3) amplitude =  0.6074
    D(   48) --> V(    5) amplitude = -0.3311

 Excited state  39: excitation energy (eV) =    9.2935
 Total energy for state 39:                 -3010.18621425 au
    Multiplicity: Singlet
    Trans. Mom.:  0.2220 X   0.1453 Y  -0.1236 Z
    Strength   :     0.0195051004
    D(   34) --> V(    1) amplitude = -0.2683
    D(   42) --> V(    3) amplitude = -0.3183
    D(   43) --> V(    3) amplitude = -0.2382
    D(   47) --> V(    5) amplitude =  0.4908
    D(   47) --> V(    7) amplitude =  0.3068
    D(   47) --> V(   11) amplitude =  0.2835

 Excited state  40: excitation energy (eV) =    9.3276
 Total energy for state 40:                 -3010.18496096 au
    Multiplicity: Singlet
    Trans. Mom.: -0.2239 X  -0.0311 Y   0.0804 Z
    Strength   :     0.0131531140
    D(   34) --> V(    1) amplitude =  0.3486
    D(   42) --> V(    3) amplitude =  0.3747
    D(   47) --> V(    5) amplitude =  0.4560
    D(   47) --> V(    7) amplitude =  0.2789
    D(   47) --> V(   11) amplitude =  0.2341

 Excited state  41: excitation energy (eV) =    9.3463
 Total energy for state 41:                 -3010.18427328 au
    Multiplicity: Singlet
    Trans. Mom.:  0.2733 X  -0.1010 Y  -0.2038 Z
    Strength   :     0.0289520727
    D(   33) --> V(    1) amplitude = -0.2353
    D(   34) --> V(    1) amplitude =  0.2594
    D(   35) --> V(    1) amplitude =  0.5494
    D(   38) --> V(    1) amplitude = -0.4201
    D(   41) --> V(    3) amplitude =  0.2749
    D(   42) --> V(    3) amplitude = -0.2803

 Excited state  42: excitation energy (eV) =    9.4780
 Total energy for state 42:                 -3010.17943472 au
    Multiplicity: Singlet
    Trans. Mom.: -0.2539 X   0.0074 Y  -0.1371 Z
    Strength   :     0.0193475937
    D(   34) --> V(    1) amplitude =  0.4598
    D(   38) --> V(    1) amplitude =  0.2709
    D(   40) --> V(    2) amplitude = -0.2917
    D(   42) --> V(    3) amplitude = -0.2597
    D(   45) --> V(    5) amplitude =  0.3293

 Excited state  43: excitation energy (eV) =    9.4988
 Total energy for state 43:                 -3010.17867088 au
    Multiplicity: Singlet
    Trans. Mom.: -0.4160 X  -0.0260 Y  -0.0569 Z
    Strength   :     0.0411887772
    D(   34) --> V(    1) amplitude = -0.2258
    D(   35) --> V(    1) amplitude =  0.3798
    D(   38) --> V(    1) amplitude = -0.2952
    D(   42) --> V(    3) amplitude =  0.4236
    D(   45) --> V(    5) amplitude =  0.4080
    D(   45) --> V(    7) amplitude =  0.2332

 Excited state  44: excitation energy (eV) =    9.5675
 Total energy for state 44:                 -3010.17614710 au
    Multiplicity: Singlet
    Trans. Mom.: -0.1405 X   0.1358 Y   0.0729 Z
    Strength   :     0.0101925794
    D(   42) --> V(    3) amplitude = -0.2125
    D(   44) --> V(    5) amplitude =  0.3833
    D(   45) --> V(    5) amplitude =  0.3026
    D(   45) --> V(    7) amplitude =  0.2160
    D(   49) --> V(    6) amplitude =  0.4315
    D(   49) --> V(    7) amplitude =  0.2883
    D(   49) --> V(    8) amplitude = -0.3803

 Excited state  45: excitation energy (eV) =    9.6249
 Total energy for state 45:                 -3010.17403668 au
    Multiplicity: Singlet
    Trans. Mom.:  0.1630 X  -0.0738 Y  -0.1689 Z
    Strength   :     0.0142709447
    D(   38) --> V(    2) amplitude = -0.3504
    D(   42) --> V(    3) amplitude =  0.2801
    D(   45) --> V(    5) amplitude = -0.2693
    D(   45) --> V(    7) amplitude = -0.2292
    D(   49) --> V(    7) amplitude =  0.4168
    D(   49) --> V(    8) amplitude = -0.3207
    D(   49) --> V(    9) amplitude = -0.3424

 Excited state  46: excitation energy (eV) =    9.6398
 Total energy for state 46:                 -3010.17348917 au
    Multiplicity: Singlet
    Trans. Mom.:  0.1816 X   0.0465 Y   0.1051 Z
    Strength   :     0.0109053236
    D(   38) --> V(    2) amplitude =  0.5802
    D(   42) --> V(    3) amplitude = -0.2427
    D(   44) --> V(    5) amplitude = -0.2471
    D(   49) --> V(    7) amplitude =  0.2313
    D(   49) --> V(    9) amplitude = -0.4257

 Excited state  47: excitation energy (eV) =    9.6480
 Total energy for state 47:                 -3010.17318640 au
    Multiplicity: Singlet
    Trans. Mom.: -0.2184 X  -0.2430 Y  -0.1438 Z
    Strength   :     0.0301236341
    D(   44) --> V(    5) amplitude =  0.2358
    D(   48) --> V(    7) amplitude = -0.4119
    D(   48) --> V(    8) amplitude =  0.6073
    D(   48) --> V(   15) amplitude =  0.3075

 Excited state  48: excitation energy (eV) =    9.6861
 Total energy for state 48:                 -3010.17178713 au
    Multiplicity: Singlet
    Trans. Mom.:  0.1917 X  -0.1886 Y   0.2366 Z
    Strength   :     0.0304560984
    D(   36) --> V(    1) amplitude =  0.3980
    D(   38) --> V(    2) amplitude = -0.2894
    D(   40) --> V(    2) amplitude =  0.3819
    D(   44) --> V(    5) amplitude = -0.3240
    D(   48) --> V(    8) amplitude =  0.2859
    D(   49) --> V(    9) amplitude = -0.3034

 Excited state  49: excitation energy (eV) =    9.7427
 Total energy for state 49:                 -3010.16970643 au
    Multiplicity: Singlet
    Trans. Mom.:  0.1423 X  -0.2940 Y  -0.0766 Z
    Strength   :     0.0268564427
    D(   36) --> V(    1) amplitude =  0.2478
    D(   40) --> V(    2) amplitude = -0.4453
    D(   43) --> V(    4) amplitude =  0.6264

 Excited state  50: excitation energy (eV) =    9.7780
 Total energy for state 50:                 -3010.16840938 au
    Multiplicity: Singlet
    Trans. Mom.:  0.0827 X   0.0091 Y  -0.0250 Z
    Strength   :     0.0018087244
    D(   47) --> V(    7) amplitude = -0.3943
    D(   47) --> V(    8) amplitude =  0.6412
    D(   47) --> V(   15) amplitude =  0.3364
    D(   49) --> V(    6) amplitude =  0.2259
    D(   49) --> V(    9) amplitude = -0.2153

 Excited state  51: excitation energy (eV) =    9.8086
 Total energy for state 51:                 -3010.16728349 au
    Multiplicity: Singlet
    Trans. Mom.:  0.0321 X   0.4050 Y  -0.1604 Z
    Strength   :     0.0458523121
    D(   36) --> V(    1) amplitude =  0.7526
    D(   43) --> V(    4) amplitude = -0.2248
    D(   49) --> V(    7) amplitude =  0.2752

 Excited state  52: excitation energy (eV) =    9.8534
 Total energy for state 52:                 -3010.16564044 au
    Multiplicity: Singlet
    Trans. Mom.:  0.0313 X   0.2731 Y  -0.3138 Z
    Strength   :     0.0420178643
    D(   43) --> V(    4) amplitude = -0.2774
    D(   49) --> V(    6) amplitude =  0.5125
    D(   49) --> V(    7) amplitude = -0.3909
    D(   49) --> V(    9) amplitude = -0.2660

 Excited state  53: excitation energy (eV) =    9.9241
 Total energy for state 53:                 -3010.16304034 au
    Multiplicity: Singlet
    Trans. Mom.: -0.0865 X  -0.3416 Y   0.0287 Z
    Strength   :     0.0303937788
    D(   41) --> V(    3) amplitude =  0.3455
    D(   46) --> V(    9) amplitude = -0.2400
    D(   49) --> V(    7) amplitude =  0.2438
    D(   49) --> V(    8) amplitude =  0.5418

 Excited state  54: excitation energy (eV) =    9.9302
 Total energy for state 54:                 -3010.16281533 au
    Multiplicity: Singlet
    Trans. Mom.:  0.1488 X   0.1920 Y  -0.2115 Z
    Strength   :     0.0252480201
    D(   34) --> V(    1) amplitude = -0.2989
    D(   41) --> V(    3) amplitude =  0.6283
    D(   46) --> V(    7) amplitude = -0.2126
    D(   46) --> V(    9) amplitude =  0.3684

 Excited state  55: excitation energy (eV) =   10.0349
 Total energy for state 55:                 -3010.15896997 au
    Multiplicity: Singlet
    Trans. Mom.:  0.6170 X   0.1939 Y   0.0381 Z
    Strength   :     0.1031878547
    D(   45) --> V(    8) amplitude = -0.4004
    D(   45) --> V(   15) amplitude = -0.2150
    D(   46) --> V(    9) amplitude =  0.4051
    D(   49) --> V(    7) amplitude =  0.2553
    D(   49) --> V(    8) amplitude =  0.2133

 Excited state  56: excitation energy (eV) =   10.1168
 Total energy for state 56:                 -3010.15595928 au
    Multiplicity: Singlet
    Trans. Mom.: -0.2699 X   0.2864 Y   0.0115 Z
    Strength   :     0.0384126983
    D(   43) --> V(    4) amplitude =  0.2159
    D(   45) --> V(    7) amplitude = -0.2990
    D(   45) --> V(    8) amplitude =  0.4531
    D(   46) --> V(    9) amplitude =  0.3281
    D(   49) --> V(    8) amplitude =  0.2432

 Excited state  57: excitation energy (eV) =   10.1913
 Total energy for state 57:                 -3010.15322143 au
    Multiplicity: Singlet
    Trans. Mom.:  0.0454 X  -0.0748 Y   0.0099 Z
    Strength   :     0.0019361359
    D(   46) --> V(    6) amplitude = -0.3489
    D(   46) --> V(    7) amplitude =  0.5967
    D(   46) --> V(    8) amplitude =  0.3983

 Excited state  58: excitation energy (eV) =   10.2071
 Total energy for state 58:                 -3010.15264155 au
    Multiplicity: Singlet
    Trans. Mom.: -0.2517 X  -0.3560 Y  -0.0771 Z
    Strength   :     0.0490216803
    D(   38) --> V(    2) amplitude =  0.2163
    D(   39) --> V(    2) amplitude = -0.3406
    D(   40) --> V(    2) amplitude =  0.2991
    D(   42) --> V(    4) amplitude =  0.5045
    D(   48) --> V(    6) amplitude = -0.2737
    D(   48) --> V(   12) amplitude = -0.2608

 Excited state  59: excitation energy (eV) =   10.2308
 Total energy for state 59:                 -3010.15177047 au
    Multiplicity: Singlet
    Trans. Mom.:  0.0313 X   0.0265 Y  -0.0857 Z
    Strength   :     0.0022635037
    D(   42) --> V(    4) amplitude =  0.3585
    D(   48) --> V(    6) amplitude =  0.4220
    D(   48) --> V(    7) amplitude =  0.2149
    D(   48) --> V(   12) amplitude =  0.3908

 Excited state  60: excitation energy (eV) =   10.3201
 Total energy for state 60:                 -3010.14848857 au
    Multiplicity: Singlet
    Trans. Mom.:  0.1257 X  -0.2447 Y  -0.0432 Z
    Strength   :     0.0196067238
    D(   44) --> V(    5) amplitude =  0.3246
    D(   45) --> V(    8) amplitude =  0.2623
    D(   49) --> V(    9) amplitude = -0.3468
    D(   49) --> V(   10) amplitude =  0.3864
    D(   49) --> V(   11) amplitude =  0.3053

 Excited state  61: excitation energy (eV) =   10.3910
 Total energy for state 61:                 -3010.14588217 au
    Multiplicity: Singlet
    Trans. Mom.: -0.1670 X   0.1894 Y  -0.0136 Z
    Strength   :     0.0162845147
    D(   34) --> V(    2) amplitude = -0.2355
    D(   41) --> V(    4) amplitude = -0.4040
    D(   47) --> V(    6) amplitude = -0.3213
    D(   47) --> V(   12) amplitude = -0.2394
    D(   49) --> V(   12) amplitude =  0.3826

 Excited state  62: excitation energy (eV) =   10.4247
 Total energy for state 62:                 -3010.14464526 au
    Multiplicity: Singlet
    Trans. Mom.:  0.0477 X   0.0165 Y   0.1102 Z
    Strength   :     0.0037522125
    D(   41) --> V(    4) amplitude =  0.3573
    D(   48) --> V(   10) amplitude = -0.3307
    D(   49) --> V(   12) amplitude =  0.3610

 Excited state  63: excitation energy (eV) =   10.4408
 Total energy for state 63:                 -3010.14405224 au
    Multiplicity: Singlet
    Trans. Mom.: -0.0631 X   0.0570 Y  -0.0098 Z
    Strength   :     0.0018750713
    D(   47) --> V(    5) amplitude = -0.2499
    D(   47) --> V(    6) amplitude =  0.4255
    D(   47) --> V(   12) amplitude =  0.3471
    D(   48) --> V(    6) amplitude = -0.2154
    D(   48) --> V(   10) amplitude = -0.2224
    D(   49) --> V(   10) amplitude =  0.3129
    D(   49) --> V(   11) amplitude =  0.2348

 Excited state  64: excitation energy (eV) =   10.4465
 Total energy for state 64:                 -3010.14384174 au
    Multiplicity: Singlet
    Trans. Mom.: -0.1507 X   0.0005 Y   0.1251 Z
    Strength   :     0.0098173558
    D(   48) --> V(    6) amplitude =  0.2601
    D(   48) --> V(    9) amplitude = -0.2571
    D(   48) --> V(   10) amplitude =  0.3745
    D(   49) --> V(   12) amplitude =  0.3126

 Excited state  65: excitation energy (eV) =   10.4824
 Total energy for state 65:                 -3010.14252403 au
    Multiplicity: Singlet
    Trans. Mom.: -0.1640 X  -0.1034 Y   0.1590 Z
    Strength   :     0.0161513983
    D(   46) --> V(    6) amplitude = -0.2171
    D(   48) --> V(    5) amplitude =  0.2739
    D(   48) --> V(    9) amplitude =  0.4412
    D(   48) --> V(   11) amplitude = -0.2881
    D(   49) --> V(   10) amplitude =  0.2310

 Excited state  66: excitation energy (eV) =   10.5107
 Total energy for state 66:                 -3010.14148211 au
    Multiplicity: Singlet
    Trans. Mom.:  0.0955 X  -0.1370 Y  -0.1094 Z
    Strength   :     0.0102592056
    D(   39) --> V(    2) amplitude = -0.2245
    D(   44) --> V(    5) amplitude =  0.2127
    D(   46) --> V(    9) amplitude =  0.2369
    D(   48) --> V(    9) amplitude =  0.4078
    D(   49) --> V(   10) amplitude = -0.2604

 Excited state  67: excitation energy (eV) =   10.5171
 Total energy for state 67:                 -3010.14124763 au
    Multiplicity: Singlet
    Trans. Mom.: -0.0561 X   0.2426 Y  -0.1263 Z
    Strength   :     0.0200829512
    D(   39) --> V(    2) amplitude = -0.3615
    D(   42) --> V(    4) amplitude = -0.2248
    D(   44) --> V(    5) amplitude = -0.3020
    D(   46) --> V(    6) amplitude =  0.2454
    D(   47) --> V(   12) amplitude = -0.2141
    D(   49) --> V(   10) amplitude =  0.3848

 Excited state  68: excitation energy (eV) =   10.5791
 Total energy for state 68:                 -3010.13897099 au
    Multiplicity: Singlet
    Trans. Mom.: -0.0842 X   0.0768 Y  -0.0639 Z
    Strength   :     0.0044246190
    D(   47) --> V(    5) amplitude =  0.3034
    D(   47) --> V(    6) amplitude =  0.2915
    D(   47) --> V(   10) amplitude =  0.3472
    D(   49) --> V(   11) amplitude = -0.2131
    D(   49) --> V(   12) amplitude =  0.2516

 Excited state  69: excitation energy (eV) =   10.5839
 Total energy for state 69:                 -3010.13879336 au
    Multiplicity: Singlet
    Trans. Mom.:  0.0137 X  -0.1826 Y  -0.1696 Z
    Strength   :     0.0161558030
    D(   39) --> V(    2) amplitude =  0.2250
    D(   41) --> V(    4) amplitude =  0.2421
    D(   42) --> V(    4) amplitude =  0.2517
    D(   46) --> V(    6) amplitude =  0.3698
    D(   46) --> V(   10) amplitude = -0.2142
    D(   49) --> V(   11) amplitude =  0.2977
    D(   49) --> V(   12) amplitude =  0.2162

 Excited state  70: excitation energy (eV) =   10.6322
 Total energy for state 70:                 -3010.13701828 au
    Multiplicity: Singlet
    Trans. Mom.:  0.2314 X   0.0980 Y   0.2315 Z
    Strength   :     0.0304037005
    D(   46) --> V(    6) amplitude =  0.2401
    D(   46) --> V(    7) amplitude = -0.2573
    D(   46) --> V(    8) amplitude =  0.3865
    D(   46) --> V(   10) amplitude = -0.2339
    D(   46) --> V(   14) amplitude =  0.2359
    D(   47) --> V(   10) amplitude = -0.2202
    D(   49) --> V(   11) amplitude = -0.3017

 Excited state  71: excitation energy (eV) =   10.6620
 Total energy for state 71:                 -3010.13592420 au
    Multiplicity: Singlet
    Trans. Mom.:  0.0444 X   0.1386 Y  -0.0448 Z
    Strength   :     0.0060525767
    D(   45) --> V(    6) amplitude =  0.4884
    D(   45) --> V(   12) amplitude =  0.2940

 Excited state  72: excitation energy (eV) =   10.6968
 Total energy for state 72:                 -3010.13464484 au
    Multiplicity: Singlet
    Trans. Mom.:  0.0609 X   0.0478 Y   0.0406 Z
    Strength   :     0.0020040691
    D(   45) --> V(   10) amplitude = -0.2267
    D(   46) --> V(    8) amplitude =  0.2294
    D(   46) --> V(   12) amplitude = -0.2351
    D(   47) --> V(    9) amplitude =  0.2641
    D(   49) --> V(   11) amplitude =  0.4114
    D(   49) --> V(   12) amplitude = -0.2215

 Excited state  73: excitation energy (eV) =   10.7050
 Total energy for state 73:                 -3010.13434343 au
    Multiplicity: Singlet
    Trans. Mom.:  0.2652 X   0.0993 Y   0.2815 Z
    Strength   :     0.0418086218
    D(   46) --> V(   10) amplitude = -0.2677
    D(   47) --> V(    9) amplitude = -0.3094
    D(   47) --> V(   10) amplitude =  0.3291
    D(   49) --> V(   10) amplitude = -0.2255
    D(   49) --> V(   11) amplitude =  0.2386

 Excited state  74: excitation energy (eV) =   10.7468
 Total energy for state 74:                 -3010.13280742 au
    Multiplicity: Singlet
    Trans. Mom.:  0.0141 X  -0.0579 Y   0.0920 Z
    Strength   :     0.0031602988
    D(   43) --> V(    5) amplitude = -0.2216
    D(   44) --> V(    6) amplitude = -0.2507
    D(   46) --> V(   10) amplitude = -0.2662
    D(   46) --> V(   11) amplitude = -0.2404
    D(   47) --> V(    9) amplitude =  0.4179
    D(   47) --> V(   11) amplitude = -0.2533

 Excited state  75: excitation energy (eV) =   10.8027
 Total energy for state 75:                 -3010.13075417 au
    Multiplicity: Singlet
    Trans. Mom.:  0.0537 X  -0.1025 Y   0.0790 Z
    Strength   :     0.0051944669
    D(   33) --> V(    1) amplitude = -0.3275
    D(   41) --> V(    4) amplitude =  0.2217
    D(   44) --> V(    6) amplitude = -0.2527
    D(   45) --> V(    9) amplitude =  0.4003

 Excited state  76: excitation energy (eV) =   10.8095
 Total energy for state 76:                 -3010.13050122 au
    Multiplicity: Singlet
    Trans. Mom.:  0.2825 X   0.1232 Y   0.1318 Z
    Strength   :     0.0297581266
    D(   45) --> V(    6) amplitude =  0.2687
    D(   46) --> V(    8) amplitude =  0.2488
    D(   46) --> V(   11) amplitude =  0.4325
    D(   47) --> V(    9) amplitude =  0.2884
    D(   48) --> V(   11) amplitude = -0.2417
    D(   49) --> V(   13) amplitude =  0.2332

 Excited state  77: excitation energy (eV) =   10.8288
 Total energy for state 77:                 -3010.12979242 au
    Multiplicity: Singlet
    Trans. Mom.:  0.1424 X   0.0771 Y   0.0264 Z
    Strength   :     0.0071408277
    D(   33) --> V(    1) amplitude =  0.2990
    D(   44) --> V(    7) amplitude =  0.2938
    D(   45) --> V(    9) amplitude =  0.4052
    D(   46) --> V(   12) amplitude =  0.2774
    D(   49) --> V(   13) amplitude =  0.3226

 Excited state  78: excitation energy (eV) =   10.8515
 Total energy for state 78:                 -3010.12896048 au
    Multiplicity: Singlet
    Trans. Mom.:  0.0885 X  -0.0691 Y   0.2359 Z
    Strength   :     0.0181449938
    D(   33) --> V(    1) amplitude = -0.3086
    D(   44) --> V(    7) amplitude =  0.4460
    D(   49) --> V(   13) amplitude =  0.3255
    D(   49) --> V(   14) amplitude =  0.2395

 Excited state  79: excitation energy (eV) =   10.8831
 Total energy for state 79:                 -3010.12779782 au
    Multiplicity: Singlet
    Trans. Mom.:  0.0053 X  -0.0730 Y   0.0313 Z
    Strength   :     0.0016891571
    D(   33) --> V(    1) amplitude =  0.4015
    D(   39) --> V(    2) amplitude =  0.2203
    D(   44) --> V(    6) amplitude = -0.2359
    D(   44) --> V(    9) amplitude =  0.2529
    D(   45) --> V(    9) amplitude = -0.2630

 Excited state  80: excitation energy (eV) =   10.8869
 Total energy for state 80:                 -3010.12765814 au
    Multiplicity: Singlet
    Trans. Mom.:  0.0592 X  -0.0371 Y  -0.2092 Z
    Strength   :     0.0129787067
    D(   44) --> V(    7) amplitude = -0.3715
    D(   44) --> V(    9) amplitude =  0.4132
    D(   46) --> V(   12) amplitude =  0.2703
    D(   49) --> V(   13) amplitude =  0.2708
    D(   49) --> V(   14) amplitude = -0.2196

 Excited state  81: excitation energy (eV) =   10.9156
 Total energy for state 81:                 -3010.12660280 au
    Multiplicity: Singlet
    Trans. Mom.: -0.1992 X   0.2018 Y   0.2011 Z
    Strength   :     0.0323097530
    D(   44) --> V(    6) amplitude = -0.2320
    D(   45) --> V(   11) amplitude =  0.2325
    D(   46) --> V(   11) amplitude =  0.4563
    D(   46) --> V(   14) amplitude = -0.3002
    D(   49) --> V(   13) amplitude = -0.4401

 Excited state  82: excitation energy (eV) =   10.9758
 Total energy for state 82:                 -3010.12439161 au
    Multiplicity: Singlet
    Trans. Mom.:  0.0308 X   0.1064 Y   0.0211 Z
    Strength   :     0.0034190861
    D(   45) --> V(   10) amplitude =  0.2752
    D(   48) --> V(    5) amplitude = -0.3172
    D(   48) --> V(    9) amplitude =  0.2219
    D(   48) --> V(   10) amplitude =  0.3971
    D(   48) --> V(   11) amplitude =  0.3779
    D(   48) --> V(   12) amplitude = -0.2560
    D(   48) --> V(   14) amplitude =  0.2367

 Excited state  83: excitation energy (eV) =   11.0503
 Total energy for state 83:                 -3010.12165465 au
    Multiplicity: Singlet
    Trans. Mom.: -0.0064 X   0.1088 Y  -0.0181 Z
    Strength   :     0.0033048112
    D(   35) --> V(    2) amplitude =  0.2849
    D(   37) --> V(    2) amplitude = -0.4653
    D(   40) --> V(    3) amplitude =  0.3193
    D(   42) --> V(    4) amplitude =  0.2307
    D(   46) --> V(   13) amplitude =  0.2223

 Excited state  84: excitation energy (eV) =   11.0798
 Total energy for state 84:                 -3010.12056872 au
    Multiplicity: Singlet
    Trans. Mom.:  0.0174 X  -0.0813 Y  -0.2173 Z
    Strength   :     0.0146985176
    D(   37) --> V(    2) amplitude =  0.5505
    D(   43) --> V(    5) amplitude =  0.3457
    D(   46) --> V(   10) amplitude = -0.2281

 Excited state  85: excitation energy (eV) =   11.0920
 Total energy for state 85:                 -3010.12011990 au
    Multiplicity: Singlet
    Trans. Mom.:  0.0043 X   0.0665 Y   0.1570 Z
    Strength   :     0.0079022040
    D(   43) --> V(    5) amplitude = -0.3163
    D(   47) --> V(    5) amplitude = -0.2411
    D(   47) --> V(   10) amplitude =  0.4348
    D(   47) --> V(   11) amplitude =  0.3753
    D(   47) --> V(   16) amplitude = -0.2724

 Excited state  86: excitation energy (eV) =   11.1280
 Total energy for state 86:                 -3010.11879950 au
    Multiplicity: Singlet
    Trans. Mom.: -0.0010 X   0.0413 Y   0.1672 Z
    Strength   :     0.0080889635
    D(   34) --> V(    2) amplitude =  0.2732
    D(   35) --> V(    2) amplitude = -0.4172
    D(   37) --> V(    2) amplitude = -0.2568
    D(   43) --> V(    5) amplitude =  0.3517

 Excited state  87: excitation energy (eV) =   11.1435
 Total energy for state 87:                 -3010.11822853 au
    Multiplicity: Singlet
    Trans. Mom.:  0.0291 X  -0.0675 Y  -0.0408 Z
    Strength   :     0.0019295162
    D(   35) --> V(    2) amplitude =  0.4226
    D(   43) --> V(    5) amplitude =  0.2763
    D(   44) --> V(    6) amplitude = -0.2199
    D(   46) --> V(   11) amplitude = -0.2198
    D(   46) --> V(   12) amplitude =  0.2704

 Excited state  88: excitation energy (eV) =   11.1828
 Total energy for state 88:                 -3010.11678495 au
    Multiplicity: Singlet
    Trans. Mom.: -0.2468 X   0.0208 Y  -0.0850 Z
    Strength   :     0.0187781586
    D(   45) --> V(    5) amplitude = -0.2499
    D(   45) --> V(    6) amplitude = -0.2283
    D(   45) --> V(   10) amplitude =  0.2432
    D(   45) --> V(   11) amplitude =  0.3250
    D(   48) --> V(    8) amplitude =  0.2852
    D(   48) --> V(   16) amplitude =  0.2913

 Excited state  89: excitation energy (eV) =   11.2209
 Total energy for state 89:                 -3010.11538511 au
    Multiplicity: Singlet
    Trans. Mom.: -0.0977 X   0.0807 Y  -0.0661 Z
    Strength   :     0.0056151652
    D(   43) --> V(    5) amplitude =  0.3002
    D(   44) --> V(    8) amplitude =  0.3458
    D(   44) --> V(    9) amplitude = -0.2771
    D(   49) --> V(   16) amplitude = -0.2698
    D(   49) --> V(   17) amplitude =  0.2558

 Excited state  90: excitation energy (eV) =   11.2323
 Total energy for state 90:                 -3010.11496620 au
    Multiplicity: Singlet
    Trans. Mom.:  0.0995 X   0.1594 Y   0.2141 Z
    Strength   :     0.0223277484
    D(   44) --> V(    8) amplitude =  0.3607
    D(   44) --> V(   10) amplitude =  0.2128
    D(   49) --> V(   15) amplitude = -0.3584
    D(   49) --> V(   18) amplitude = -0.3258

 Excited state  91: excitation energy (eV) =   11.3049
 Total energy for state 91:                 -3010.11229826 au
    Multiplicity: Singlet
    Trans. Mom.:  0.0960 X   0.1099 Y   0.0944 Z
    Strength   :     0.0083658149
    D(   40) --> V(    3) amplitude =  0.2374
    D(   45) --> V(   10) amplitude = -0.2831
    D(   48) --> V(    7) amplitude =  0.3786
    D(   48) --> V(    8) amplitude =  0.3117

 Excited state  92: excitation energy (eV) =   11.3248
 Total energy for state 92:                 -3010.11156710 au
    Multiplicity: Singlet
    Trans. Mom.:  0.0320 X  -0.0259 Y  -0.1132 Z
    Strength   :     0.0040230027
    D(   40) --> V(    3) amplitude = -0.2977
    D(   43) --> V(    5) amplitude =  0.2171
    D(   44) --> V(   12) amplitude =  0.2313
    D(   49) --> V(   14) amplitude =  0.3625

 Excited state  93: excitation energy (eV) =   11.3381
 Total energy for state 93:                 -3010.11107561 au
    Multiplicity: Singlet
    Trans. Mom.:  0.1956 X   0.1454 Y   0.3661 Z
    Strength   :     0.0537268377
    D(   44) --> V(    9) amplitude =  0.2275
    D(   44) --> V(   10) amplitude = -0.3370
    D(   47) --> V(    8) amplitude =  0.2383
    D(   48) --> V(    6) amplitude =  0.2690

 Excited state  94: excitation energy (eV) =   11.3649
 Total energy for state 94:                 -3010.11009050 au
    Multiplicity: Singlet
    Trans. Mom.: -0.1685 X  -0.1328 Y  -0.4948 Z
    Strength   :     0.0809876319
    D(   40) --> V(    3) amplitude = -0.3045
    D(   47) --> V(    7) amplitude =  0.3418
    D(   47) --> V(    8) amplitude =  0.3585
    D(   47) --> V(   16) amplitude =  0.2568

 Excited state  95: excitation energy (eV) =   11.3740
 Total energy for state 95:                 -3010.10975879 au
    Multiplicity: Singlet
    Trans. Mom.: -0.0003 X   0.0106 Y  -0.2053 Z
    Strength   :     0.0117810624
    D(   44) --> V(   10) amplitude =  0.2418
    D(   48) --> V(    6) amplitude =  0.3663
    D(   48) --> V(   10) amplitude = -0.2437
    D(   48) --> V(   11) amplitude =  0.2556
    D(   48) --> V(   12) amplitude = -0.2324
    D(   49) --> V(   14) amplitude = -0.2179

 Excited state  96: excitation energy (eV) =   11.4699
 Total energy for state 96:                 -3010.10623479 au
    Multiplicity: Singlet
    Trans. Mom.: -0.0422 X  -0.0214 Y  -0.2424 Z
    Strength   :     0.0171406774
    D(   36) --> V(    2) amplitude = -0.2823
    D(   46) --> V(   13) amplitude =  0.3660

 Excited state  97: excitation energy (eV) =   11.4765
 Total energy for state 97:                 -3010.10599262 au
    Multiplicity: Singlet
    Trans. Mom.: -0.0295 X   0.0218 Y   0.1661 Z
    Strength   :     0.0081335433
    D(   44) --> V(    7) amplitude =  0.2288
    D(   44) --> V(    9) amplitude =  0.2612
    D(   44) --> V(   10) amplitude = -0.2862
    D(   44) --> V(   11) amplitude = -0.2307
    D(   49) --> V(   15) amplitude = -0.3052

 Excited state  98: excitation energy (eV) =   11.4965
 Total energy for state 98:                 -3010.10525723 au
    Multiplicity: Singlet
    Trans. Mom.:  0.0357 X   0.0559 Y   0.0184 Z
    Strength   :     0.0013365700
    D(   36) --> V(    2) amplitude =  0.2779
    D(   45) --> V(    8) amplitude =  0.2341
    D(   46) --> V(    6) amplitude =  0.2455
    D(   46) --> V(   13) amplitude =  0.2517
    D(   46) --> V(   16) amplitude = -0.2264

 Excited state  99: excitation energy (eV) =   11.5265
 Total energy for state 99:                 -3010.10415519 au
    Multiplicity: Singlet
    Trans. Mom.:  0.1649 X   0.1007 Y  -0.1062 Z
    Strength   :     0.0137282728
    D(   45) --> V(    6) amplitude = -0.2187
    D(   47) --> V(    6) amplitude =  0.2273

 Excited state 100: excitation energy (eV) =   11.5476
 Total energy for state100:                 -3010.10337985 au
    Multiplicity: Singlet
    Trans. Mom.:  0.0539 X  -0.0075 Y  -0.1161 Z
    Strength   :     0.0046478945
    D(   44) --> V(    6) amplitude =  0.2291
    D(   47) --> V(    6) amplitude = -0.2204
 
 ---------------------------------------------------

 Direct TDDFT calculation will be performed
 Exchange:     0.2220 Hartree-Fock + 1.0000 wB97X-D + LR-HF
 Correlation:  1.0000 wB97X-D
 Using SG-2 standard quadrature grid
 Dispersion:   Grimme D
 ---------------------------------------------------
 Iter    Rts Conv    Rts Left    Ttl Dev     Max Dev
 ---------------------------------------------------
   1         0         100      0.026715    0.000699
   2         0         100      0.006729    0.000152
   3         0         100      0.002341    0.000113
   4         3          97      0.001220    0.000086
   5        12          88      0.000604    0.000051
   6        33          67      0.000283    0.000028
   7        71          29      0.000126    0.000013
   8        91           9      0.000069    0.000006
   9        96           4      0.000052    0.000003
  10        99           1      0.000047    0.000001
  11       100           0      0.000045    0.000001    Roots Converged
 ---------------------------------------------------
 
 ---------------------------------------------------
             TDDFT Excitation Energies              
 ---------------------------------------------------

 Excited state   1: excitation energy (eV) =    2.5337
 Total energy for state  1:                 -3010.43463260 au
    Multiplicity: Singlet 
    Trans. Mom.:  0.2207 X  -0.0608 Y  -0.0040 Z
    Strength   :     0.0032528043
    X: D(   49) --> V(    1) amplitude =  0.9671

 Excited state   2: excitation energy (eV) =    2.8430
 Total energy for state  2:                 -3010.42326781 au
    Multiplicity: Singlet 
    Trans. Mom.:  0.1485 X   0.2106 Y   0.1480 Z
    Strength   :     0.0061507755
    X: D(   45) --> V(    1) amplitude =  0.2505
    X: D(   46) --> V(    1) amplitude =  0.8976
    X: D(   47) --> V(    1) amplitude =  0.2529

 Excited state   3: excitation energy (eV) =    3.4002
 Total energy for state  3:                 -3010.40279003 au
    Multiplicity: Singlet 
    Trans. Mom.: -0.0349 X   0.0195 Y  -0.0039 Z
    Strength   :     0.0001346832
    X: D(   48) --> V(    1) amplitude =  0.9365
    X: D(   48) --> V(    2) amplitude =  0.2280

 Excited state   4: excitation energy (eV) =    3.6127
 Total energy for state  4:                 -3010.39498151 au
    Multiplicity: Singlet 
    Trans. Mom.:  0.0880 X  -0.0136 Y   0.0200 Z
    Strength   :     0.0007366396
    X: D(   45) --> V(    1) amplitude = -0.4795
    X: D(   48) --> V(    2) amplitude =  0.7575
    X: D(   48) --> V(    4) amplitude = -0.2668

 Excited state   5: excitation energy (eV) =    3.6585
 Total energy for state  5:                 -3010.39329798 au
    Multiplicity: Singlet 
    Trans. Mom.:  0.3686 X  -0.0033 Y   0.0288 Z
    Strength   :     0.0122513584
    X: D(   45) --> V(    1) amplitude = -0.2709
    X: D(   47) --> V(    1) amplitude =  0.8889
    X: D(   48) --> V(    2) amplitude = -0.2401

 Excited state   6: excitation energy (eV) =    3.6737
 Total energy for state  6:                 -3010.39273688 au
    Multiplicity: Singlet 
    Trans. Mom.:  0.0588 X   0.0161 Y  -0.0289 Z
    Strength   :     0.0004102557
    X: D(   45) --> V(    1) amplitude =  0.7679
    X: D(   46) --> V(    1) amplitude = -0.3167
    X: D(   47) --> V(    1) amplitude =  0.2948
    X: D(   48) --> V(    2) amplitude =  0.3673

 Excited state   7: excitation energy (eV) =    4.0752
 Total energy for state  7:                 -3010.37798431 au
    Multiplicity: Singlet 
    Trans. Mom.:  0.4294 X  -0.2139 Y  -0.0741 Z
    Strength   :     0.0235295443
    X: D(   44) --> V(    1) amplitude =  0.6241
    X: D(   45) --> V(    2) amplitude =  0.6628
    X: D(   45) --> V(    4) amplitude = -0.2318
    X: D(   46) --> V(    2) amplitude = -0.2504

 Excited state   8: excitation energy (eV) =    4.0818
 Total energy for state  8:                 -3010.37774125 au
    Multiplicity: Singlet 
    Trans. Mom.:  0.5500 X  -0.2495 Y  -0.0037 Z
    Strength   :     0.0364777884
    X: D(   44) --> V(    1) amplitude =  0.7448
    X: D(   45) --> V(    2) amplitude = -0.5413

 Excited state   9: excitation energy (eV) =    5.1950
 Total energy for state  9:                 -3010.33683200 au
    Multiplicity: Singlet 
    Trans. Mom.:  0.1536 X   0.4254 Y   0.3831 Z
    Strength   :     0.0447233253
    X: D(   42) --> V(    1) amplitude = -0.3108
    X: D(   43) --> V(    1) amplitude =  0.7762
    X: D(   49) --> V(    2) amplitude =  0.4714

 Excited state  10: excitation energy (eV) =    5.3838
 Total energy for state 10:                 -3010.32989236 au
    Multiplicity: Singlet 
    Trans. Mom.: -0.2872 X  -0.0033 Y  -0.1531 Z
    Strength   :     0.0139719200
    X: D(   42) --> V(    1) amplitude =  0.8804
    X: D(   49) --> V(    2) amplitude =  0.3624

 Excited state  11: excitation energy (eV) =    5.7006
 Total energy for state 11:                 -3010.31825316 au
    Multiplicity: Singlet 
    Trans. Mom.: -0.8141 X  -0.0906 Y  -0.2659 Z
    Strength   :     0.1035847421
    X: D(   43) --> V(    1) amplitude = -0.3188
    X: D(   47) --> V(    2) amplitude =  0.6726
    X: D(   49) --> V(    2) amplitude =  0.5463

 Excited state  12: excitation energy (eV) =    5.8087
 Total energy for state 12:                 -3010.31427702 au
    Multiplicity: Singlet 
    Trans. Mom.: -0.0548 X  -0.2425 Y  -0.2316 Z
    Strength   :     0.0164287360
    X: D(   41) --> V(    1) amplitude =  0.9248
    X: D(   47) --> V(    2) amplitude = -0.2408

 Excited state  13: excitation energy (eV) =    5.8812
 Total energy for state 13:                 -3010.31161302 au
    Multiplicity: Singlet 
    Trans. Mom.:  0.5205 X   0.4100 Y   0.1018 Z
    Strength   :     0.0647510113
    X: D(   45) --> V(    2) amplitude =  0.2987
    X: D(   46) --> V(    2) amplitude =  0.6622
    X: D(   46) --> V(    4) amplitude =  0.2860
    X: D(   47) --> V(    2) amplitude =  0.4513

 Excited state  14: excitation energy (eV) =    5.9646
 Total energy for state 14:                 -3010.30855008 au
    Multiplicity: Singlet 
    Trans. Mom.: -0.6039 X  -1.0094 Y  -0.2415 Z
    Strength   :     0.2107004509
    X: D(   43) --> V(    1) amplitude = -0.3410
    X: D(   46) --> V(    2) amplitude =  0.5370
    X: D(   47) --> V(    2) amplitude = -0.4088
    X: D(   49) --> V(    2) amplitude =  0.3201
    X: D(   49) --> V(    3) amplitude =  0.4058

 Excited state  15: excitation energy (eV) =    6.1695
 Total energy for state 15:                 -3010.30101866 au
    Multiplicity: Singlet 
    Trans. Mom.:  0.5429 X   0.7092 Y   0.2036 Z
    Strength   :     0.1268435706
    X: D(   43) --> V(    1) amplitude =  0.2354
    X: D(   46) --> V(    3) amplitude =  0.3477
    X: D(   49) --> V(    2) amplitude = -0.2428
    X: D(   49) --> V(    3) amplitude =  0.6932
    X: D(   49) --> V(    4) amplitude =  0.3021

 Excited state  16: excitation energy (eV) =    6.3029
 Total energy for state 16:                 -3010.29611867 au
    Multiplicity: Singlet 
    Trans. Mom.:  0.6509 X   0.5861 Y   0.2029 Z
    Strength   :     0.1248201067
    X: D(   45) --> V(    3) amplitude = -0.2238
    X: D(   46) --> V(    3) amplitude = -0.7427
    X: D(   46) --> V(    4) amplitude = -0.2609
    X: D(   47) --> V(    3) amplitude = -0.2435
    X: D(   49) --> V(    3) amplitude =  0.2157

 Excited state  17: excitation energy (eV) =    6.5777
 Total energy for state 17:                 -3010.28601953 au
    Multiplicity: Singlet 
    Trans. Mom.: -0.6488 X  -0.0862 Y  -0.0123 Z
    Strength   :     0.0690474423
    X: D(   40) --> V(    1) amplitude = -0.3033
    X: D(   44) --> V(    2) amplitude =  0.8503
    X: D(   49) --> V(    4) amplitude = -0.2452

 Excited state  18: excitation energy (eV) =    7.0510
 Total energy for state 18:                 -3010.26862541 au
    Multiplicity: Singlet 
    Trans. Mom.: -0.0201 X   0.0249 Y  -0.0048 Z
    Strength   :     0.0001809414
    X: D(   48) --> V(    2) amplitude =  0.3373
    X: D(   48) --> V(    3) amplitude = -0.5226
    X: D(   48) --> V(    4) amplitude =  0.6922

 Excited state  19: excitation energy (eV) =    7.0877
 Total energy for state 19:                 -3010.26727554 au
    Multiplicity: Singlet 
    Trans. Mom.: -0.1895 X   0.2060 Y   0.3474 Z
    Strength   :     0.0345589212
    X: D(   39) --> V(    1) amplitude =  0.4317
    X: D(   40) --> V(    1) amplitude =  0.7692

 Excited state  20: excitation energy (eV) =    7.2870
 Total energy for state 20:                 -3010.25995372 au
    Multiplicity: Singlet 
    Trans. Mom.: -0.1827 X   0.0910 Y   0.0484 Z
    Strength   :     0.0078539542
    X: D(   43) --> V(    2) amplitude = -0.4099
    X: D(   45) --> V(    2) amplitude =  0.3094
    X: D(   45) --> V(    3) amplitude = -0.4373
    X: D(   45) --> V(    4) amplitude =  0.5959

 Excited state  21: excitation energy (eV) =    7.3233
 Total energy for state 21:                 -3010.25861885 au
    Multiplicity: Singlet 
    Trans. Mom.:  0.2333 X  -0.0698 Y   0.1340 Z
    Strength   :     0.0138604660
    X: D(   43) --> V(    2) amplitude =  0.7247
    X: D(   44) --> V(    3) amplitude =  0.3753
    X: D(   45) --> V(    3) amplitude = -0.2408
    X: D(   45) --> V(    4) amplitude =  0.2497

 Excited state  22: excitation energy (eV) =    7.5988
 Total energy for state 22:                 -3010.24849372 au
    Multiplicity: Singlet 
    Trans. Mom.: -0.0063 X  -0.7548 Y  -0.2290 Z
    Strength   :     0.1158478258
    X: D(   39) --> V(    1) amplitude =  0.2841
    X: D(   44) --> V(    2) amplitude =  0.2209
    X: D(   44) --> V(    3) amplitude = -0.5120
    X: D(   47) --> V(    3) amplitude =  0.2957
    X: D(   47) --> V(    4) amplitude = -0.3811
    X: D(   49) --> V(    3) amplitude = -0.2363
    X: D(   49) --> V(    4) amplitude =  0.3995

 Excited state  23: excitation energy (eV) =    7.6242
 Total energy for state 23:                 -3010.24755933 au
    Multiplicity: Singlet 
    Trans. Mom.: -0.0814 X   0.9554 Y   0.1960 Z
    Strength   :     0.1789260437
    X: D(   39) --> V(    1) amplitude = -0.2481
    X: D(   47) --> V(    3) amplitude =  0.6200
    X: D(   47) --> V(    4) amplitude = -0.4915
    X: D(   49) --> V(    4) amplitude = -0.2175

 Excited state  24: excitation energy (eV) =    7.6897
 Total energy for state 24:                 -3010.24515193 au
    Multiplicity: Singlet 
    Trans. Mom.: -0.0875 X   0.4181 Y  -0.2719 Z
    Strength   :     0.0483136533
    X: D(   37) --> V(    1) amplitude =  0.2446
    X: D(   39) --> V(    1) amplitude =  0.4613
    X: D(   40) --> V(    1) amplitude = -0.3203
    X: D(   42) --> V(    2) amplitude =  0.5333
    X: D(   44) --> V(    2) amplitude = -0.2152
    X: D(   44) --> V(    3) amplitude =  0.2582

 Excited state  25: excitation energy (eV) =    7.7819
 Total energy for state 25:                 -3010.24176466 au
    Multiplicity: Singlet 
    Trans. Mom.: -0.4589 X  -0.2522 Y  -0.1095 Z
    Strength   :     0.0545622760
    X: D(   43) --> V(    2) amplitude = -0.2627
    X: D(   44) --> V(    3) amplitude =  0.3256
    X: D(   48) --> V(    3) amplitude = -0.4839
    X: D(   48) --> V(    4) amplitude = -0.4480
    X: D(   49) --> V(    4) amplitude =  0.4530

 Excited state  26: excitation energy (eV) =    7.8183
 Total energy for state 26:                 -3010.24042878 au
    Multiplicity: Singlet 
    Trans. Mom.: -0.3287 X  -0.1376 Y  -0.0582 Z
    Strength   :     0.0249768500
    X: D(   44) --> V(    3) amplitude =  0.3494
    X: D(   48) --> V(    3) amplitude =  0.5991
    X: D(   48) --> V(    4) amplitude =  0.2846
    X: D(   49) --> V(    4) amplitude =  0.4436

 Excited state  27: excitation energy (eV) =    7.9770
 Total energy for state 27:                 -3010.23459406 au
    Multiplicity: Singlet 
    Trans. Mom.:  0.1311 X  -0.0264 Y   0.1382 Z
    Strength   :     0.0072296442
    X: D(   35) --> V(    1) amplitude =  0.3513
    X: D(   38) --> V(    1) amplitude =  0.4538
    X: D(   39) --> V(    1) amplitude = -0.3411
    X: D(   42) --> V(    2) amplitude =  0.4516
    X: D(   45) --> V(    3) amplitude =  0.2688

 Excited state  28: excitation energy (eV) =    8.1199
 Total energy for state 28:                 -3010.22934257 au
    Multiplicity: Singlet 
    Trans. Mom.:  0.2281 X   0.0602 Y   0.0917 Z
    Strength   :     0.0127408288
    X: D(   39) --> V(    1) amplitude = -0.2542
    X: D(   42) --> V(    2) amplitude =  0.3347
    X: D(   45) --> V(    3) amplitude = -0.3998
    X: D(   46) --> V(    4) amplitude =  0.6178
    X: D(   47) --> V(    3) amplitude = -0.2967

 Excited state  29: excitation energy (eV) =    8.1238
 Total energy for state 29:                 -3010.22920059 au
    Multiplicity: Singlet 
    Trans. Mom.:  0.1542 X  -0.3293 Y   0.1109 Z
    Strength   :     0.0287530657
    X: D(   44) --> V(    3) amplitude = -0.2906
    X: D(   46) --> V(    3) amplitude = -0.2158
    X: D(   47) --> V(    3) amplitude =  0.5161
    X: D(   47) --> V(    4) amplitude =  0.6508

 Excited state  30: excitation energy (eV) =    8.1322
 Total energy for state 30:                 -3010.22889075 au
    Multiplicity: Singlet 
    Trans. Mom.: -0.2247 X  -0.2749 Y  -0.1403 Z
    Strength   :     0.0290445099
    X: D(   45) --> V(    3) amplitude =  0.5233
    X: D(   45) --> V(    4) amplitude =  0.5519
    X: D(   46) --> V(    3) amplitude = -0.3447
    X: D(   46) --> V(    4) amplitude =  0.3460

 Excited state  31: excitation energy (eV) =    8.1934
 Total energy for state 31:                 -3010.22664269 au
    Multiplicity: Singlet 
    Trans. Mom.:  0.0962 X  -0.1323 Y  -0.1078 Z
    Strength   :     0.0077045884
    X: D(   34) --> V(    1) amplitude = -0.2761
    X: D(   35) --> V(    1) amplitude =  0.3341
    X: D(   37) --> V(    1) amplitude = -0.2868
    X: D(   38) --> V(    1) amplitude =  0.4064
    X: D(   39) --> V(    1) amplitude =  0.3774
    X: D(   41) --> V(    2) amplitude =  0.2644
    X: D(   42) --> V(    2) amplitude = -0.2785
    X: D(   45) --> V(    3) amplitude = -0.2399
    X: D(   46) --> V(    4) amplitude =  0.3280

 Excited state  32: excitation energy (eV) =    8.4476
 Total energy for state 32:                 -3010.21730137 au
    Multiplicity: Singlet 
    Trans. Mom.:  0.1462 X   0.1077 Y   0.1941 Z
    Strength   :     0.0146216964
    X: D(   37) --> V(    1) amplitude =  0.6646
    X: D(   41) --> V(    2) amplitude =  0.5421

 Excited state  33: excitation energy (eV) =    8.6147
 Total energy for state 33:                 -3010.21116031 au
    Multiplicity: Singlet 
    Trans. Mom.: -0.2494 X  -0.1253 Y  -0.0801 Z
    Strength   :     0.0177959955
    X: D(   35) --> V(    1) amplitude = -0.2880
    X: D(   37) --> V(    1) amplitude = -0.4551
    X: D(   38) --> V(    1) amplitude = -0.3441
    X: D(   41) --> V(    2) amplitude =  0.5700
    X: D(   44) --> V(    4) amplitude =  0.3106

 Excited state  34: excitation energy (eV) =    8.7524
 Total energy for state 34:                 -3010.20609804 au
    Multiplicity: Singlet 
    Trans. Mom.:  0.5627 X  -0.0462 Y   0.0274 Z
    Strength   :     0.0685198653
    X: D(   37) --> V(    1) amplitude = -0.2310
    X: D(   44) --> V(    4) amplitude = -0.5249
    X: D(   49) --> V(    5) amplitude =  0.6435

 Excited state  35: excitation energy (eV) =    8.8165
 Total energy for state 35:                 -3010.20374588 au
    Multiplicity: Singlet 
    Trans. Mom.:  0.1232 X  -0.2518 Y  -0.0564 Z
    Strength   :     0.0176555253
    X: D(   44) --> V(    4) amplitude =  0.6037
    X: D(   49) --> V(    5) amplitude =  0.6246

 Excited state  36: excitation energy (eV) =    8.9884
 Total energy for state 36:                 -3010.19742673 au
    Multiplicity: Singlet 
    Trans. Mom.: -0.1627 X   0.5010 Y   0.4160 Z
    Strength   :     0.0992092578
    X: D(   43) --> V(    3) amplitude =  0.8155
    X: D(   46) --> V(    5) amplitude = -0.2714

 Excited state  37: excitation energy (eV) =    9.0344
 Total energy for state 37:                 -3010.19573584 au
    Multiplicity: Singlet 
    Trans. Mom.: -0.3270 X  -0.1716 Y   0.2655 Z
    Strength   :     0.0457843179
    X: D(   43) --> V(    3) amplitude =  0.3260
    X: D(   46) --> V(    5) amplitude =  0.7294
    X: D(   46) --> V(    6) amplitude = -0.2366
    X: D(   46) --> V(    9) amplitude = -0.2201
    X: D(   47) --> V(    5) amplitude =  0.2241

 Excited state  38: excitation energy (eV) =    9.1187
 Total energy for state 38:                 -3010.19263928 au
    Multiplicity: Singlet 
    Trans. Mom.: -0.0548 X   0.1256 Y  -0.0646 Z
    Strength   :     0.0051315003
    X: D(   48) --> V(    5) amplitude =  0.6543
    X: D(   48) --> V(    7) amplitude =  0.3710
    X: D(   48) --> V(    8) amplitude =  0.2289
    X: D(   48) --> V(   11) amplitude =  0.3544

 Excited state  39: excitation energy (eV) =    9.2636
 Total energy for state 39:                 -3010.18731531 au
    Multiplicity: Singlet 
    Trans. Mom.:  0.1729 X   0.0890 Y  -0.1053 Z
    Strength   :     0.0110982278
    X: D(   34) --> V(    1) amplitude = -0.3116
    X: D(   38) --> V(    1) amplitude = -0.2318
    X: D(   38) --> V(    2) amplitude = -0.3450
    X: D(   39) --> V(    2) amplitude = -0.2466
    X: D(   40) --> V(    2) amplitude = -0.2332
    X: D(   42) --> V(    3) amplitude = -0.5203
    X: D(   47) --> V(    5) amplitude =  0.2349

 Excited state  40: excitation energy (eV) =    9.3067
 Total energy for state 40:                 -3010.18572970 au
    Multiplicity: Singlet 
    Trans. Mom.: -0.1010 X   0.0559 Y   0.0588 Z
    Strength   :     0.0038263597
    X: D(   42) --> V(    3) amplitude =  0.2311
    X: D(   47) --> V(    5) amplitude =  0.6265
    X: D(   47) --> V(    7) amplitude =  0.3870
    X: D(   47) --> V(   11) amplitude =  0.3377

 Excited state  41: excitation energy (eV) =    9.3246
 Total energy for state 41:                 -3010.18507038 au
    Multiplicity: Singlet 
    Trans. Mom.:  0.1350 X  -0.0816 Y  -0.1203 Z
    Strength   :     0.0089948025
    X: D(   33) --> V(    1) amplitude = -0.2910
    X: D(   34) --> V(    1) amplitude =  0.3984
    X: D(   35) --> V(    1) amplitude =  0.5139
    X: D(   38) --> V(    1) amplitude = -0.3402
    X: D(   41) --> V(    2) amplitude =  0.2476
    X: D(   41) --> V(    3) amplitude =  0.3199

 Excited state  42: excitation energy (eV) =    9.4519
 Total energy for state 42:                 -3010.18039395 au
    Multiplicity: Singlet 
    Trans. Mom.: -0.3992 X  -0.0363 Y  -0.1926 Z
    Strength   :     0.0457921675
    X: D(   34) --> V(    1) amplitude =  0.3651
    X: D(   40) --> V(    2) amplitude = -0.3238
    X: D(   43) --> V(    4) amplitude = -0.3522
    X: D(   45) --> V(    5) amplitude =  0.3886

 Excited state  43: excitation energy (eV) =    9.4839
 Total energy for state 43:                 -3010.17921805 au
    Multiplicity: Singlet 
    Trans. Mom.: -0.2788 X  -0.0328 Y  -0.0495 Z
    Strength   :     0.0188787898
    X: D(   34) --> V(    1) amplitude = -0.3680
    X: D(   35) --> V(    1) amplitude =  0.4443
    X: D(   38) --> V(    1) amplitude = -0.3942
    X: D(   42) --> V(    3) amplitude =  0.4750
    X: D(   45) --> V(    5) amplitude =  0.2319

 Excited state  44: excitation energy (eV) =    9.5498
 Total energy for state 44:                 -3010.17679501 au
    Multiplicity: Singlet 
    Trans. Mom.: -0.2200 X   0.1118 Y   0.1340 Z
    Strength   :     0.0184503703
    X: D(   40) --> V(    2) amplitude =  0.2321
    X: D(   42) --> V(    3) amplitude = -0.2701
    X: D(   43) --> V(    4) amplitude =  0.2526
    X: D(   44) --> V(    5) amplitude =  0.2850
    X: D(   45) --> V(    5) amplitude =  0.4217
    X: D(   45) --> V(    7) amplitude =  0.2890
    X: D(   49) --> V(    6) amplitude =  0.3485
    X: D(   49) --> V(    7) amplitude =  0.2203
    X: D(   49) --> V(    8) amplitude = -0.3014

 Excited state  45: excitation energy (eV) =    9.5823
 Total energy for state 45:                 -3010.17560219 au
    Multiplicity: Singlet 
    Trans. Mom.:  0.0158 X  -0.0608 Y  -0.1013 Z
    Strength   :     0.0033371881
    X: D(   38) --> V(    2) amplitude = -0.6483
    X: D(   42) --> V(    3) amplitude =  0.3708

 Excited state  46: excitation energy (eV) =    9.6160
 Total energy for state 46:                 -3010.17436400 au
    Multiplicity: Singlet 
    Trans. Mom.:  0.1462 X   0.0188 Y  -0.1330 Z
    Strength   :     0.0092906389
    X: D(   38) --> V(    2) amplitude =  0.2373
    X: D(   40) --> V(    2) amplitude = -0.2481
    X: D(   43) --> V(    4) amplitude = -0.2243
    X: D(   49) --> V(    7) amplitude =  0.4866
    X: D(   49) --> V(    8) amplitude = -0.3676
    X: D(   49) --> V(    9) amplitude = -0.3868

 Excited state  47: excitation energy (eV) =    9.6315
 Total energy for state 47:                 -3010.17379328 au
    Multiplicity: Singlet 
    Trans. Mom.: -0.2148 X  -0.1608 Y  -0.1308 Z
    Strength   :     0.0210260535
    X: D(   44) --> V(    5) amplitude =  0.2860
    X: D(   48) --> V(    7) amplitude = -0.3993
    X: D(   48) --> V(    8) amplitude =  0.6074
    X: D(   48) --> V(   15) amplitude =  0.3140
    X: D(   49) --> V(    9) amplitude =  0.2427

 Excited state  48: excitation energy (eV) =    9.6619
 Total energy for state 48:                 -3010.17267619 au
    Multiplicity: Singlet 
    Trans. Mom.:  0.2206 X  -0.1811 Y   0.2516 Z
    Strength   :     0.0342782763
    X: D(   36) --> V(    1) amplitude =  0.2693
    X: D(   40) --> V(    2) amplitude =  0.2973
    X: D(   44) --> V(    5) amplitude = -0.4231
    X: D(   48) --> V(    8) amplitude =  0.3016
    X: D(   49) --> V(    9) amplitude = -0.4437

 Excited state  49: excitation energy (eV) =    9.6954
 Total energy for state 49:                 -3010.17144469 au
    Multiplicity: Singlet 
    Trans. Mom.:  0.1241 X  -0.2929 Y   0.0351 Z
    Strength   :     0.0243352426
    X: D(   40) --> V(    2) amplitude = -0.4904
    X: D(   42) --> V(    3) amplitude =  0.2172
    X: D(   43) --> V(    4) amplitude =  0.6564

 Excited state  50: excitation energy (eV) =    9.7520
 Total energy for state 50:                 -3010.16936620 au
    Multiplicity: Singlet 
    Trans. Mom.: -0.0210 X   0.1800 Y  -0.1846 Z
    Strength   :     0.0159805076
    X: D(   36) --> V(    1) amplitude =  0.8820

[...]
    e-/hole pair  4:  ampl =  0.2651   ( 7.0 %)
    e-/hole pair  5:  ampl =  0.2451   ( 6.0 %)
    e-/hole pair  6:  ampl =  0.1646   ( 2.7 %)
  These amplitudes account for 93.9 % of total amplitude

  Excited state 67:  10.5089 eV (singlet)
    e-/hole pair  1:  ampl =  0.6818   (46.5 %)
    e-/hole pair  2:  ampl =  0.5553   (30.8 %)
    e-/hole pair  3:  ampl =  0.2775   ( 7.7 %)
    e-/hole pair  4:  ampl =  0.2293   ( 5.3 %)
    e-/hole pair  5:  ampl =  0.1863   ( 3.5 %)
  These amplitudes account for 93.7 % of total amplitude

  Excited state 68:  10.5669 eV (singlet)
    e-/hole pair  1:  ampl =  0.5876   (34.7 %)
    e-/hole pair  2:  ampl =  0.4652   (21.7 %)
    e-/hole pair  3:  ampl =  0.4165   (17.4 %)
    e-/hole pair  4:  ampl =  0.3121   ( 9.8 %)
    e-/hole pair  5:  ampl =  0.2872   ( 8.3 %)
    e-/hole pair  6:  ampl =  0.1859   ( 3.5 %)
  These amplitudes account for 95.4 % of total amplitude

  Excited state 69:  10.5726 eV (singlet)
    e-/hole pair  1:  ampl =  0.7289   (53.2 %)
    e-/hole pair  2:  ampl =  0.4326   (18.7 %)
    e-/hole pair  3:  ampl =  0.3906   (15.3 %)
    e-/hole pair  4:  ampl =  0.2220   ( 4.9 %)
    e-/hole pair  5:  ampl =  0.1695   ( 2.9 %)
  These amplitudes account for 95.0 % of total amplitude

  Excited state 70:  10.6204 eV (singlet)
    e-/hole pair  1:  ampl =  0.8089   (65.5 %)
    e-/hole pair  2:  ampl =  0.3428   (11.8 %)
    e-/hole pair  3:  ampl =  0.2654   ( 7.1 %)
    e-/hole pair  4:  ampl =  0.2337   ( 5.5 %)
    e-/hole pair  5:  ampl =  0.1734   ( 3.0 %)
    e-/hole pair  6:  ampl =  0.1655   ( 2.7 %)
  These amplitudes account for 95.5 % of total amplitude

  Excited state 71:  10.6380 eV (singlet)
    e-/hole pair  1:  ampl =  0.6916   (48.1 %)
    e-/hole pair  2:  ampl =  0.4408   (19.5 %)
    e-/hole pair  3:  ampl =  0.3600   (13.0 %)
    e-/hole pair  4:  ampl =  0.2665   ( 7.1 %)
    e-/hole pair  5:  ampl =  0.2068   ( 4.3 %)
    e-/hole pair  6:  ampl =  0.1775   ( 3.2 %)
    e-/hole pair  7:  ampl =  0.1518   ( 2.3 %)
  These amplitudes account for 97.5 % of total amplitude

  Excited state 72:  10.6838 eV (singlet)
    e-/hole pair  1:  ampl =  0.6773   (46.0 %)
    e-/hole pair  2:  ampl =  0.4387   (19.3 %)
    e-/hole pair  3:  ampl =  0.3742   (14.0 %)
    e-/hole pair  4:  ampl =  0.2895   ( 8.4 %)
    e-/hole pair  5:  ampl =  0.2172   ( 4.7 %)
    e-/hole pair  6:  ampl =  0.1655   ( 2.7 %)
  These amplitudes account for 95.2 % of total amplitude

  Excited state 73:  10.6932 eV (singlet)
    e-/hole pair  1:  ampl =  0.7810   (61.1 %)
    e-/hole pair  2:  ampl =  0.3914   (15.3 %)
    e-/hole pair  3:  ampl =  0.3070   ( 9.4 %)
    e-/hole pair  4:  ampl =  0.2302   ( 5.3 %)
    e-/hole pair  5:  ampl =  0.1592   ( 2.5 %)
  These amplitudes account for 93.7 % of total amplitude

  Excited state 74:  10.7312 eV (singlet)
    e-/hole pair  1:  ampl =  0.6348   (40.4 %)
    e-/hole pair  2:  ampl =  0.5023   (25.3 %)
    e-/hole pair  3:  ampl =  0.4212   (17.8 %)
    e-/hole pair  4:  ampl =  0.2660   ( 7.1 %)
    e-/hole pair  5:  ampl =  0.2119   ( 4.5 %)
  These amplitudes account for 95.0 % of total amplitude

  Excited state 75:  10.7829 eV (singlet)
    e-/hole pair  1:  ampl =  0.6157   (38.1 %)
    e-/hole pair  2:  ampl =  0.5080   (25.9 %)
    e-/hole pair  3:  ampl =  0.3118   ( 9.8 %)
    e-/hole pair  4:  ampl =  0.2739   ( 7.5 %)
    e-/hole pair  5:  ampl =  0.2484   ( 6.2 %)
    e-/hole pair  6:  ampl =  0.1965   ( 3.9 %)
    e-/hole pair  7:  ampl =  0.1754   ( 3.1 %)
    e-/hole pair  8:  ampl =  0.1631   ( 2.7 %)
  These amplitudes account for 97.1 % of total amplitude

  Excited state 76:  10.7925 eV (singlet)
    e-/hole pair  1:  ampl =  0.5932   (35.3 %)
    e-/hole pair  2:  ampl =  0.4271   (18.3 %)
    e-/hole pair  3:  ampl =  0.3865   (15.0 %)
    e-/hole pair  4:  ampl =  0.3376   (11.4 %)
    e-/hole pair  5:  ampl =  0.2372   ( 5.6 %)
    e-/hole pair  6:  ampl =  0.2081   ( 4.3 %)
    e-/hole pair  7:  ampl =  0.1854   ( 3.4 %)
    e-/hole pair  8:  ampl =  0.1674   ( 2.8 %)
  These amplitudes account for 96.2 % of total amplitude

  Excited state 77:  10.8227 eV (singlet)
    e-/hole pair  1:  ampl =  0.5876   (34.6 %)
    e-/hole pair  2:  ampl =  0.4734   (22.4 %)
    e-/hole pair  3:  ampl =  0.3596   (12.9 %)
    e-/hole pair  4:  ampl =  0.3383   (11.5 %)
    e-/hole pair  5:  ampl =  0.2966   ( 8.8 %)
    e-/hole pair  6:  ampl =  0.1891   ( 3.6 %)
    e-/hole pair  7:  ampl =  0.1780   ( 3.2 %)
  These amplitudes account for 96.9 % of total amplitude

  Excited state 78:  10.8393 eV (singlet)
    e-/hole pair  1:  ampl =  0.5582   (31.2 %)
    e-/hole pair  2:  ampl =  0.4670   (21.8 %)
    e-/hole pair  3:  ampl =  0.3889   (15.2 %)
    e-/hole pair  4:  ampl =  0.3635   (13.2 %)
    e-/hole pair  5:  ampl =  0.2387   ( 5.7 %)
    e-/hole pair  6:  ampl =  0.2031   ( 4.1 %)
    e-/hole pair  7:  ampl =  0.1749   ( 3.1 %)
    e-/hole pair  8:  ampl =  0.1661   ( 2.8 %)
  These amplitudes account for 97.1 % of total amplitude

  Excited state 79:  10.8655 eV (singlet)
    e-/hole pair  1:  ampl =  0.5479   (30.2 %)
    e-/hole pair  2:  ampl =  0.4436   (19.8 %)
    e-/hole pair  3:  ampl =  0.4266   (18.3 %)
    e-/hole pair  4:  ampl =  0.3728   (14.0 %)
    e-/hole pair  5:  ampl =  0.2586   ( 6.7 %)
    e-/hole pair  6:  ampl =  0.2182   ( 4.8 %)
  These amplitudes account for 93.7 % of total amplitude

  Excited state 80:  10.8750 eV (singlet)
    e-/hole pair  1:  ampl =  0.6597   (43.5 %)
    e-/hole pair  2:  ampl =  0.5471   (29.9 %)
    e-/hole pair  3:  ampl =  0.3472   (12.0 %)
    e-/hole pair  4:  ampl =  0.2759   ( 7.6 %)
    e-/hole pair  5:  ampl =  0.1786   ( 3.2 %)
  These amplitudes account for 96.3 % of total amplitude

  Excited state 81:  10.9039 eV (singlet)
    e-/hole pair  1:  ampl =  0.7658   (58.8 %)
    e-/hole pair  2:  ampl =  0.4380   (19.2 %)
    e-/hole pair  3:  ampl =  0.3507   (12.3 %)
    e-/hole pair  4:  ampl =  0.2057   ( 4.2 %)
  These amplitudes account for 94.6 % of total amplitude

  Excited state 82:  10.9699 eV (singlet)
    e-/hole pair  1:  ampl =  0.8699   (75.8 %)
    e-/hole pair  2:  ampl =  0.3856   (14.9 %)
    e-/hole pair  3:  ampl =  0.1751   ( 3.1 %)
  These amplitudes account for 93.8 % of total amplitude

  Excited state 83:  11.0233 eV (singlet)
    e-/hole pair  1:  ampl =  0.6966   (48.9 %)
    e-/hole pair  2:  ampl =  0.3969   (15.9 %)
    e-/hole pair  3:  ampl =  0.3516   (12.5 %)
    e-/hole pair  4:  ampl =  0.3151   (10.0 %)
    e-/hole pair  5:  ampl =  0.2091   ( 4.4 %)
    e-/hole pair  6:  ampl =  0.1553   ( 2.4 %)
  These amplitudes account for 94.1 % of total amplitude

  Excited state 84:  11.0537 eV (singlet)
    e-/hole pair  1:  ampl =  0.5356   (28.8 %)
    e-/hole pair  2:  ampl =  0.5038   (25.5 %)
    e-/hole pair  3:  ampl =  0.4420   (19.6 %)
    e-/hole pair  4:  ampl =  0.2927   ( 8.6 %)
    e-/hole pair  5:  ampl =  0.2111   ( 4.5 %)
    e-/hole pair  6:  ampl =  0.2021   ( 4.1 %)
    e-/hole pair  7:  ampl =  0.1722   ( 3.0 %)
    e-/hole pair  8:  ampl =  0.1650   ( 2.7 %)
  These amplitudes account for 96.8 % of total amplitude

  Excited state 85:  11.0870 eV (singlet)
    e-/hole pair  1:  ampl =  0.8689   (75.5 %)
    e-/hole pair  2:  ampl =  0.2685   ( 7.2 %)
    e-/hole pair  3:  ampl =  0.2620   ( 6.9 %)
    e-/hole pair  4:  ampl =  0.1897   ( 3.6 %)
    e-/hole pair  5:  ampl =  0.1758   ( 3.1 %)
  These amplitudes account for 96.3 % of total amplitude

  Excited state 86:  11.1084 eV (singlet)
    e-/hole pair  1:  ampl =  0.6863   (47.4 %)
    e-/hole pair  2:  ampl =  0.4508   (20.5 %)
    e-/hole pair  3:  ampl =  0.3005   ( 9.1 %)
    e-/hole pair  4:  ampl =  0.2499   ( 6.3 %)
    e-/hole pair  5:  ampl =  0.2194   ( 4.8 %)
    e-/hole pair  6:  ampl =  0.1991   ( 4.0 %)
    e-/hole pair  7:  ampl =  0.1665   ( 2.8 %)
    e-/hole pair  8:  ampl =  0.1600   ( 2.6 %)
  These amplitudes account for 97.5 % of total amplitude

  Excited state 87:  11.1319 eV (singlet)
    e-/hole pair  1:  ampl =  0.5515   (30.5 %)
    e-/hole pair  2:  ampl =  0.4548   (20.7 %)
    e-/hole pair  3:  ampl =  0.4227   (17.9 %)
    e-/hole pair  4:  ampl =  0.3729   (13.9 %)
    e-/hole pair  5:  ampl =  0.2925   ( 8.6 %)
    e-/hole pair  6:  ampl =  0.1802   ( 3.3 %)
    e-/hole pair  7:  ampl =  0.1514   ( 2.3 %)
  These amplitudes account for 97.1 % of total amplitude

  Excited state 88:  11.1723 eV (singlet)
    e-/hole pair  1:  ampl =  0.7020   (49.5 %)
    e-/hole pair  2:  ampl =  0.5357   (28.8 %)
    e-/hole pair  3:  ampl =  0.2645   ( 7.0 %)
    e-/hole pair  4:  ampl =  0.2394   ( 5.8 %)
    e-/hole pair  5:  ampl =  0.2018   ( 4.1 %)
  These amplitudes account for 95.1 % of total amplitude

  Excited state 89:  11.2116 eV (singlet)
    e-/hole pair  1:  ampl =  0.6087   (37.0 %)
    e-/hole pair  2:  ampl =  0.5059   (25.6 %)
    e-/hole pair  3:  ampl =  0.3800   (14.4 %)
    e-/hole pair  4:  ampl =  0.3159   (10.0 %)
    e-/hole pair  5:  ampl =  0.2423   ( 5.9 %)
    e-/hole pair  6:  ampl =  0.1846   ( 3.4 %)
  These amplitudes account for 96.3 % of total amplitude

  Excited state 90:  11.2182 eV (singlet)
    e-/hole pair  1:  ampl =  0.6884   (47.6 %)
    e-/hole pair  2:  ampl =  0.5562   (31.1 %)
    e-/hole pair  3:  ampl =  0.2775   ( 7.7 %)
    e-/hole pair  4:  ampl =  0.2095   ( 4.4 %)
    e-/hole pair  5:  ampl =  0.1788   ( 3.2 %)
    e-/hole pair  6:  ampl =  0.1528   ( 2.3 %)
  These amplitudes account for 96.3 % of total amplitude

  Excited state 91:  11.2819 eV (singlet)
    e-/hole pair  1:  ampl =  0.5614   (31.8 %)
    e-/hole pair  2:  ampl =  0.4280   (18.5 %)
    e-/hole pair  3:  ampl =  0.3819   (14.7 %)
    e-/hole pair  4:  ampl =  0.3005   ( 9.1 %)
    e-/hole pair  5:  ampl =  0.2796   ( 7.9 %)
    e-/hole pair  6:  ampl =  0.2474   ( 6.2 %)
    e-/hole pair  7:  ampl =  0.2149   ( 4.7 %)
    e-/hole pair  8:  ampl =  0.1874   ( 3.5 %)
    e-/hole pair  9:  ampl =  0.1502   ( 2.3 %)
  These amplitudes account for 98.7 % of total amplitude

  Excited state 92:  11.3095 eV (singlet)
    e-/hole pair  1:  ampl =  0.5875   (34.7 %)
    e-/hole pair  2:  ampl =  0.4160   (17.4 %)
    e-/hole pair  3:  ampl =  0.3821   (14.7 %)
    e-/hole pair  4:  ampl =  0.3280   (10.8 %)
    e-/hole pair  5:  ampl =  0.3069   ( 9.5 %)
    e-/hole pair  6:  ampl =  0.2198   ( 4.9 %)
    e-/hole pair  7:  ampl =  0.1965   ( 3.9 %)
  These amplitudes account for 95.9 % of total amplitude

  Excited state 93:  11.3116 eV (singlet)
    e-/hole pair  1:  ampl =  0.5695   (32.5 %)
    e-/hole pair  2:  ampl =  0.4987   (25.0 %)
    e-/hole pair  3:  ampl =  0.3866   (15.0 %)
    e-/hole pair  4:  ampl =  0.3200   (10.3 %)
    e-/hole pair  5:  ampl =  0.3024   ( 9.2 %)
    e-/hole pair  6:  ampl =  0.1611   ( 2.6 %)
    e-/hole pair  7:  ampl =  0.1566   ( 2.5 %)
  These amplitudes account for 97.0 % of total amplitude

  Excited state 94:  11.3507 eV (singlet)
    e-/hole pair  1:  ampl =  0.8201   (67.4 %)
    e-/hole pair  2:  ampl =  0.3276   (10.8 %)
    e-/hole pair  3:  ampl =  0.2592   ( 6.7 %)
    e-/hole pair  4:  ampl =  0.2425   ( 5.9 %)
    e-/hole pair  5:  ampl =  0.1788   ( 3.2 %)
  These amplitudes account for 94.0 % of total amplitude

  Excited state 95:  11.3606 eV (singlet)
    e-/hole pair  1:  ampl =  0.8083   (65.5 %)
    e-/hole pair  2:  ampl =  0.4190   (17.6 %)
    e-/hole pair  3:  ampl =  0.2602   ( 6.8 %)
    e-/hole pair  4:  ampl =  0.1936   ( 3.8 %)
    e-/hole pair  5:  ampl =  0.1660   ( 2.8 %)
  These amplitudes account for 96.3 % of total amplitude

  Excited state 96:  11.4083 eV (singlet)
    e-/hole pair  1:  ampl =  0.5585   (31.7 %)
    e-/hole pair  2:  ampl =  0.4562   (21.1 %)
    e-/hole pair  3:  ampl =  0.3758   (14.3 %)
    e-/hole pair  4:  ampl =  0.3657   (13.6 %)
    e-/hole pair  5:  ampl =  0.2400   ( 5.8 %)
    e-/hole pair  6:  ampl =  0.1985   ( 4.0 %)
    e-/hole pair  7:  ampl =  0.1769   ( 3.2 %)
  These amplitudes account for 93.8 % of total amplitude

  Excited state 97:  11.4640 eV (singlet)
    e-/hole pair  1:  ampl =  0.6101   (37.3 %)
    e-/hole pair  2:  ampl =  0.5670   (32.2 %)
    e-/hole pair  3:  ampl =  0.3543   (12.6 %)
    e-/hole pair  4:  ampl =  0.2564   ( 6.6 %)
    e-/hole pair  5:  ampl =  0.2054   ( 4.2 %)
    e-/hole pair  6:  ampl =  0.1583   ( 2.5 %)
  These amplitudes account for 95.4 % of total amplitude

  Excited state 98:  11.4793 eV (singlet)
    e-/hole pair  1:  ampl =  0.7798   (60.9 %)
    e-/hole pair  2:  ampl =  0.4266   (18.2 %)
    e-/hole pair  3:  ampl =  0.2805   ( 7.9 %)
    e-/hole pair  4:  ampl =  0.2027   ( 4.1 %)
    e-/hole pair  5:  ampl =  0.1819   ( 3.3 %)
  These amplitudes account for 94.5 % of total amplitude

  Excited state 99:  11.5118 eV (singlet)
    e-/hole pair  1:  ampl =  0.6731   (45.6 %)
    e-/hole pair  2:  ampl =  0.4538   (20.7 %)
    e-/hole pair  3:  ampl =  0.3073   ( 9.5 %)
    e-/hole pair  4:  ampl =  0.2591   ( 6.8 %)
    e-/hole pair  5:  ampl =  0.2291   ( 5.3 %)
    e-/hole pair  6:  ampl =  0.2061   ( 4.3 %)
    e-/hole pair  7:  ampl =  0.1933   ( 3.8 %)
  These amplitudes account for 95.8 % of total amplitude

  Excited state 100:  11.5327 eV (singlet)
    e-/hole pair  1:  ampl =  0.6766   (45.9 %)
    e-/hole pair  2:  ampl =  0.4351   (19.0 %)
    e-/hole pair  3:  ampl =  0.4041   (16.4 %)
    e-/hole pair  4:  ampl =  0.2938   ( 8.6 %)
    e-/hole pair  5:  ampl =  0.1730   ( 3.0 %)
    e-/hole pair  6:  ampl =  0.1517   ( 2.3 %)
  These amplitudes account for 95.2 % of total amplitude

 =======================================================
 
 --------------------------------------------------------------
 
                    Orbital Energies (a.u.)
 --------------------------------------------------------------
 
 Alpha MOs
 -- Occupied --
******** -62.8610 -56.6580 -56.6523 -56.6523 -19.4558 -19.4551 -14.8512
-10.5807 -10.5726 -10.5694 -10.5675 -10.5649 -10.5270  -9.0182  -6.8449
 -6.8264  -6.8262  -2.9439  -2.9391  -2.9389  -2.9240  -2.9240  -1.4942
 -1.3239  -1.2241  -1.1383  -1.1151  -1.0420  -1.0080  -0.9522  -0.9071
 -0.8504  -0.8052  -0.8041  -0.7976  -0.7806  -0.7587  -0.7568  -0.7206
 -0.6911  -0.6731  -0.6345  -0.5991  -0.5693  -0.5623  -0.5592  -0.5539
 -0.5502
 -- Virtual --
 -0.2939  -0.2108  -0.1542  -0.1315  -0.0846  -0.0591  -0.0539  -0.0457
 -0.0425  -0.0296  -0.0226  -0.0214  -0.0091  -0.0054   0.0096   0.0124
  0.0189   0.0219   0.0280   0.0321   0.0467   0.0499   0.0524   0.0613
  0.0692   0.0730   0.0749   0.0788   0.0889   0.0960   0.1075   0.1111
  0.1130   0.1216   0.1270   0.1280   0.1320   0.1387   0.1535   0.1636
  0.1664   0.1734   0.1785   0.1863   0.1906   0.1965   0.2106   0.2159
  0.2201   0.2455   0.2543   0.2789   0.2840   0.2955   0.3244   0.3340
  0.3376   0.3451   0.3496   0.3622   0.3736   0.3802   0.3909   0.4094
  0.4106   0.4262   0.4348   0.4427   0.4634   0.4703   0.4780   0.4827
  0.5095   0.5134   0.5367   0.5397   0.5450   0.5670   0.5685   0.5931
  0.6060   0.6172   0.6214   0.6629   0.6877   0.7023   0.7196   0.7264
  0.7299   0.7408   0.7458   0.7930   0.7955   0.8176   0.8503   0.8649
  0.8821   0.9167   0.9282   0.9865   0.9977   1.0121   1.0479   1.0551
  1.0668   1.0940   1.1107   1.1220   1.1270   1.1441   1.2220   1.2465
  1.2686   1.3308   1.3668   1.3702   1.3807   1.4519   1.5455   1.5727
  1.5865   1.5901   1.6084   1.6258   1.6654   1.6932   1.6989   1.7379
  1.7541   1.7921   1.8129   1.8563   1.8758   1.9462   1.9659   1.9833
  2.0314   2.0408   2.0737   2.0840   2.0997   2.1491   2.2056   2.2281
  2.2944   2.3780   2.4133   2.4288   2.4399   2.5238   2.5683   2.6315
  2.6627   2.6835   2.7191   2.7360   2.7669   2.7758   2.8125   2.8209
  2.9386   2.9654   3.0086   3.0593   3.0909   3.1309   3.1511   3.1931
  3.2386   3.2446   3.2754   3.3930   3.4777   3.5143   3.5465   3.5702
  3.7013   3.7431   3.8240   3.8728   3.9618   3.9657   4.0413   4.0907
  4.2868   4.4452   4.5733   4.6002   4.9341   4.9605   5.0471   5.0886
  5.6301   6.1595   6.6502   7.4900   7.5036   7.6033  23.2196  23.6159
 23.6988  23.7978  23.9633  24.0169  35.3304  47.9154  49.8626  49.9506
289.8192 289.8334 289.96101020.9199
 --------------------------------------------------------------
 
          Ground-State Mulliken Net Atomic Charges

     Atom                 Charge (a.u.)
  ----------------------------------------
      1 C                    -0.608977
      2 C                     0.540091
      3 C                    -0.744952
      4 C                     0.293047
      5 C                     0.023146
      6 H                     0.334041
      7 H                     0.366266
      8 H                     0.371982
      9 H                     0.348790
     10 N                    -0.110606
     11 O                     0.032536
     12 O                     0.027831
     13 C                    -0.409567
     14 H                     0.397667
     15 Br                    0.138704
  ----------------------------------------
  Sum of atomic charges =     1.000000

 -----------------------------------------------------------------
                    Cartesian Multipole Moments
 -----------------------------------------------------------------
    Charge (ESU x 10^10)
                 4.8032
    Dipole Moment (Debye)
         X      -0.8352      Y      -0.5969      Z      -0.0313
       Tot       1.0270
    Quadrupole Moments (Debye-Ang)
        XX     -71.2642     XY       1.3103     YY     -51.9611
        XZ       1.1277     YZ       1.7047     ZZ     -62.5628
    Octopole Moments (Debye-Ang^2)
       XXX    -299.5928    XXY      30.0163    XYY     -76.1647
       YYY      87.4687    XXZ      32.2060    XYZ      -3.4298
       YYZ      25.2227    XZZ     -78.2047    YZZ      16.0510
       ZZZ      77.1135
    Hexadecapole Moments (Debye-Ang^3)
      XXXX   -2279.5841   XXXY     -68.3976   XXYY    -456.1305
      XYYY     -59.5067   YYYY    -676.1627   XXXZ     -21.5087
      XXYZ     -54.4780   XYYZ      -1.9198   YYYZ    -154.8532
      XXZZ    -370.2110   XYZZ      -8.3720   YYZZ    -162.6707
      XZZZ     -18.0212   YZZZ    -134.8576   ZZZZ    -346.8110
 -----------------------------------------------------------------
Grid information in Angstroms:
 x:         75  min =  -4.771635 max =   7.147118
 y:         75  min =  -5.076432 max =   5.298397
 z:         75  min =  -4.740787 max =   3.788896
 Plotting NTOs for the following states:  1 2 3 4 5 6 7 8 9 10 11 12 13 14 15 16 17 18 19 20 21 22 23 24 25 26 27 28 29 30 31 32 33 34 35 36 37 38 39 40 41 42 43 44 45 46 47 48 49 50 51 52 53 54 55 56 57 58 59 60 61 62 63 64 65 66 67 68 69 70 71 72 73 74 75 76 77 78 79 80 81 82 83 84 85 86 87 88 89 90 91 92 93 94 95 96 97 98 99 100
 Created directory /local_scratch/16284720/QCLOCALSCR/save/plots
 Plotting total densities:  0 1 2 3 4 5 6 7 8 9 10 11 12 13 14 15 16 17 18 19 20 21 22 23 24 25 26 27 28 29 30 31 32 33 34 35 36 37 38 39 40 41 42 43 44 45 46 47 48 49 50 51 52 53 54 55 56 57 58 59 60 61 62 63 64 65 66 67 68 69 70 71 72 73 74 75 76 77 78 79 80 81 82 83 84 85 86 87 88 89 90 91 92 93 94 95 96 97 98 99 100
 Plotting transition densities:  1 2 3 4 5 6 7 8 9 10 11 12 13 14 15 16 17 18 19 20 21 22 23 24 25 26 27 28 29 30 31 32 33 34 35 36 37 38 39 40 41 42 43 44 45 46 47 48 49 50 51 52 53 54 55 56 57 58 59 60 61 62 63 64 65 66 67 68 69 70 71 72 73 74 75 76 77 78 79 80 81 82 83 84 85 86 87 88 89 90 91 92 93 94 95 96 97 98 99 100
 Total job time:  1322.37s(wall), 13297.05s(cpu) 
 Wed Apr 26 09:39:46 2023

        *************************************************************
        *                                                           *
        *  Thank you very much for using Q-Chem.  Have a nice day.  *
        *                                                           *
        *************************************************************


