 Entering Gaussian System, Link 0=g16
 Initial command:
 /software/gaussian/g16-c01/sse4/g16/l1.exe "/local_scratch/24657467/Gau-5530.inp" -scrdir="/local_scratch/24657467/"
 Entering Link 1 = /software/gaussian/g16-c01/sse4/g16/l1.exe PID=      5534.
  
 Copyright (c) 1988-2019, Gaussian, Inc.  All Rights Reserved.
  
 This is part of the Gaussian(R) 16 program.  It is based on
 the Gaussian(R) 09 system (copyright 2009, Gaussian, Inc.),
 the Gaussian(R) 03 system (copyright 2003, Gaussian, Inc.),
 the Gaussian(R) 98 system (copyright 1998, Gaussian, Inc.),
 the Gaussian(R) 94 system (copyright 1995, Gaussian, Inc.),
 the Gaussian 92(TM) system (copyright 1992, Gaussian, Inc.),
 the Gaussian 90(TM) system (copyright 1990, Gaussian, Inc.),
 the Gaussian 88(TM) system (copyright 1988, Gaussian, Inc.),
 the Gaussian 86(TM) system (copyright 1986, Carnegie Mellon
 University), and the Gaussian 82(TM) system (copyright 1983,
 Carnegie Mellon University). Gaussian is a federally registered
 trademark of Gaussian, Inc.
  
 This software contains proprietary and confidential information,
 including trade secrets, belonging to Gaussian, Inc.
  
 This software is provided under written license and may be
 used, copied, transmitted, or stored only in accord with that
 written license.
  
 The following legend is applicable only to US Government
 contracts under FAR:
  
                    RESTRICTED RIGHTS LEGEND
  
 Use, reproduction and disclosure by the US Government is
 subject to restrictions as set forth in subparagraphs (a)
 and (c) of the Commercial Computer Software - Restricted
 Rights clause in FAR 52.227-19.
  
 Gaussian, Inc.
 340 Quinnipiac St., Bldg. 40, Wallingford CT 06492
  
  
 ---------------------------------------------------------------
 Warning -- This program may not be used in any manner that
 competes with the business of Gaussian, Inc. or will provide
 assistance to any competitor of Gaussian, Inc.  The licensee
 of this program is prohibited from giving any competitor of
 Gaussian, Inc. access to this program.  By using this program,
 the user acknowledges that Gaussian, Inc. is engaged in the
 business of creating and licensing software in the field of
 computational chemistry and represents and warrants to the
 licensee that it is not a competitor of Gaussian, Inc. and that
 it will not use this program in any manner prohibited above.
 ---------------------------------------------------------------
  

 Cite this work as:
 Gaussian 16, Revision C.01,
 M. J. Frisch, G. W. Trucks, H. B. Schlegel, G. E. Scuseria, 
 M. A. Robb, J. R. Cheeseman, G. Scalmani, V. Barone, 
 G. A. Petersson, H. Nakatsuji, X. Li, M. Caricato, A. V. Marenich, 
 J. Bloino, B. G. Janesko, R. Gomperts, B. Mennucci, H. P. Hratchian, 
 J. V. Ortiz, A. F. Izmaylov, J. L. Sonnenberg, D. Williams-Young, 
 F. Ding, F. Lipparini, F. Egidi, J. Goings, B. Peng, A. Petrone, 
 T. Henderson, D. Ranasinghe, V. G. Zakrzewski, J. Gao, N. Rega, 
 G. Zheng, W. Liang, M. Hada, M. Ehara, K. Toyota, R. Fukuda, 
 J. Hasegawa, M. Ishida, T. Nakajima, Y. Honda, O. Kitao, H. Nakai, 
 T. Vreven, K. Throssell, J. A. Montgomery, Jr., J. E. Peralta, 
 F. Ogliaro, M. J. Bearpark, J. J. Heyd, E. N. Brothers, K. N. Kudin, 
 V. N. Staroverov, T. A. Keith, R. Kobayashi, J. Normand, 
 K. Raghavachari, A. P. Rendell, J. C. Burant, S. S. Iyengar, 
 J. Tomasi, M. Cossi, J. M. Millam, M. Klene, C. Adamo, R. Cammi, 
 J. W. Ochterski, R. L. Martin, K. Morokuma, O. Farkas, 
 J. B. Foresman, and D. J. Fox, Gaussian, Inc., Wallingford CT, 2019.
 
 ******************************************
 Gaussian 16:  ES64L-G16RevC.01  3-Jul-2019
                 1-May-2024 
 ******************************************
 %chk=geometry.chk
 %mem=9GB
 %nprocshared=12
 Will use up to   12 processors via shared memory.
 ----------------------------------------
 #P wB97XD/6-311+G* NoSymm #P Field=X+252
 ----------------------------------------
 1/38=1,172=1/1;
 2/12=2,15=1,17=6,18=5,40=1/2;
 3/5=4,6=6,7=11,11=2,14=1,15=252,25=1,30=1,74=-58/1,2,3;
 4//1;
 5/5=2,38=5/2;
 6/7=2,8=2,9=2,10=2,28=1/1;
 99/5=1,9=1/99;
 Leave Link    1 at Wed May  1 14:27:50 2024, MaxMem=  1207959552 cpu:               5.0 elap:               5.0
 (Enter /software/gaussian/g16-c01/sse4/g16/l101.exe)
 -------
 TitleMe
 -------
 Symbolic Z-matrix:
 Charge =  1 Multiplicity = 1
 C                     0.0295    1.3397    0.0682 
 C                     1.4348    1.2867    0.0064 
 C                     2.1118    0.0511   -0.0054 
 C                     1.4451   -1.1372    0.0312 
 C                    -0.6879    0.1682    0.11 
 H                    -0.4713    2.2984    0.0781 
 H                     2.0273    2.1965   -0.0322 
 H                     1.9897   -2.0764    0.0232 
 H                    -1.7716    0.1804    0.1582 
 N                     3.5864    0.051    -0.0675 
 O                     4.1471   -1.0597   -0.0881 
 O                     4.145     1.1639   -0.0901 
 C                    -0.0236   -1.1458    0.0835 
 H                    -0.4367   -1.8725    0.7889 
 Br                   -0.5359   -1.8697   -1.7408 
 
 ITRead=  0  0  0  0  0  0  0  0  0  0  0  0  0  0  0
 MicOpt= -1 -1 -1 -1 -1 -1 -1 -1 -1 -1 -1 -1 -1 -1 -1
 NAtoms=     15 NQM=       15 NQMF=       0 NMMI=      0 NMMIF=      0
                NMic=       0 NMicF=      0.
                    Isotopes and Nuclear Properties:
 (Nuclear quadrupole moments (NQMom) in fm**2, nuclear magnetic moments (NMagM)
  in nuclear magnetons)

  Atom         1           2           3           4           5           6           7           8           9          10
 IAtWgt=          12          12          12          12          12           1           1           1           1          14
 AtmWgt=  12.0000000  12.0000000  12.0000000  12.0000000  12.0000000   1.0078250   1.0078250   1.0078250   1.0078250  14.0030740
 NucSpn=           0           0           0           0           0           1           1           1           1           2
 AtZEff=  -0.0000000  -0.0000000  -0.0000000  -0.0000000  -0.0000000  -0.0000000  -0.0000000  -0.0000000  -0.0000000  -0.0000000
 NQMom=    0.0000000   0.0000000   0.0000000   0.0000000   0.0000000   0.0000000   0.0000000   0.0000000   0.0000000   2.0440000
 NMagM=    0.0000000   0.0000000   0.0000000   0.0000000   0.0000000   2.7928460   2.7928460   2.7928460   2.7928460   0.4037610
 AtZNuc=   6.0000000   6.0000000   6.0000000   6.0000000   6.0000000   1.0000000   1.0000000   1.0000000   1.0000000   7.0000000

  Atom        11          12          13          14          15
 IAtWgt=          16          16          12           1          79
 AtmWgt=  15.9949146  15.9949146  12.0000000   1.0078250  78.9183361
 NucSpn=           0           0           0           1           3
 AtZEff=  -0.0000000  -0.0000000  -0.0000000  -0.0000000  -0.0000000
 NQMom=    0.0000000   0.0000000   0.0000000   0.0000000  31.3000000
 NMagM=    0.0000000   0.0000000   0.0000000   2.7928460   2.1063990
 AtZNuc=   8.0000000   8.0000000   6.0000000   1.0000000  35.0000000
 Leave Link  101 at Wed May  1 14:27:56 2024, MaxMem=  1207959552 cpu:               3.1 elap:               3.5
 (Enter /software/gaussian/g16-c01/sse4/g16/l202.exe)
                          Input orientation:                          
 ---------------------------------------------------------------------
 Center     Atomic      Atomic             Coordinates (Angstroms)
 Number     Number       Type             X           Y           Z
 ---------------------------------------------------------------------
      1          6           0        0.029500    1.339700    0.068200
      2          6           0        1.434800    1.286700    0.006400
      3          6           0        2.111800    0.051100   -0.005400
      4          6           0        1.445100   -1.137200    0.031200
      5          6           0       -0.687900    0.168200    0.110000
      6          1           0       -0.471300    2.298400    0.078100
      7          1           0        2.027300    2.196500   -0.032200
      8          1           0        1.989700   -2.076400    0.023200
      9          1           0       -1.771600    0.180400    0.158200
     10          7           0        3.586400    0.051000   -0.067500
     11          8           0        4.147100   -1.059700   -0.088100
     12          8           0        4.145000    1.163900   -0.090100
     13          6           0       -0.023600   -1.145800    0.083500
     14          1           0       -0.436700   -1.872500    0.788900
     15         35           0       -0.535900   -1.869700   -1.740800
 ---------------------------------------------------------------------
                    Distance matrix (angstroms):
                    1          2          3          4          5
     1  C    0.000000
     2  C    1.407656   0.000000
     3  C    2.449874   1.408963   0.000000
     4  C    2.853126   2.424049   1.363043   0.000000
     5  C    1.374344   2.401589   2.804523   2.501993   0.000000
     6  H    1.081667   2.159142   3.424870   3.934226   2.141421
     7  H    2.176095   1.086408   2.147231   3.384750   3.392128
     8  H    3.938800   3.408612   2.131193   1.085702   3.495040
     9  H    2.143837   3.395283   3.888995   3.478413   1.084840
    10  N    3.785591   2.482297   1.475907   2.450862   4.279589
    11  O    4.768247   3.587631   2.320164   2.705743   4.992415
    12  O    4.122294   2.714696   2.319353   3.549540   4.938459
    13  C    2.486114   2.837240   2.449573   1.469656   1.472614
    14  H    3.324903   3.754379   3.290289   2.157764   2.165286
    15  Br   3.727252   4.110867   3.702891   2.756973   2.757100
                    6          7          8          9         10
     6  H    0.000000
     7  H    2.503108   0.000000
     8  H    5.019802   4.273425   0.000000
     9  H    2.486588   4.304945   4.388479   0.000000
    10  N    4.640790   2.652397   2.661486   5.364313   0.000000
    11  O    5.712624   3.885809   2.387560   6.052233   1.244373
    12  O    4.756638   2.356750   3.893289   6.002923   1.245428
    13  C    3.473180   3.923079   2.218790   2.195425   3.806210
    14  H    4.231175   4.827242   2.552506   2.528663   4.540772
    15  Br   4.548146   5.101303   3.087568   3.055498   4.845862
                   11         12         13         14         15
    11  O    0.000000
    12  O    2.223602   0.000000
    13  C    4.175117   4.768865   0.000000
    14  H    4.737193   5.566358   1.093770   0.000000
    15  Br   5.031700   5.817075   2.028436   2.531646   0.000000
 Symmetry turned off by external request.
 Stoichiometry    C6H5BrNO2(1+)
 Framework group  C1[X(C6H5BrNO2)]
 Deg. of freedom    39
 Full point group                 C1      NOp   1
 Rotational constants (GHZ):           1.8252210           0.5518633           0.4576002
 Leave Link  202 at Wed May  1 14:27:57 2024, MaxMem=  1207959552 cpu:               1.1 elap:               1.1
 (Enter /software/gaussian/g16-c01/sse4/g16/l301.exe)
 Standard basis: 6-311+G(d) (5D, 7F)
 Ernie: Thresh=  0.10000D-02 Tol=  0.10000D-05 Strict=F.
 The following finite field(s) will be applied:
 An electric field of              0.0252  0.0000  0.0000
   261 basis functions,   443 primitive gaussians,   273 cartesian basis functions
    49 alpha electrons       49 beta electrons
       nuclear repulsion energy       739.2122215416 Hartrees.
 IExCor= 4639 DFT=T Ex+Corr=wB97XD ExCW=0 ScaHFX=  1.000000
 ScaDFX=  1.000000  1.000000  1.000000  1.000000 ScalE2=  1.000000  1.000000
 IRadAn=      5 IRanWt=     -1 IRanGd=            0 ICorTp=0 IEmpDi=121
 HFx  wShort=  0.000000 wLong=  0.200000 cFull=  0.222036 cShort=  0.000000 cLong=  0.777964
 DFx  wShort=  0.000000 wLong=  0.200000 cFull=  0.000000 cShort=  0.000000 cLong=  1.000000
 NAtoms=   15 NActive=   15 NUniq=   15 SFac= 1.00D+00 NAtFMM=   60 NAOKFM=F Big=F
 Integral buffers will be    131072 words long.
 Raffenetti 2 integral format.
 Two-electron integral symmetry is turned off.
 R6Disp:  Grimme-D2 Dispersion energy=       -0.0077368520 Hartrees.
 Nuclear repulsion after empirical dispersion term =      739.2044846896 Hartrees.
 Leave Link  301 at Wed May  1 14:27:58 2024, MaxMem=  1207959552 cpu:               1.0 elap:               1.0
 (Enter /software/gaussian/g16-c01/sse4/g16/l302.exe)
 NPDir=0 NMtPBC=     1 NCelOv=     1 NCel=       1 NClECP=     1 NCelD=      1
         NCelK=      1 NCelE2=     1 NClLst=     1 CellRange=     0.0.
 One-electron integrals computed using PRISM.
 NBasis=   261 RedAO= T EigKep=  2.35D-06  NBF=   261
 NBsUse=   261 1.00D-06 EigRej= -1.00D+00 NBFU=   261
 Precomputing XC quadrature grid using
 IXCGrd= 4 IRadAn=           5 IRanWt=          -1 IRanGd=           0 AccXCQ= 0.00D+00.
 Generated NRdTot=       0 NPtTot=           0 NUsed=           0 NTot=          32
 NSgBfM=   273   273   273   273   273 MxSgAt=    15 MxSgA2=    15.
 Leave Link  302 at Wed May  1 14:28:20 2024, MaxMem=  1207959552 cpu:              21.9 elap:              21.9
 (Enter /software/gaussian/g16-c01/sse4/g16/l303.exe)
 DipDrv:  MaxL=1.
 The nuclear repulsion energy is now       743.9609133264 hartrees.
 Leave Link  303 at Wed May  1 14:28:23 2024, MaxMem=  1207959552 cpu:               3.2 elap:               3.2
 (Enter /software/gaussian/g16-c01/sse4/g16/l401.exe)
 ExpMin= 3.50D-02 ExpMax= 4.40D+05 ExpMxC= 1.51D+04 IAcc=3 IRadAn=         5 AccDes= 0.00D+00
 Harris functional with IExCor= 4639 and IRadAn=       5 diagonalized for initial guess.
 HarFok:  IExCor= 4639 AccDes= 0.00D+00 IRadAn=         5 IDoV= 1 UseB2=F ITyADJ=14
 ICtDFT=  3500011 ScaDFX=  1.000000  1.000000  1.000000  1.000000
 FoFCou: FMM=F IPFlag=           0 FMFlag=      100000 FMFlg1=           0
         NFxFlg=           0 DoJE=T BraDBF=F KetDBF=T FulRan=T
         wScrn=  0.000000 ICntrl=       500 IOpCl=  0 I1Cent=   200000004 NGrid=           0
         NMat0=    1 NMatS0=      1 NMatT0=    0 NMatD0=    1 NMtDS0=    0 NMtDT0=    0
 Symmetry not used in FoFCou.
 Harris En= -2970.69129177768    
 JPrj=0 DoOrth=F DoCkMO=F.
 Leave Link  401 at Wed May  1 14:28:55 2024, MaxMem=  1207959552 cpu:              30.8 elap:              30.8
 (Enter /software/gaussian/g16-c01/sse4/g16/l502.exe)
 Two-electron integral symmetry not used.
 Closed shell SCF:
 Using DIIS extrapolation, IDIIS=  1040.
 NGot=  1207959552 LenX=  1207804877 LenY=  1207729907
 Requested convergence on RMS density matrix=1.00D-08 within 128 cycles.
 Requested convergence on MAX density matrix=1.00D-06.
 Requested convergence on             energy=1.00D-06.
 No special actions if energy rises.
 Fock matrices will be formed incrementally for  20 cycles.

 Cycle   1  Pass 1  IDiag  1:
 FoFJK:  IHMeth= 1 ICntrl=       0 DoSepK=T KAlg= 0 I1Cent=           0 FoldK=F
 IRaf=         1 NMat=       1 IRICut=       1 DoRegI=T DoRafI=F ISym2E= 0 IDoP0=0 IntGTp=1.
 FoFCou: FMM=F IPFlag=           0 FMFlag=      100000 FMFlg1=           0
         NFxFlg=           0 DoJE=T BraDBF=F KetDBF=F FulRan=T
         wScrn=  0.000000 ICntrl=       500 IOpCl=  0 I1Cent=           0 NGrid=           0
         NMat0=    1 NMatS0=      1 NMatT0=    0 NMatD0=    1 NMtDS0=    0 NMtDT0=    0
 Symmetry not used in FoFCou.
 E= -3009.65694022183    
 DIIS: error= 3.21D-01 at cycle   1 NSaved=   1.
 NSaved= 1 IEnMin= 1 EnMin= -3009.65694022183     IErMin= 1 ErrMin= 3.21D-01
 ErrMax= 3.21D-01  0.00D+00 EMaxC= 1.00D-01 BMatC= 1.21D+01 BMatP= 1.21D+01
 IDIUse=3 WtCom= 0.00D+00 WtEn= 1.00D+00
 Coeff-Com:  0.100D+01
 Coeff-En:   0.100D+01
 Coeff:      0.100D+01
 Gap=     0.630 Goal=   None    Shift=    0.000
 GapD=    0.630 DampG=2.000 DampE=0.250 DampFc=0.5000 IDamp=-1.
 Damping current iteration by 5.00D-01
 RMSDP=1.05D-01 MaxDP=1.21D+01              OVMax= 2.82D-01

 Cycle   2  Pass 1  IDiag  1:
 RMSU=  1.22D-02    CP:  6.70D-01
 E= -3010.12050907138     Delta-E=       -0.463568849547 Rises=F Damp=T
 DIIS: error= 1.43D-01 at cycle   2 NSaved=   2.
 NSaved= 2 IEnMin= 2 EnMin= -3010.12050907138     IErMin= 2 ErrMin= 1.43D-01
 ErrMax= 1.43D-01  0.00D+00 EMaxC= 1.00D-01 BMatC= 1.75D+00 BMatP= 1.21D+01
 IDIUse=3 WtCom= 0.00D+00 WtEn= 1.00D+00
 Coeff-Com: -0.399D+00 0.140D+01
 Coeff-En:   0.000D+00 0.100D+01
 Coeff:      0.000D+00 0.100D+01
 Gap=     0.309 Goal=   None    Shift=    0.000
 RMSDP=4.80D-02 MaxDP=4.97D+00 DE=-4.64D-01 OVMax= 1.50D-01

 Cycle   3  Pass 1  IDiag  1:
 RMSU=  9.48D-03    CP:  3.65D-01  1.30D+00
 E= -3010.56655499526     Delta-E=       -0.446045923884 Rises=F Damp=F
 DIIS: error= 8.23D-03 at cycle   3 NSaved=   3.
 NSaved= 3 IEnMin= 3 EnMin= -3010.56655499526     IErMin= 3 ErrMin= 8.23D-03
 ErrMax= 8.23D-03  0.00D+00 EMaxC= 1.00D-01 BMatC= 2.91D-02 BMatP= 1.75D+00
 IDIUse=3 WtCom= 9.18D-01 WtEn= 8.23D-02
 Coeff-Com:  0.230D-01 0.134D-01 0.964D+00
 Coeff-En:   0.000D+00 0.000D+00 0.100D+01
 Coeff:      0.211D-01 0.123D-01 0.967D+00
 Gap=     0.254 Goal=   None    Shift=    0.000
 RMSDP=4.95D-03 MaxDP=3.54D-01 DE=-4.46D-01 OVMax= 5.17D-02

 Cycle   4  Pass 1  IDiag  1:
 RMSU=  4.69D-03    CP:  3.60D-01  1.35D+00  1.13D+00
 E= -3010.56427384492     Delta-E=        0.002281150343 Rises=F Damp=F
 DIIS: error= 1.31D-02 at cycle   4 NSaved=   4.
 NSaved= 4 IEnMin= 3 EnMin= -3010.56655499526     IErMin= 3 ErrMin= 8.23D-03
 ErrMax= 1.31D-02  0.00D+00 EMaxC= 1.00D-01 BMatC= 2.52D-02 BMatP= 2.91D-02
 IDIUse=3 WtCom= 8.69D-01 WtEn= 1.31D-01
 Coeff-Com:  0.219D-01-0.271D-01 0.528D+00 0.477D+00
 Coeff-En:   0.000D+00 0.000D+00 0.539D+00 0.461D+00
 Coeff:      0.190D-01-0.235D-01 0.529D+00 0.475D+00
 Gap=     0.245 Goal=   None    Shift=    0.000
 RMSDP=2.27D-03 MaxDP=2.47D-01 DE= 2.28D-03 OVMax= 3.55D-02

 Cycle   5  Pass 1  IDiag  1:
 RMSU=  1.14D-03    CP:  3.52D-01  1.28D+00  1.24D+00  8.52D-01
 E= -3010.58107378817     Delta-E=       -0.016799943259 Rises=F Damp=F
 DIIS: error= 1.78D-03 at cycle   5 NSaved=   5.
 NSaved= 5 IEnMin= 5 EnMin= -3010.58107378817     IErMin= 5 ErrMin= 1.78D-03
 ErrMax= 1.78D-03  0.00D+00 EMaxC= 1.00D-01 BMatC= 3.78D-04 BMatP= 2.52D-02
 IDIUse=3 WtCom= 9.82D-01 WtEn= 1.78D-02
 Coeff-Com:  0.617D-02-0.837D-02 0.156D+00 0.176D+00 0.670D+00
 Coeff-En:   0.000D+00 0.000D+00 0.000D+00 0.000D+00 0.100D+01
 Coeff:      0.606D-02-0.822D-02 0.153D+00 0.173D+00 0.676D+00
 Gap=     0.242 Goal=   None    Shift=    0.000
 RMSDP=5.39D-04 MaxDP=4.52D-02 DE=-1.68D-02 OVMax= 7.82D-03

 Cycle   6  Pass 1  IDiag  1:
 RMSU=  3.66D-04    CP:  3.51D-01  1.27D+00  1.26D+00  8.27D-01  1.16D+00
 E= -3010.58143689442     Delta-E=       -0.000363106240 Rises=F Damp=F
 DIIS: error= 9.50D-04 at cycle   6 NSaved=   6.
 NSaved= 6 IEnMin= 6 EnMin= -3010.58143689442     IErMin= 6 ErrMin= 9.50D-04
 ErrMax= 9.50D-04  0.00D+00 EMaxC= 1.00D-01 BMatC= 1.23D-04 BMatP= 3.78D-04
 IDIUse=3 WtCom= 9.91D-01 WtEn= 9.50D-03
 Coeff-Com: -0.136D-02 0.145D-02-0.276D-01-0.875D-02 0.366D+00 0.670D+00
 Coeff-En:   0.000D+00 0.000D+00 0.000D+00 0.000D+00 0.000D+00 0.100D+01
 Coeff:     -0.135D-02 0.144D-02-0.273D-01-0.867D-02 0.362D+00 0.674D+00
 Gap=     0.244 Goal=   None    Shift=    0.000
 RMSDP=5.35D-04 MaxDP=2.85D-02 DE=-3.63D-04 OVMax= 7.60D-03

 Cycle   7  Pass 1  IDiag  1:
 RMSU=  1.77D-04    CP:  3.49D-01  1.28D+00  1.28D+00  8.89D-01  1.29D+00
                    CP:  9.34D-01
 E= -3010.58160291587     Delta-E=       -0.000166021459 Rises=F Damp=F
 DIIS: error= 4.41D-04 at cycle   7 NSaved=   7.
 NSaved= 7 IEnMin= 7 EnMin= -3010.58160291587     IErMin= 7 ErrMin= 4.41D-04
 ErrMax= 4.41D-04  0.00D+00 EMaxC= 1.00D-01 BMatC= 2.44D-05 BMatP= 1.23D-04
 IDIUse=3 WtCom= 9.96D-01 WtEn= 4.41D-03
 Coeff-Com: -0.171D-02 0.208D-02-0.402D-01-0.343D-01 0.913D-01 0.370D+00
 Coeff-Com:  0.612D+00
 Coeff-En:   0.000D+00 0.000D+00 0.000D+00 0.000D+00 0.000D+00 0.000D+00
 Coeff-En:   0.100D+01
 Coeff:     -0.170D-02 0.207D-02-0.401D-01-0.342D-01 0.909D-01 0.369D+00
 Coeff:      0.614D+00
 Gap=     0.244 Goal=   None    Shift=    0.000
 RMSDP=1.82D-04 MaxDP=9.27D-03 DE=-1.66D-04 OVMax= 4.18D-03

 Cycle   8  Pass 1  IDiag  1:
 RMSU=  6.64D-05    CP:  3.48D-01  1.28D+00  1.29D+00  9.14D-01  1.34D+00
                    CP:  1.02D+00  1.29D+00
 E= -3010.58164172410     Delta-E=       -0.000038808226 Rises=F Damp=F
 DIIS: error= 2.19D-04 at cycle   8 NSaved=   8.
 NSaved= 8 IEnMin= 8 EnMin= -3010.58164172410     IErMin= 8 ErrMin= 2.19D-04
 ErrMax= 2.19D-04  0.00D+00 EMaxC= 1.00D-01 BMatC= 5.00D-06 BMatP= 2.44D-05
 IDIUse=3 WtCom= 9.98D-01 WtEn= 2.19D-03
 Coeff-Com: -0.418D-03 0.494D-03-0.134D-01-0.165D-01-0.730D-01-0.251D-01
 Coeff-Com:  0.326D+00 0.802D+00
 Coeff-En:   0.000D+00 0.000D+00 0.000D+00 0.000D+00 0.000D+00 0.000D+00
 Coeff-En:   0.000D+00 0.100D+01
 Coeff:     -0.417D-03 0.493D-03-0.134D-01-0.165D-01-0.729D-01-0.251D-01
 Coeff:      0.326D+00 0.802D+00
 Gap=     0.244 Goal=   None    Shift=    0.000
 RMSDP=1.27D-04 MaxDP=9.22D-03 DE=-3.88D-05 OVMax= 3.29D-03

 Cycle   9  Pass 1  IDiag  1:
 RMSU=  4.42D-05    CP:  3.48D-01  1.27D+00  1.29D+00  9.18D-01  1.39D+00
                    CP:  1.14D+00  1.65D+00  1.12D+00
 E= -3010.58165632876     Delta-E=       -0.000014604664 Rises=F Damp=F
 DIIS: error= 3.96D-05 at cycle   9 NSaved=   9.
 NSaved= 9 IEnMin= 9 EnMin= -3010.58165632876     IErMin= 9 ErrMin= 3.96D-05
 ErrMax= 3.96D-05  0.00D+00 EMaxC= 1.00D-01 BMatC= 8.24D-07 BMatP= 5.00D-06
 IDIUse=1 WtCom= 1.00D+00 WtEn= 0.00D+00
 Coeff-Com:  0.134D-03-0.144D-03 0.219D-02-0.621D-03-0.492D-01-0.807D-01
 Coeff-Com:  0.385D-01 0.368D+00 0.722D+00
 Coeff:      0.134D-03-0.144D-03 0.219D-02-0.621D-03-0.492D-01-0.807D-01
 Coeff:      0.385D-01 0.368D+00 0.722D+00
 Gap=     0.244 Goal=   None    Shift=    0.000
 RMSDP=5.07D-05 MaxDP=2.51D-03 DE=-1.46D-05 OVMax= 1.23D-03

 Cycle  10  Pass 1  IDiag  1:
 RMSU=  1.69D-05    CP:  3.48D-01  1.27D+00  1.29D+00  9.21D-01  1.40D+00
                    CP:  1.16D+00  1.86D+00  1.33D+00  1.31D+00
 E= -3010.58165893549     Delta-E=       -0.000002606730 Rises=F Damp=F
 DIIS: error= 1.74D-05 at cycle  10 NSaved=  10.
 NSaved=10 IEnMin=10 EnMin= -3010.58165893549     IErMin=10 ErrMin= 1.74D-05
 ErrMax= 1.74D-05  0.00D+00 EMaxC= 1.00D-01 BMatC= 9.02D-08 BMatP= 8.24D-07
 IDIUse=1 WtCom= 1.00D+00 WtEn= 0.00D+00
 Coeff-Com:  0.710D-04-0.457D-04 0.308D-02 0.305D-02 0.488D-02-0.134D-01
 Coeff-Com: -0.542D-01-0.818D-01 0.635D-01 0.107D+01
 Coeff:      0.710D-04-0.457D-04 0.308D-02 0.305D-02 0.488D-02-0.134D-01
 Coeff:     -0.542D-01-0.818D-01 0.635D-01 0.107D+01
 Gap=     0.244 Goal=   None    Shift=    0.000
 RMSDP=3.35D-05 MaxDP=1.90D-03 DE=-2.61D-06 OVMax= 8.38D-04

 Cycle  11  Pass 1  IDiag  1:
 RMSU=  6.48D-06    CP:  3.49D-01  1.27D+00  1.29D+00  9.21D-01  1.39D+00
                    CP:  1.16D+00  2.00D+00  1.46D+00  1.60D+00  1.54D+00
 E= -3010.58165967058     Delta-E=       -0.000000735090 Rises=F Damp=F
 DIIS: error= 9.46D-06 at cycle  11 NSaved=  11.
 NSaved=11 IEnMin=11 EnMin= -3010.58165967058     IErMin=11 ErrMin= 9.46D-06
 ErrMax= 9.46D-06  0.00D+00 EMaxC= 1.00D-01 BMatC= 3.11D-08 BMatP= 9.02D-08
 IDIUse=1 WtCom= 1.00D+00 WtEn= 0.00D+00
 Coeff-Com:  0.392D-05-0.122D-04 0.267D-03 0.894D-03 0.113D-01 0.122D-01
 Coeff-Com: -0.169D-01-0.885D-01-0.154D+00 0.371D+00 0.864D+00
 Coeff:      0.392D-05-0.122D-04 0.267D-03 0.894D-03 0.113D-01 0.122D-01
 Coeff:     -0.169D-01-0.885D-01-0.154D+00 0.371D+00 0.864D+00
 Gap=     0.244 Goal=   None    Shift=    0.000
 RMSDP=1.54D-05 MaxDP=1.14D-03 DE=-7.35D-07 OVMax= 3.32D-04

 Cycle  12  Pass 1  IDiag  1:
 RMSU=  2.80D-06    CP:  3.49D-01  1.27D+00  1.29D+00  9.22D-01  1.39D+00
                    CP:  1.16D+00  2.05D+00  1.49D+00  1.72D+00  1.91D+00
                    CP:  1.27D+00
 E= -3010.58165983020     Delta-E=       -0.000000159615 Rises=F Damp=F
 DIIS: error= 4.20D-06 at cycle  12 NSaved=  12.
 NSaved=12 IEnMin=12 EnMin= -3010.58165983020     IErMin=12 ErrMin= 4.20D-06
 ErrMax= 4.20D-06  0.00D+00 EMaxC= 1.00D-01 BMatC= 5.73D-09 BMatP= 3.11D-08
 IDIUse=1 WtCom= 1.00D+00 WtEn= 0.00D+00
 Coeff-Com: -0.689D-05-0.542D-05-0.466D-03-0.245D-03 0.193D-02 0.522D-02
 Coeff-Com:  0.623D-02-0.117D-01-0.714D-01-0.874D-01 0.230D+00 0.928D+00
 Coeff:     -0.689D-05-0.542D-05-0.466D-03-0.245D-03 0.193D-02 0.522D-02
 Coeff:      0.623D-02-0.117D-01-0.714D-01-0.874D-01 0.230D+00 0.928D+00
 Gap=     0.244 Goal=   None    Shift=    0.000
 RMSDP=6.60D-06 MaxDP=4.13D-04 DE=-1.60D-07 OVMax= 2.18D-04

 Cycle  13  Pass 1  IDiag  1:
 RMSU=  1.56D-06    CP:  3.49D-01  1.27D+00  1.29D+00  9.22D-01  1.39D+00
                    CP:  1.16D+00  2.07D+00  1.50D+00  1.77D+00  2.09D+00
                    CP:  1.47D+00  1.35D+00
 E= -3010.58165987575     Delta-E=       -0.000000045553 Rises=F Damp=F
 DIIS: error= 1.96D-06 at cycle  13 NSaved=  13.
 NSaved=13 IEnMin=13 EnMin= -3010.58165987575     IErMin=13 ErrMin= 1.96D-06
 ErrMax= 1.96D-06  0.00D+00 EMaxC= 1.00D-01 BMatC= 1.65D-09 BMatP= 5.73D-09
 IDIUse=1 WtCom= 1.00D+00 WtEn= 0.00D+00
 Coeff-Com: -0.784D-05 0.135D-04-0.184D-03-0.292D-03-0.285D-02-0.265D-02
 Coeff-Com:  0.665D-02 0.243D-01 0.297D-01-0.107D+00-0.246D+00 0.231D+00
 Coeff-Com:  0.107D+01
 Coeff:     -0.784D-05 0.135D-04-0.184D-03-0.292D-03-0.285D-02-0.265D-02
 Coeff:      0.665D-02 0.243D-01 0.297D-01-0.107D+00-0.246D+00 0.231D+00
 Coeff:      0.107D+01
 Gap=     0.244 Goal=   None    Shift=    0.000
 RMSDP=4.34D-06 MaxDP=2.77D-04 DE=-4.56D-08 OVMax= 1.38D-04

 Cycle  14  Pass 1  IDiag  1:
 RMSU=  1.12D-06    CP:  3.49D-01  1.27D+00  1.29D+00  9.22D-01  1.39D+00
                    CP:  1.16D+00  2.08D+00  1.51D+00  1.77D+00  2.15D+00
                    CP:  1.58D+00  1.81D+00  1.25D+00
 E= -3010.58165988841     Delta-E=       -0.000000012653 Rises=F Damp=F
 DIIS: error= 1.18D-06 at cycle  14 NSaved=  14.
 NSaved=14 IEnMin=14 EnMin= -3010.58165988841     IErMin=14 ErrMin= 1.18D-06
 ErrMax= 1.18D-06  0.00D+00 EMaxC= 1.00D-01 BMatC= 2.86D-10 BMatP= 1.65D-09
 IDIUse=1 WtCom= 1.00D+00 WtEn= 0.00D+00
 Coeff-Com: -0.398D-05 0.102D-04-0.243D-05-0.691D-04-0.130D-02-0.174D-02
 Coeff-Com:  0.158D-02 0.109D-01 0.220D-01-0.233D-01-0.144D+00-0.650D-01
 Coeff-Com:  0.355D+00 0.845D+00
 Coeff:     -0.398D-05 0.102D-04-0.243D-05-0.691D-04-0.130D-02-0.174D-02
 Coeff:      0.158D-02 0.109D-01 0.220D-01-0.233D-01-0.144D+00-0.650D-01
 Coeff:      0.355D+00 0.845D+00
 Gap=     0.244 Goal=   None    Shift=    0.000
 RMSDP=1.62D-06 MaxDP=8.92D-05 DE=-1.27D-08 OVMax= 5.26D-05

 Cycle  15  Pass 1  IDiag  1:
 RMSU=  2.97D-07    CP:  3.49D-01  1.27D+00  1.29D+00  9.22D-01  1.39D+00
                    CP:  1.15D+00  2.09D+00  1.51D+00  1.77D+00  2.17D+00
                    CP:  1.60D+00  1.99D+00  1.44D+00  1.36D+00
 E= -3010.58165989017     Delta-E=       -0.000000001769 Rises=F Damp=F
 DIIS: error= 6.18D-07 at cycle  15 NSaved=  15.
 NSaved=15 IEnMin=15 EnMin= -3010.58165989017     IErMin=15 ErrMin= 6.18D-07
 ErrMax= 6.18D-07  0.00D+00 EMaxC= 1.00D-01 BMatC= 4.59D-11 BMatP= 2.86D-10
 IDIUse=1 WtCom= 1.00D+00 WtEn= 0.00D+00
 Coeff-Com:  0.175D-05-0.290D-05 0.374D-04 0.543D-04 0.366D-03 0.239D-03
 Coeff-Com: -0.117D-02-0.365D-02-0.452D-02 0.216D-01 0.354D-01-0.454D-01
 Coeff-Com: -0.207D+00 0.167D+00 0.104D+01
 Coeff:      0.175D-05-0.290D-05 0.374D-04 0.543D-04 0.366D-03 0.239D-03
 Coeff:     -0.117D-02-0.365D-02-0.452D-02 0.216D-01 0.354D-01-0.454D-01
 Coeff:     -0.207D+00 0.167D+00 0.104D+01
 Gap=     0.244 Goal=   None    Shift=    0.000
 RMSDP=4.36D-07 MaxDP=3.06D-05 DE=-1.77D-09 OVMax= 2.03D-05

 Cycle  16  Pass 1  IDiag  1:
 RMSU=  1.31D-07    CP:  3.49D-01  1.27D+00  1.29D+00  9.22D-01  1.39D+00
                    CP:  1.15D+00  2.09D+00  1.51D+00  1.77D+00  2.17D+00
                    CP:  1.59D+00  2.03D+00  1.50D+00  1.60D+00  1.29D+00
 E= -3010.58165989036     Delta-E=       -0.000000000186 Rises=F Damp=F
 DIIS: error= 1.30D-07 at cycle  16 NSaved=  16.
 NSaved=16 IEnMin=16 EnMin= -3010.58165989036     IErMin=16 ErrMin= 1.30D-07
 ErrMax= 1.30D-07  0.00D+00 EMaxC= 1.00D-01 BMatC= 4.75D-12 BMatP= 4.59D-11
 IDIUse=1 WtCom= 1.00D+00 WtEn= 0.00D+00
 Coeff-Com:  0.873D-06-0.193D-05 0.780D-05 0.201D-04 0.255D-03 0.272D-03
 Coeff-Com: -0.439D-03-0.217D-02-0.401D-02 0.782D-02 0.264D-01-0.344D-02
 Coeff-Com: -0.965D-01-0.630D-01 0.211D+00 0.924D+00
 Coeff:      0.873D-06-0.193D-05 0.780D-05 0.201D-04 0.255D-03 0.272D-03
 Coeff:     -0.439D-03-0.217D-02-0.401D-02 0.782D-02 0.264D-01-0.344D-02
 Coeff:     -0.965D-01-0.630D-01 0.211D+00 0.924D+00
 Gap=     0.244 Goal=   None    Shift=    0.000
 RMSDP=2.42D-07 MaxDP=1.66D-05 DE=-1.86D-10 OVMax= 6.67D-06

 Cycle  17  Pass 1  IDiag  1:
 RMSU=  4.42D-08    CP:  3.49D-01  1.27D+00  1.29D+00  9.22D-01  1.39D+00
                    CP:  1.15D+00  2.09D+00  1.52D+00  1.77D+00  2.17D+00
                    CP:  1.59D+00  2.04D+00  1.49D+00  1.68D+00  1.48D+00
                    CP:  1.23D+00
 E= -3010.58165989043     Delta-E=       -0.000000000071 Rises=F Damp=F
 DIIS: error= 5.88D-08 at cycle  17 NSaved=  17.
 NSaved=17 IEnMin=17 EnMin= -3010.58165989043     IErMin=17 ErrMin= 5.88D-08
 ErrMax= 5.88D-08  0.00D+00 EMaxC= 1.00D-01 BMatC= 8.05D-13 BMatP= 4.75D-12
 IDIUse=1 WtCom= 1.00D+00 WtEn= 0.00D+00
 Coeff-Com: -0.109D-06 0.128D-06-0.262D-05-0.202D-05 0.153D-04 0.259D-04
 Coeff-Com:  0.516D-04 0.250D-05-0.356D-03-0.779D-03 0.116D-02 0.449D-02
 Coeff-Com:  0.527D-02-0.306D-01-0.686D-01 0.217D+00 0.872D+00
 Coeff:     -0.109D-06 0.128D-06-0.262D-05-0.202D-05 0.153D-04 0.259D-04
 Coeff:      0.516D-04 0.250D-05-0.356D-03-0.779D-03 0.116D-02 0.449D-02
 Coeff:      0.527D-02-0.306D-01-0.686D-01 0.217D+00 0.872D+00
 Gap=     0.244 Goal=   None    Shift=    0.000
 RMSDP=5.07D-08 MaxDP=2.41D-06 DE=-7.14D-11 OVMax= 1.50D-06

 Cycle  18  Pass 1  IDiag  1:
 RMSU=  1.65D-08    CP:  3.49D-01  1.27D+00  1.29D+00  9.22D-01  1.39D+00
                    CP:  1.15D+00  2.09D+00  1.52D+00  1.77D+00  2.17D+00
                    CP:  1.59D+00  2.04D+00  1.48D+00  1.69D+00  1.51D+00
                    CP:  1.37D+00  1.34D+00
 E= -3010.58165989046     Delta-E=       -0.000000000026 Rises=F Damp=F
 DIIS: error= 2.07D-08 at cycle  18 NSaved=  18.
 NSaved=18 IEnMin=18 EnMin= -3010.58165989046     IErMin=18 ErrMin= 2.07D-08
 ErrMax= 2.07D-08  0.00D+00 EMaxC= 1.00D-01 BMatC= 2.36D-13 BMatP= 8.05D-13
 IDIUse=1 WtCom= 1.00D+00 WtEn= 0.00D+00
 Coeff-Com: -0.191D-06 0.407D-06-0.193D-05-0.420D-05-0.506D-04-0.583D-04
 Coeff-Com:  0.107D-03 0.476D-03 0.737D-03-0.180D-02-0.553D-02 0.220D-02
 Coeff-Com:  0.231D-01 0.175D-02-0.652D-01-0.167D+00 0.210D+00 0.100D+01
 Coeff:     -0.191D-06 0.407D-06-0.193D-05-0.420D-05-0.506D-04-0.583D-04
 Coeff:      0.107D-03 0.476D-03 0.737D-03-0.180D-02-0.553D-02 0.220D-02
 Coeff:      0.231D-01 0.175D-02-0.652D-01-0.167D+00 0.210D+00 0.100D+01
 Gap=     0.244 Goal=   None    Shift=    0.000
 RMSDP=3.80D-08 MaxDP=2.64D-06 DE=-2.59D-11 OVMax= 1.32D-06

 Cycle  19  Pass 1  IDiag  1:
 RMSU=  8.18D-09    CP:  3.49D-01  1.27D+00  1.29D+00  9.22D-01  1.39D+00
                    CP:  1.15D+00  2.09D+00  1.52D+00  1.77D+00  2.17D+00
                    CP:  1.60D+00  2.05D+00  1.47D+00  1.69D+00  1.55D+00
                    CP:  1.45D+00  1.68D+00  1.68D+00
 E= -3010.58165989041     Delta-E=        0.000000000047 Rises=F Damp=F
 DIIS: error= 9.77D-09 at cycle  19 NSaved=  19.
 NSaved=19 IEnMin=18 EnMin= -3010.58165989046     IErMin=19 ErrMin= 9.77D-09
 ErrMax= 9.77D-09  0.00D+00 EMaxC= 1.00D-01 BMatC= 3.99D-14 BMatP= 2.36D-13
 IDIUse=1 WtCom= 1.00D+00 WtEn= 0.00D+00
 Coeff-Com: -0.348D-08 0.198D-07 0.237D-06 0.270D-06-0.346D-05-0.822D-05
 Coeff-Com: -0.919D-05 0.163D-04 0.666D-04 0.248D-03-0.546D-03-0.105D-02
 Coeff-Com:  0.559D-04 0.428D-02 0.144D-01-0.470D-01-0.162D+00 0.281D-01
 Coeff-Com:  0.116D+01
 Coeff:     -0.348D-08 0.198D-07 0.237D-06 0.270D-06-0.346D-05-0.822D-05
 Coeff:     -0.919D-05 0.163D-04 0.666D-04 0.248D-03-0.546D-03-0.105D-02
 Coeff:      0.559D-04 0.428D-02 0.144D-01-0.470D-01-0.162D+00 0.281D-01
 Coeff:      0.116D+01
 Gap=     0.244 Goal=   None    Shift=    0.000
 RMSDP=3.16D-08 MaxDP=1.79D-06 DE= 4.68D-11 OVMax= 7.52D-07

 Cycle  20  Pass 1  IDiag  1:
 RMSU=  4.09D-09    CP:  3.49D-01  1.27D+00  1.29D+00  9.22D-01  1.39D+00
                    CP:  1.15D+00  2.09D+00  1.52D+00  1.77D+00  2.17D+00
                    CP:  1.60D+00  2.05D+00  1.47D+00  1.70D+00  1.56D+00
                    CP:  1.48D+00  1.85D+00  2.12D+00  1.43D+00
 E= -3010.58165989046     Delta-E=       -0.000000000047 Rises=F Damp=F
 DIIS: error= 4.84D-09 at cycle  20 NSaved=  20.
 NSaved=20 IEnMin=20 EnMin= -3010.58165989046     IErMin=20 ErrMin= 4.84D-09
 ErrMax= 4.84D-09  0.00D+00 EMaxC= 1.00D-01 BMatC= 1.01D-14 BMatP= 3.99D-14
 IDIUse=1 WtCom= 1.00D+00 WtEn= 0.00D+00
 Coeff-Com:  0.369D-07-0.775D-07 0.482D-06 0.113D-05 0.121D-04 0.129D-04
 Coeff-Com: -0.273D-04-0.115D-03-0.184D-03 0.491D-03 0.120D-02-0.759D-03
 Coeff-Com: -0.534D-02 0.550D-04 0.206D-01 0.360D-01-0.947D-01-0.254D+00
 Coeff-Com:  0.250D+00 0.105D+01
 Coeff:      0.369D-07-0.775D-07 0.482D-06 0.113D-05 0.121D-04 0.129D-04
 Coeff:     -0.273D-04-0.115D-03-0.184D-03 0.491D-03 0.120D-02-0.759D-03
 Coeff:     -0.534D-02 0.550D-04 0.206D-01 0.360D-01-0.947D-01-0.254D+00
 Coeff:      0.250D+00 0.105D+01
 Gap=     0.244 Goal=   None    Shift=    0.000
 RMSDP=1.73D-08 MaxDP=9.54D-07 DE=-4.73D-11 OVMax= 3.54D-07

 Cycle  21  Pass 1  IDiag  1:
 Restarting incremental Fock formation.
 E= -3010.58165989044     Delta-E=        0.000000000017 Rises=F Damp=F
 DIIS: error= 1.72D-09 at cycle  21 NSaved=  20.
 NSaved=20 IEnMin=19 EnMin= -3010.58165989046     IErMin=20 ErrMin= 1.72D-09
 ErrMax= 1.72D-09  0.00D+00 EMaxC= 1.00D-01 BMatC= 8.28D-16 BMatP= 1.01D-14
 IDIUse=1 WtCom= 1.00D+00 WtEn= 0.00D+00
 Large coefficients: NSaved= 20 BigCof=    0.00 CofMax=   10.00 Det=-3.34D-15
 Inversion failed.  Reducing to 19 matrices.
 Large coefficients: NSaved= 19 BigCof=    0.00 CofMax=   10.00 Det=-3.48D-15
 Inversion failed.  Reducing to 18 matrices.
 Large coefficients: NSaved= 18 BigCof=    0.00 CofMax=   10.00 Det=-3.78D-15
 Inversion failed.  Reducing to 17 matrices.
 Large coefficients: NSaved= 17 BigCof=    0.00 CofMax=   10.00 Det=-3.96D-15
 Inversion failed.  Reducing to 16 matrices.
 Large coefficients: NSaved= 16 BigCof=    0.00 CofMax=   10.00 Det=-3.98D-15
 Inversion failed.  Reducing to 15 matrices.
 Coeff-Com:  0.151D-05 0.313D-06-0.520D-05-0.149D-04 0.476D-04 0.110D-03
 Coeff-Com:  0.477D-04-0.661D-03-0.169D-02 0.605D-02 0.115D-01-0.674D-02
 Coeff-Com: -0.132D+00 0.443D-01 0.108D+01
 Coeff:      0.151D-05 0.313D-06-0.520D-05-0.149D-04 0.476D-04 0.110D-03
 Coeff:      0.477D-04-0.661D-03-0.169D-02 0.605D-02 0.115D-01-0.674D-02
 Coeff:     -0.132D+00 0.443D-01 0.108D+01
 Gap=     0.244 Goal=   None    Shift=    0.000
 RMSDP=6.23D-09 MaxDP=3.64D-07 DE= 1.73D-11 OVMax= 1.14D-07

 SCF Done:  E(RwB97XD) =  -3010.58165989     A.U. after   21 cycles
            NFock= 21  Conv=0.62D-08     -V/T= 2.0016
 KE= 3.005824074695D+03 PE=-8.636365219654D+03 EE= 1.875998571742D+03
 Leave Link  502 at Wed May  1 14:49:28 2024, MaxMem=  1207959552 cpu:            1232.9 elap:            1233.0
 (Enter /software/gaussian/g16-c01/sse4/g16/l601.exe)
 Copying SCF densities to generalized density rwf, IOpCl= 0 IROHF=0.

 **********************************************************************

            Population analysis using the SCF Density.

 **********************************************************************

 Alpha  occ. eigenvalues -- -483.33351 -62.88326 -56.68054 -56.67444 -56.67426
 Alpha  occ. eigenvalues --  -19.58539 -19.58446 -14.97597 -10.63377 -10.62279
 Alpha  occ. eigenvalues --  -10.61495 -10.60544 -10.59484 -10.55634  -9.04095
 Alpha  occ. eigenvalues --   -6.86861  -6.84868  -6.84807  -2.96743  -2.96228
 Alpha  occ. eigenvalues --   -2.96178  -2.94584  -2.94584  -1.62241  -1.45355
 Alpha  occ. eigenvalues --   -1.27394  -1.19168  -1.15469  -1.08690  -1.06528
 Alpha  occ. eigenvalues --   -0.99170  -0.97102  -0.93867  -0.92017  -0.90604
 Alpha  occ. eigenvalues --   -0.86331  -0.83441  -0.81319  -0.79713  -0.76001
 Alpha  occ. eigenvalues --   -0.72260  -0.70988  -0.69910  -0.69507  -0.68619
 Alpha  occ. eigenvalues --   -0.67477  -0.63248  -0.57705  -0.57262
 Alpha virt. eigenvalues --   -0.32866  -0.31926  -0.19632  -0.19529  -0.17194
 Alpha virt. eigenvalues --   -0.15649  -0.14151  -0.12876  -0.11880  -0.09947
 Alpha virt. eigenvalues --   -0.08166  -0.07553  -0.06344  -0.05953  -0.05094
 Alpha virt. eigenvalues --   -0.05083  -0.04348  -0.03105  -0.01997  -0.01403
 Alpha virt. eigenvalues --   -0.00466   0.00163   0.00560   0.01043   0.01656
 Alpha virt. eigenvalues --    0.02184   0.02435   0.02938   0.03893   0.04458
 Alpha virt. eigenvalues --    0.05741   0.06259   0.07018   0.07640   0.07975
 Alpha virt. eigenvalues --    0.08853   0.09016   0.09278   0.10515   0.10665
 Alpha virt. eigenvalues --    0.11129   0.11662   0.12221   0.13240   0.13898
 Alpha virt. eigenvalues --    0.15799   0.16344   0.17001   0.17660   0.18562
 Alpha virt. eigenvalues --    0.19425   0.21155   0.21576   0.22490   0.24345
 Alpha virt. eigenvalues --    0.26422   0.28401   0.29969   0.31024   0.31424
 Alpha virt. eigenvalues --    0.33032   0.33669   0.35302   0.36293   0.38325
 Alpha virt. eigenvalues --    0.39398   0.39886   0.40591   0.40977   0.42763
 Alpha virt. eigenvalues --    0.43725   0.44669   0.47808   0.47975   0.49087
 Alpha virt. eigenvalues --    0.49868   0.51610   0.52893   0.53855   0.54846
 Alpha virt. eigenvalues --    0.58454   0.61107   0.61348   0.62296   0.63741
 Alpha virt. eigenvalues --    0.65526   0.67224   0.69462   0.70353   0.70938
 Alpha virt. eigenvalues --    0.71584   0.72920   0.74607   0.75063   0.80070
 Alpha virt. eigenvalues --    0.81997   0.82538   0.85261   0.85585   0.87907
 Alpha virt. eigenvalues --    0.88749   0.94034   0.96562   0.97734   0.99317
 Alpha virt. eigenvalues --    0.99789   1.01252   1.03215   1.03448   1.06628
 Alpha virt. eigenvalues --    1.09820   1.16831   1.19973   1.29053   1.31985
 Alpha virt. eigenvalues --    1.32991   1.33681   1.41398   1.46913   1.48498
 Alpha virt. eigenvalues --    1.48701   1.51416   1.56452   1.57434   1.62234
 Alpha virt. eigenvalues --    1.63264   1.64321   1.65944   1.69985   1.74595
 Alpha virt. eigenvalues --    1.78010   1.80499   1.82291   1.88730   1.92578
 Alpha virt. eigenvalues --    1.94093   1.94496   1.97770   2.03431   2.04188
 Alpha virt. eigenvalues --    2.06142   2.10743   2.13827   2.17056   2.25611
 Alpha virt. eigenvalues --    2.29761   2.33413   2.37736   2.40341   2.47707
 Alpha virt. eigenvalues --    2.53111   2.57149   2.58010   2.61344   2.62675
 Alpha virt. eigenvalues --    2.63890   2.65518   2.68860   2.71619   2.78156
 Alpha virt. eigenvalues --    2.87607   2.90903   2.92198   3.01223   3.03139
 Alpha virt. eigenvalues --    3.06084   3.09917   3.13496   3.14324   3.15712
 Alpha virt. eigenvalues --    3.19751   3.30297   3.42380   3.43790   3.45478
 Alpha virt. eigenvalues --    3.50379   3.58517   3.61674   3.77946   3.82815
 Alpha virt. eigenvalues --    4.07139   4.07340   4.14558   4.19938   4.31250
 Alpha virt. eigenvalues --    4.40641   4.48503   4.53845   4.79902   4.82446
 Alpha virt. eigenvalues --    4.91136   4.95298   5.50234   6.02613   6.62817
 Alpha virt. eigenvalues --    7.45871   7.47397   7.57064  23.17320  23.57060
 Alpha virt. eigenvalues --   23.66939  23.75448  23.91707  23.97038  35.20392
 Alpha virt. eigenvalues --   47.89151  49.72830  49.81638 289.78423 289.80082
 Alpha virt. eigenvalues --  289.924981020.89492
          Condensed to atoms (all electrons):
               1          2          3          4          5          6
     1  C    8.660886  -3.237780   1.500986  -1.622990  -1.350741   0.283024
     2  C   -3.237780  15.529065  -4.187957  -2.185517   2.042756  -0.003728
     3  C    1.500986  -4.187957  13.650517  -2.645402  -1.774683   0.007214
     4  C   -1.622990  -2.185517  -2.645402  13.359750   1.294917   0.012166
     5  C   -1.350741   2.042756  -1.774683   1.294917   8.031735   0.041014
     6  H    0.283024  -0.003728   0.007214   0.012166   0.041014   0.290587
     7  H    0.061228   0.257702   0.088316  -0.040289  -0.023077  -0.001825
     8  H    0.000031  -0.026268   0.050248   0.273904   0.012764   0.000002
     9  H    0.015023   0.003398  -0.003152  -0.004646   0.317072  -0.001240
    10  N   -0.079473   0.332046  -0.964126   0.199425   0.091244  -0.000233
    11  O    0.030949   0.031560  -0.239978  -0.077215  -0.054423  -0.000007
    12  O    0.186545  -0.062733  -0.250124   0.003323  -0.047766  -0.000092
    13  C    2.079023  -3.045186   1.447921  -2.861325  -2.636429  -0.012542
    14  H    0.014864  -0.033207   0.019021  -0.031917  -0.117838  -0.000061
    15  Br   0.089246   0.004637   0.048640   0.202279   0.077250  -0.000312
               7          8          9         10         11         12
     1  C    0.061228   0.000031   0.015023  -0.079473   0.030949   0.186545
     2  C    0.257702  -0.026268   0.003398   0.332046   0.031560  -0.062733
     3  C    0.088316   0.050248  -0.003152  -0.964126  -0.239978  -0.250124
     4  C   -0.040289   0.273904  -0.004646   0.199425  -0.077215   0.003323
     5  C   -0.023077   0.012764   0.317072   0.091244  -0.054423  -0.047766
     6  H   -0.001825   0.000002  -0.001240  -0.000233  -0.000007  -0.000092
     7  H    0.349881   0.000071   0.000035  -0.033122  -0.001954   0.010846
     8  H    0.000071   0.346276   0.000167  -0.023510   0.010561  -0.001056
     9  H    0.000035   0.000167   0.240287   0.000486   0.000001   0.000008
    10  N   -0.033122  -0.023510   0.000486   7.095499   0.305065   0.282662
    11  O   -0.001954   0.010561   0.000001   0.305065   7.927317  -0.043139
    12  O    0.010846  -0.001056   0.000008   0.282662  -0.043139   7.952781
    13  C    0.012825   0.029564  -0.020126  -0.091671   0.192220   0.052877
    14  H   -0.000006  -0.006149  -0.003466  -0.002592  -0.000040  -0.000081
    15  Br  -0.000424  -0.004972   0.001560  -0.002227   0.002132   0.001898
              13         14         15
     1  C    2.079023   0.014864   0.089246
     2  C   -3.045186  -0.033207   0.004637
     3  C    1.447921   0.019021   0.048640
     4  C   -2.861325  -0.031917   0.202279
     5  C   -2.636429  -0.117838   0.077250
     6  H   -0.012542  -0.000061  -0.000312
     7  H    0.012825  -0.000006  -0.000424
     8  H    0.029564  -0.006149  -0.004972
     9  H   -0.020126  -0.003466   0.001560
    10  N   -0.091671  -0.002592  -0.002227
    11  O    0.192220  -0.000040   0.002132
    12  O    0.052877  -0.000081   0.001898
    13  C   11.048860   0.440540  -0.220981
    14  H    0.440540   0.307979  -0.033636
    15  Br  -0.220981  -0.033636  34.508936
 Mulliken charges:
               1
     1  C   -0.630821
     2  C    0.581213
     3  C   -0.747441
     4  C    0.123535
     5  C    0.096205
     6  H    0.386033
     7  H    0.319793
     8  H    0.338368
     9  H    0.454593
    10  N   -0.109473
    11  O   -0.083049
    12  O   -0.085950
    13  C   -0.415571
    14  H    0.446590
    15  Br   0.325974
 Sum of Mulliken charges =   1.00000
 Mulliken charges with hydrogens summed into heavy atoms:
               1
     1  C   -0.244788
     2  C    0.901006
     3  C   -0.747441
     4  C    0.461904
     5  C    0.550798
    10  N   -0.109473
    11  O   -0.083049
    12  O   -0.085950
    13  C    0.031019
    15  Br   0.325974
 Electronic spatial extent (au):  <R**2>=           2811.0483
 Charge=              1.0000 electrons
 Dipole moment (field-independent basis, Debye):
    X=             -8.6702    Y=             -1.5193    Z=             -0.6900  Tot=              8.8293
 Quadrupole moment (field-independent basis, Debye-Ang):
   XX=            -90.8758   YY=            -51.2190   ZZ=            -60.8080
   XY=              2.4162   XZ=              3.1218   YZ=              3.5296
 Traceless Quadrupole moment (field-independent basis, Debye-Ang):
   XX=            -23.2416   YY=             16.4153   ZZ=              6.8263
   XY=              2.4162   XZ=              3.1218   YZ=              3.5296
 Octapole moment (field-independent basis, Debye-Ang**2):
  XXX=           -411.4615  YYY=             81.2590  ZZZ=             72.4627  XYY=            -94.6335
  XXY=             26.5289  XXZ=             31.8519  XZZ=            -86.9815  YZZ=             11.6055
  YYZ=             21.2553  XYZ=             -7.0203
 Hexadecapole moment (field-independent basis, Debye-Ang**3):
 XXXX=          -2772.7772 YYYY=           -663.7326 ZZZZ=           -333.7624 XXXY=            -68.0215
 XXXZ=             -8.2791 YYYX=            -51.7947 YYYZ=           -143.4584 ZZZX=             -7.9618
 ZZZY=           -124.3835 XXYY=           -494.0829 XXZZ=           -379.1983 YYZZ=           -153.3022
 XXYZ=            -50.0834 YYXZ=              6.6949 ZZXY=             -1.1792
 N-N= 7.439609133264D+02 E-N=-8.636365219597D+03  KE= 3.005824074695D+03
 No NMR shielding tensors so no spin-rotation constants.
 Leave Link  601 at Wed May  1 14:49:35 2024, MaxMem=  1207959552 cpu:               7.3 elap:               7.3
 (Enter /software/gaussian/g16-c01/sse4/g16/l9999.exe)
 Unable to Open any file for archive entry.
 1\1\GINC-BHX0030\SP\RwB97XD\6-311+G(d)\C6H5Br1N1O2(1+)\BWEIGHT\01-May-
 2024\0\\#P wB97XD/6-311+G* NoSymm #P Field=X+252\\TitleMe\\1,1\C,0,0.0
 295,1.3397,0.0682\C,0,1.4348,1.2867,0.0064\C,0,2.1118,0.0511,-0.0054\C
 ,0,1.4451,-1.1372,0.0312\C,0,-0.6879,0.1682,0.11\H,0,-0.4713,2.2984,0.
 0781\H,0,2.0273,2.1965,-0.0322\H,0,1.9897,-2.0764,0.0232\H,0,-1.7716,0
 .1804,0.1582\N,0,3.5864,0.051,-0.0675\O,0,4.1471,-1.0597,-0.0881\O,0,4
 .145,1.1639,-0.0901\C,0,-0.0236,-1.1458,0.0835\H,0,-0.4367,-1.8725,0.7
 889\Br,0,-0.5359,-1.8697,-1.7408\\Version=ES64L-G16RevC.01\HF=-3010.58
 16599\RMSD=6.235e-09\Dipole=-5.3176609,0.5503403,0.8747089\Quadrupole=
 -17.2795243,12.2043581,5.0751662,1.7963636,2.3209948,2.6242064\PG=C01 
 [X(C6H5Br1N1O2)]\\@
 The archive entry for this job was punched.


 SCIENCE AND PEACE WILL TRIUMPH OVER IGNORANCE AND WAR

                          -- PASTEUR
 Job cpu time:       0 days  0 hours 21 minutes 47.3 seconds.
 Elapsed time:       0 days  0 hours 21 minutes 47.8 seconds.
 File lengths (MBytes):  RWF=     40 Int=      0 D2E=      0 Chk=     32 Scr=      1
 Normal termination of Gaussian 16 at Wed May  1 14:49:36 2024.
