 Entering Gaussian System, Link 0=g16
 Initial command:
 /software/gaussian/g16-c01/sse4/g16/l1.exe "/local_scratch/24665311/Gau-12941.inp" -scrdir="/local_scratch/24665311/"
 Entering Link 1 = /software/gaussian/g16-c01/sse4/g16/l1.exe PID=     12946.
  
 Copyright (c) 1988-2019, Gaussian, Inc.  All Rights Reserved.
  
 This is part of the Gaussian(R) 16 program.  It is based on
 the Gaussian(R) 09 system (copyright 2009, Gaussian, Inc.),
 the Gaussian(R) 03 system (copyright 2003, Gaussian, Inc.),
 the Gaussian(R) 98 system (copyright 1998, Gaussian, Inc.),
 the Gaussian(R) 94 system (copyright 1995, Gaussian, Inc.),
 the Gaussian 92(TM) system (copyright 1992, Gaussian, Inc.),
 the Gaussian 90(TM) system (copyright 1990, Gaussian, Inc.),
 the Gaussian 88(TM) system (copyright 1988, Gaussian, Inc.),
 the Gaussian 86(TM) system (copyright 1986, Carnegie Mellon
 University), and the Gaussian 82(TM) system (copyright 1983,
 Carnegie Mellon University). Gaussian is a federally registered
 trademark of Gaussian, Inc.
  
 This software contains proprietary and confidential information,
 including trade secrets, belonging to Gaussian, Inc.
  
 This software is provided under written license and may be
 used, copied, transmitted, or stored only in accord with that
 written license.
  
 The following legend is applicable only to US Government
 contracts under FAR:
  
                    RESTRICTED RIGHTS LEGEND
  
 Use, reproduction and disclosure by the US Government is
 subject to restrictions as set forth in subparagraphs (a)
 and (c) of the Commercial Computer Software - Restricted
 Rights clause in FAR 52.227-19.
  
 Gaussian, Inc.
 340 Quinnipiac St., Bldg. 40, Wallingford CT 06492
  
  
 ---------------------------------------------------------------
 Warning -- This program may not be used in any manner that
 competes with the business of Gaussian, Inc. or will provide
 assistance to any competitor of Gaussian, Inc.  The licensee
 of this program is prohibited from giving any competitor of
 Gaussian, Inc. access to this program.  By using this program,
 the user acknowledges that Gaussian, Inc. is engaged in the
 business of creating and licensing software in the field of
 computational chemistry and represents and warrants to the
 licensee that it is not a competitor of Gaussian, Inc. and that
 it will not use this program in any manner prohibited above.
 ---------------------------------------------------------------
  

 Cite this work as:
 Gaussian 16, Revision C.01,
 M. J. Frisch, G. W. Trucks, H. B. Schlegel, G. E. Scuseria, 
 M. A. Robb, J. R. Cheeseman, G. Scalmani, V. Barone, 
 G. A. Petersson, H. Nakatsuji, X. Li, M. Caricato, A. V. Marenich, 
 J. Bloino, B. G. Janesko, R. Gomperts, B. Mennucci, H. P. Hratchian, 
 J. V. Ortiz, A. F. Izmaylov, J. L. Sonnenberg, D. Williams-Young, 
 F. Ding, F. Lipparini, F. Egidi, J. Goings, B. Peng, A. Petrone, 
 T. Henderson, D. Ranasinghe, V. G. Zakrzewski, J. Gao, N. Rega, 
 G. Zheng, W. Liang, M. Hada, M. Ehara, K. Toyota, R. Fukuda, 
 J. Hasegawa, M. Ishida, T. Nakajima, Y. Honda, O. Kitao, H. Nakai, 
 T. Vreven, K. Throssell, J. A. Montgomery, Jr., J. E. Peralta, 
 F. Ogliaro, M. J. Bearpark, J. J. Heyd, E. N. Brothers, K. N. Kudin, 
 V. N. Staroverov, T. A. Keith, R. Kobayashi, J. Normand, 
 K. Raghavachari, A. P. Rendell, J. C. Burant, S. S. Iyengar, 
 J. Tomasi, M. Cossi, J. M. Millam, M. Klene, C. Adamo, R. Cammi, 
 J. W. Ochterski, R. L. Martin, K. Morokuma, O. Farkas, 
 J. B. Foresman, and D. J. Fox, Gaussian, Inc., Wallingford CT, 2019.
 
 ******************************************
 Gaussian 16:  ES64L-G16RevC.01  3-Jul-2019
                 2-May-2024 
 ******************************************
 %chk=geometry.chk
 %mem=1GB
 %nprocshared=12
 Will use up to   12 processors via shared memory.
 ----------------------------------------
 #P wB97XD/6-311+G* NoSymm #P Field=Y-116
 ----------------------------------------
 1/38=1,172=1/1;
 2/12=2,15=1,17=6,18=5,40=1/2;
 3/5=4,6=6,7=11,11=2,14=2,15=-116,25=1,30=1,74=-58/1,2,3;
 4//1;
 5/5=2,38=5/2;
 6/7=2,8=2,9=2,10=2,28=1/1;
 99/5=1,9=1/99;
 Leave Link    1 at Thu May  2 13:57:39 2024, MaxMem=   134217728 cpu:               1.6 elap:               1.6
 (Enter /software/gaussian/g16-c01/sse4/g16/l101.exe)
 -------
 TitleMe
 -------
 Symbolic Z-matrix:
 Charge =  1 Multiplicity = 1
 C                     0.5193    1.233    -0.0319 
 C                     1.9445    1.2692   -0.0367 
 C                     2.6204    0.0928   -0.025 
 C                    -0.196     0.0301    0.001 
 H                    -0.0207    2.1742   -0.0434 
 H                     2.4828    2.2089   -0.0361 
 H                    -1.2777    0.0399    0.0117 
 N                     4.0921    0.0959    0.0366 
 O                     4.6393   -1.0217    0.1446 
 O                     4.6649    1.1984   -0.0233 
 C                     0.4943   -1.1671    0.021 
 H                    -0.0325   -2.1149    0.0545 
 C                     1.9629   -1.2165   -0.0211 
 H                     2.4436   -1.9631    0.6151 
 Br                    2.173    -1.9491   -1.9062 
 
 ITRead=  0  0  0  0  0  0  0  0  0  0  0  0  0  0  0
 MicOpt= -1 -1 -1 -1 -1 -1 -1 -1 -1 -1 -1 -1 -1 -1 -1
 NAtoms=     15 NQM=       15 NQMF=       0 NMMI=      0 NMMIF=      0
                NMic=       0 NMicF=      0.
                    Isotopes and Nuclear Properties:
 (Nuclear quadrupole moments (NQMom) in fm**2, nuclear magnetic moments (NMagM)
  in nuclear magnetons)

  Atom         1           2           3           4           5           6           7           8           9          10
 IAtWgt=          12          12          12          12           1           1           1          14          16          16
 AtmWgt=  12.0000000  12.0000000  12.0000000  12.0000000   1.0078250   1.0078250   1.0078250  14.0030740  15.9949146  15.9949146
 NucSpn=           0           0           0           0           1           1           1           2           0           0
 AtZEff=  -0.0000000  -0.0000000  -0.0000000  -0.0000000  -0.0000000  -0.0000000  -0.0000000  -0.0000000  -0.0000000  -0.0000000
 NQMom=    0.0000000   0.0000000   0.0000000   0.0000000   0.0000000   0.0000000   0.0000000   2.0440000   0.0000000   0.0000000
 NMagM=    0.0000000   0.0000000   0.0000000   0.0000000   2.7928460   2.7928460   2.7928460   0.4037610   0.0000000   0.0000000
 AtZNuc=   6.0000000   6.0000000   6.0000000   6.0000000   1.0000000   1.0000000   1.0000000   7.0000000   8.0000000   8.0000000

  Atom        11          12          13          14          15
 IAtWgt=          12           1          12           1          79
 AtmWgt=  12.0000000   1.0078250  12.0000000   1.0078250  78.9183361
 NucSpn=           0           1           0           1           3
 AtZEff=  -0.0000000  -0.0000000  -0.0000000  -0.0000000  -0.0000000
 NQMom=    0.0000000   0.0000000   0.0000000   0.0000000  31.3000000
 NMagM=    0.0000000   2.7928460   0.0000000   2.7928460   2.1063990
 AtZNuc=   6.0000000   1.0000000   6.0000000   1.0000000  35.0000000
 Leave Link  101 at Thu May  2 13:57:42 2024, MaxMem=   134217728 cpu:               1.6 elap:               1.6
 (Enter /software/gaussian/g16-c01/sse4/g16/l202.exe)
                          Input orientation:                          
 ---------------------------------------------------------------------
 Center     Atomic      Atomic             Coordinates (Angstroms)
 Number     Number       Type             X           Y           Z
 ---------------------------------------------------------------------
      1          6           0        0.519300    1.233000   -0.031900
      2          6           0        1.944500    1.269200   -0.036700
      3          6           0        2.620400    0.092800   -0.025000
      4          6           0       -0.196000    0.030100    0.001000
      5          1           0       -0.020700    2.174200   -0.043400
      6          1           0        2.482800    2.208900   -0.036100
      7          1           0       -1.277700    0.039900    0.011700
      8          7           0        4.092100    0.095900    0.036600
      9          8           0        4.639300   -1.021700    0.144600
     10          8           0        4.664900    1.198400   -0.023300
     11          6           0        0.494300   -1.167100    0.021000
     12          1           0       -0.032500   -2.114900    0.054500
     13          6           0        1.962900   -1.216500   -0.021100
     14          1           0        2.443600   -1.963100    0.615100
     15         35           0        2.173000   -1.949100   -1.906200
 ---------------------------------------------------------------------
                    Distance matrix (angstroms):
                    1          2          3          4          5
     1  C    0.000000
     2  C    1.425668   0.000000
     3  C    2.390549   1.356796   0.000000
     4  C    1.399895   2.473566   2.817218   0.000000
     5  H    1.085168   2.163581   3.362733   2.151712   0.000000
     6  H    2.192654   1.082960   2.120598   3.453189   2.503751
     7  H    2.157452   3.449071   3.898632   1.081797   2.477564
     8  N    3.750012   2.448304   1.472992   4.288753   4.608780
     9  O    4.699917   3.541615   2.312322   4.950458   5.653735
    10  O    4.145753   2.721354   2.324292   4.999386   4.786171
    11  C    2.400813   2.835836   2.471794   1.382101   3.381369
    12  H    3.394169   3.920329   3.452266   2.151887   4.290233
    13  C    2.843264   2.485817   1.465124   2.493060   3.928360
    14  H    3.786370   3.334922   2.160489   3.364142   4.860416
    15  Br   4.046416   3.728900   2.812194   3.628609   5.028314
                    6          7          8          9         10
     6  H    0.000000
     7  H    4.341452   0.000000
     8  N    2.657047   5.370150   0.000000
     9  O    3.888434   6.012948   1.249048   0.000000
    10  O    2.404752   6.054572   1.243863   2.226587   0.000000
    11  C    3.918516   2.144043   3.813080   4.149391   4.794941
    12  H    5.003018   2.489080   4.679774   4.798846   5.748876
    13  C    3.464662   3.475788   2.501842   2.688591   3.623886
    14  H    4.222698   4.268978   2.700314   2.434893   3.916224
    15  Br   4.569706   4.420610   3.411663   3.338935   4.434144
                   11         12         13         14         15
    11  C    0.000000
    12  H    1.084880   0.000000
    13  C    1.470034   2.189625   0.000000
    14  H    2.187771   2.543302   1.092353   0.000000
    15  Br   2.672762   2.955683   2.033334   2.535818   0.000000
 Symmetry turned off by external request.
 Stoichiometry    C6H5BrNO2(1+)
 Framework group  C1[X(C6H5BrNO2)]
 Deg. of freedom    39
 Full point group                 C1      NOp   1
 Rotational constants (GHZ):           1.1632986           0.9594224           0.5957624
 Leave Link  202 at Thu May  2 13:57:43 2024, MaxMem=   134217728 cpu:               1.2 elap:               1.2
 (Enter /software/gaussian/g16-c01/sse4/g16/l301.exe)
 Standard basis: 6-311+G(d) (5D, 7F)
 Ernie: Thresh=  0.10000D-02 Tol=  0.10000D-05 Strict=F.
 The following finite field(s) will be applied:
 An electric field of              0.0000 -0.0116  0.0000
   261 basis functions,   443 primitive gaussians,   273 cartesian basis functions
    49 alpha electrons       49 beta electrons
       nuclear repulsion energy       772.8945969580 Hartrees.
 IExCor= 4639 DFT=T Ex+Corr=wB97XD ExCW=0 ScaHFX=  1.000000
 ScaDFX=  1.000000  1.000000  1.000000  1.000000 ScalE2=  1.000000  1.000000
 IRadAn=      5 IRanWt=     -1 IRanGd=            0 ICorTp=0 IEmpDi=121
 HFx  wShort=  0.000000 wLong=  0.200000 cFull=  0.222036 cShort=  0.000000 cLong=  0.777964
 DFx  wShort=  0.000000 wLong=  0.200000 cFull=  0.000000 cShort=  0.000000 cLong=  1.000000
 NAtoms=   15 NActive=   15 NUniq=   15 SFac= 1.00D+00 NAtFMM=   60 NAOKFM=F Big=F
 Integral buffers will be    131072 words long.
 Raffenetti 2 integral format.
 Two-electron integral symmetry is turned off.
 R6Disp:  Grimme-D2 Dispersion energy=       -0.0080346408 Hartrees.
 Nuclear repulsion after empirical dispersion term =      772.8865623173 Hartrees.
 Leave Link  301 at Thu May  2 13:57:44 2024, MaxMem=   134217728 cpu:               1.1 elap:               1.1
 (Enter /software/gaussian/g16-c01/sse4/g16/l302.exe)
 NPDir=0 NMtPBC=     1 NCelOv=     1 NCel=       1 NClECP=     1 NCelD=      1
         NCelK=      1 NCelE2=     1 NClLst=     1 CellRange=     0.0.
 One-electron integrals computed using PRISM.
 NBasis=   261 RedAO= T EigKep=  2.52D-06  NBF=   261
 NBsUse=   261 1.00D-06 EigRej= -1.00D+00 NBFU=   261
 Precomputing XC quadrature grid using
 IXCGrd= 4 IRadAn=           5 IRanWt=          -1 IRanGd=           0 AccXCQ= 0.00D+00.
 Generated NRdTot=       0 NPtTot=           0 NUsed=           0 NTot=          32
 NSgBfM=   273   273   273   273   273 MxSgAt=    15 MxSgA2=    15.
 Leave Link  302 at Thu May  2 13:58:07 2024, MaxMem=   134217728 cpu:              22.0 elap:              22.0
 (Enter /software/gaussian/g16-c01/sse4/g16/l303.exe)
 DipDrv:  MaxL=1.
 The nuclear repulsion energy is now       774.2969393037 hartrees.
 Leave Link  303 at Thu May  2 13:58:10 2024, MaxMem=   134217728 cpu:               3.2 elap:               3.2
 (Enter /software/gaussian/g16-c01/sse4/g16/l401.exe)
 ExpMin= 3.50D-02 ExpMax= 4.40D+05 ExpMxC= 1.51D+04 IAcc=3 IRadAn=         5 AccDes= 0.00D+00
 Harris functional with IExCor= 4639 and IRadAn=       5 diagonalized for initial guess.
 HarFok:  IExCor= 4639 AccDes= 0.00D+00 IRadAn=         5 IDoV= 1 UseB2=F ITyADJ=14
 ICtDFT=  3500011 ScaDFX=  1.000000  1.000000  1.000000  1.000000
 FoFCou: FMM=F IPFlag=           0 FMFlag=      100000 FMFlg1=           0
         NFxFlg=           0 DoJE=T BraDBF=F KetDBF=T FulRan=T
         wScrn=  0.000000 ICntrl=       500 IOpCl=  0 I1Cent=   200000004 NGrid=           0
         NMat0=    1 NMatS0=      1 NMatT0=    0 NMatD0=    1 NMtDS0=    0 NMtDT0=    0
 Symmetry not used in FoFCou.
 Harris En= -2970.61686751755    
 JPrj=0 DoOrth=F DoCkMO=F.
 Leave Link  401 at Thu May  2 13:58:42 2024, MaxMem=   134217728 cpu:              31.6 elap:              31.6
 (Enter /software/gaussian/g16-c01/sse4/g16/l502.exe)
 Two-electron integral symmetry not used.
 Closed shell SCF:
 Using DIIS extrapolation, IDIIS=  1040.
 NGot=   134217728 LenX=   134063053 LenY=   133988083
 Requested convergence on RMS density matrix=1.00D-08 within 128 cycles.
 Requested convergence on MAX density matrix=1.00D-06.
 Requested convergence on             energy=1.00D-06.
 No special actions if energy rises.
 Fock matrices will be formed incrementally for  20 cycles.

 Cycle   1  Pass 1  IDiag  1:
 FoFJK:  IHMeth= 1 ICntrl=       0 DoSepK=T KAlg= 0 I1Cent=           0 FoldK=F
 IRaf=         1 NMat=       1 IRICut=       1 DoRegI=T DoRafI=F ISym2E= 0 IDoP0=0 IntGTp=1.
 FoFCou: FMM=F IPFlag=           0 FMFlag=      100000 FMFlg1=           0
         NFxFlg=           0 DoJE=T BraDBF=F KetDBF=F FulRan=T
         wScrn=  0.000000 ICntrl=       500 IOpCl=  0 I1Cent=           0 NGrid=           0
         NMat0=    1 NMatS0=      1 NMatT0=    0 NMatD0=    1 NMtDS0=    0 NMtDT0=    0
 Symmetry not used in FoFCou.
 E= -3009.67261428742    
 DIIS: error= 2.91D-01 at cycle   1 NSaved=   1.
 NSaved= 1 IEnMin= 1 EnMin= -3009.67261428742     IErMin= 1 ErrMin= 2.91D-01
 ErrMax= 2.91D-01  0.00D+00 EMaxC= 1.00D-01 BMatC= 1.19D+01 BMatP= 1.19D+01
 IDIUse=3 WtCom= 0.00D+00 WtEn= 1.00D+00
 Coeff-Com:  0.100D+01
 Coeff-En:   0.100D+01
 Coeff:      0.100D+01
 Gap=     0.392 Goal=   None    Shift=    0.000
 GapD=    0.392 DampG=1.000 DampE=0.250 DampFc=0.2500 IDamp=-1.
 Damping current iteration by 2.50D-01
 RMSDP=8.25D-02 MaxDP=1.04D+01              OVMax= 2.80D-01

 Cycle   2  Pass 1  IDiag  1:
 RMSU=  6.84D-03    CP:  8.69D-01
 E= -3009.97012265585     Delta-E=       -0.297508368425 Rises=F Damp=T
 DIIS: error= 2.19D-01 at cycle   2 NSaved=   2.
 NSaved= 2 IEnMin= 2 EnMin= -3009.97012265585     IErMin= 2 ErrMin= 2.19D-01
 ErrMax= 2.19D-01  0.00D+00 EMaxC= 1.00D-01 BMatC= 5.46D+00 BMatP= 1.19D+01
 IDIUse=3 WtCom= 0.00D+00 WtEn= 1.00D+00
 Coeff-Com: -0.183D+01 0.283D+01
 Coeff-En:   0.000D+00 0.100D+01
 Coeff:      0.000D+00 0.100D+01
 Gap=     0.252 Goal=   None    Shift=    0.000
 RMSDP=5.78D-02 MaxDP=7.24D+00 DE=-2.98D-01 OVMax= 1.19D-01

 Cycle   3  Pass 1  IDiag  1:
 RMSU=  7.32D-03    CP:  4.95D-01  3.00D+00
 E= -3010.38215152138     Delta-E=       -0.412028865532 Rises=F Damp=F
 DIIS: error= 6.54D-02 at cycle   3 NSaved=   3.
 NSaved= 3 IEnMin= 3 EnMin= -3010.38215152138     IErMin= 3 ErrMin= 6.54D-02
 ErrMax= 6.54D-02  0.00D+00 EMaxC= 1.00D-01 BMatC= 7.22D-01 BMatP= 5.46D+00
 IDIUse=3 WtCom= 3.46D-01 WtEn= 6.54D-01
 Coeff-Com:  0.208D+01-0.269D+01 0.160D+01
 Coeff-En:   0.126D-01 0.000D+00 0.987D+00
 Coeff:      0.730D+00-0.930D+00 0.120D+01
 Gap=     0.271 Goal=   None    Shift=    0.000
 RMSDP=1.28D-02 MaxDP=7.25D-01 DE=-4.12D-01 OVMax= 7.87D-02

 Cycle   4  Pass 1  IDiag  1:
 RMSU=  8.34D-03    CP:  5.26D-01  2.43D+00  1.93D+00
 E= -3010.46735163527     Delta-E=       -0.085200113894 Rises=F Damp=F
 DIIS: error= 4.12D-02 at cycle   4 NSaved=   4.
 NSaved= 4 IEnMin= 4 EnMin= -3010.46735163527     IErMin= 4 ErrMin= 4.12D-02
 ErrMax= 4.12D-02  0.00D+00 EMaxC= 1.00D-01 BMatC= 2.84D-01 BMatP= 7.22D-01
 IDIUse=3 WtCom= 5.88D-01 WtEn= 4.12D-01
 Coeff-Com:  0.453D+00-0.586D+00 0.625D+00 0.509D+00
 Coeff-En:   0.000D+00 0.000D+00 0.276D+00 0.724D+00
 Coeff:      0.266D+00-0.344D+00 0.481D+00 0.598D+00
 Gap=     0.279 Goal=   None    Shift=    0.000
 RMSDP=4.67D-03 MaxDP=2.12D-01 DE=-8.52D-02 OVMax= 7.47D-02

 Cycle   5  Pass 1  IDiag  1:
 RMSU=  2.40D-03    CP:  5.17D-01  2.56D+00  1.96D+00  5.57D-01
 E= -3010.52221421680     Delta-E=       -0.054862581530 Rises=F Damp=F
 DIIS: error= 1.64D-02 at cycle   5 NSaved=   5.
 NSaved= 5 IEnMin= 5 EnMin= -3010.52221421680     IErMin= 5 ErrMin= 1.64D-02
 ErrMax= 1.64D-02  0.00D+00 EMaxC= 1.00D-01 BMatC= 2.03D-02 BMatP= 2.84D-01
 IDIUse=3 WtCom= 8.36D-01 WtEn= 1.64D-01
 Coeff-Com:  0.180D-01-0.174D-01 0.214D+00 0.366D+00 0.419D+00
 Coeff-En:   0.000D+00 0.000D+00 0.000D+00 0.101D+00 0.899D+00
 Coeff:      0.150D-01-0.145D-01 0.179D+00 0.323D+00 0.498D+00
 Gap=     0.262 Goal=   None    Shift=    0.000
 RMSDP=4.79D-03 MaxDP=6.71D-01 DE=-5.49D-02 OVMax= 4.43D-02

 Cycle   6  Pass 1  IDiag  1:
 RMSU=  9.68D-04    CP:  4.90D-01  2.63D+00  1.84D+00  7.52D-01  3.76D-01
 E= -3010.53388817465     Delta-E=       -0.011673957854 Rises=F Damp=F
 DIIS: error= 4.93D-03 at cycle   6 NSaved=   6.
 NSaved= 6 IEnMin= 6 EnMin= -3010.53388817465     IErMin= 6 ErrMin= 4.93D-03
 ErrMax= 4.93D-03  0.00D+00 EMaxC= 1.00D-01 BMatC= 2.23D-03 BMatP= 2.03D-02
 IDIUse=3 WtCom= 9.51D-01 WtEn= 4.93D-02
 Coeff-Com: -0.492D-01 0.664D-01 0.996D-02 0.103D+00 0.321D+00 0.549D+00
 Coeff-En:   0.000D+00 0.000D+00 0.000D+00 0.000D+00 0.119D+00 0.881D+00
 Coeff:     -0.468D-01 0.631D-01 0.947D-02 0.975D-01 0.311D+00 0.565D+00
 Gap=     0.247 Goal=   None    Shift=    0.000
 RMSDP=1.01D-03 MaxDP=1.32D-01 DE=-1.17D-02 OVMax= 1.06D-02

 Cycle   7  Pass 1  IDiag  1:
 RMSU=  2.72D-04    CP:  4.95D-01  2.63D+00  1.89D+00  7.22D-01  5.52D-01
                    CP:  7.38D-01
 E= -3010.53546313151     Delta-E=       -0.001574956858 Rises=F Damp=F
 DIIS: error= 4.52D-04 at cycle   7 NSaved=   7.
 NSaved= 7 IEnMin= 7 EnMin= -3010.53546313151     IErMin= 7 ErrMin= 4.52D-04
 ErrMax= 4.52D-04  0.00D+00 EMaxC= 1.00D-01 BMatC= 2.94D-05 BMatP= 2.23D-03
 IDIUse=3 WtCom= 9.95D-01 WtEn= 4.52D-03
 Coeff-Com: -0.241D-01 0.318D-01-0.142D-01 0.110D-01 0.778D-01 0.206D+00
 Coeff-Com:  0.711D+00
 Coeff-En:   0.000D+00 0.000D+00 0.000D+00 0.000D+00 0.000D+00 0.000D+00
 Coeff-En:   0.100D+01
 Coeff:     -0.239D-01 0.317D-01-0.141D-01 0.110D-01 0.774D-01 0.205D+00
 Coeff:      0.713D+00
 Gap=     0.247 Goal=   None    Shift=    0.000
 RMSDP=5.07D-04 MaxDP=7.05D-02 DE=-1.57D-03 OVMax= 5.05D-03

 Cycle   8  Pass 1  IDiag  1:
 RMSU=  1.28D-04    CP:  4.92D-01  2.63D+00  1.89D+00  7.35D-01  5.51D-01
                    CP:  8.82D-01  1.00D+00
 E= -3010.53551591837     Delta-E=       -0.000052786860 Rises=F Damp=F
 DIIS: error= 1.48D-04 at cycle   8 NSaved=   8.
 NSaved= 8 IEnMin= 8 EnMin= -3010.53551591837     IErMin= 8 ErrMin= 1.48D-04
 ErrMax= 1.48D-04  0.00D+00 EMaxC= 1.00D-01 BMatC= 3.64D-06 BMatP= 2.94D-05
 IDIUse=3 WtCom= 9.99D-01 WtEn= 1.48D-03
 Coeff-Com:  0.493D-02-0.678D-02-0.423D-02-0.153D-01-0.445D-01-0.718D-01
 Coeff-Com:  0.126D+00 0.101D+01
 Coeff-En:   0.000D+00 0.000D+00 0.000D+00 0.000D+00 0.000D+00 0.000D+00
 Coeff-En:   0.000D+00 0.100D+01
 Coeff:      0.492D-02-0.677D-02-0.422D-02-0.153D-01-0.444D-01-0.717D-01
 Coeff:      0.126D+00 0.101D+01
 Gap=     0.247 Goal=   None    Shift=    0.000
 RMSDP=1.68D-04 MaxDP=1.77D-02 DE=-5.28D-05 OVMax= 4.79D-03

 Cycle   9  Pass 1  IDiag  1:
 RMSU=  4.68D-05    CP:  4.91D-01  2.63D+00  1.89D+00  7.42D-01  5.54D-01
                    CP:  9.21D-01  1.22D+00  1.36D+00
 E= -3010.53553504111     Delta-E=       -0.000019122741 Rises=F Damp=F
 DIIS: error= 7.54D-05 at cycle   9 NSaved=   9.
 NSaved= 9 IEnMin= 9 EnMin= -3010.53553504111     IErMin= 9 ErrMin= 7.54D-05
 ErrMax= 7.54D-05  0.00D+00 EMaxC= 1.00D-01 BMatC= 7.74D-07 BMatP= 3.64D-06
 IDIUse=1 WtCom= 1.00D+00 WtEn= 0.00D+00
 Coeff-Com:  0.662D-02-0.885D-02 0.136D-02-0.711D-02-0.241D-01-0.513D-01
 Coeff-Com: -0.840D-01 0.270D+00 0.897D+00
 Coeff:      0.662D-02-0.885D-02 0.136D-02-0.711D-02-0.241D-01-0.513D-01
 Coeff:     -0.840D-01 0.270D+00 0.897D+00
 Gap=     0.247 Goal=   None    Shift=    0.000
 RMSDP=1.19D-04 MaxDP=1.59D-02 DE=-1.91D-05 OVMax= 2.50D-03

 Cycle  10  Pass 1  IDiag  1:
 RMSU=  2.45D-05    CP:  4.90D-01  2.63D+00  1.89D+00  7.43D-01  5.53D-01
                    CP:  9.46D-01  1.25D+00  1.61D+00  1.28D+00
 E= -3010.53553955883     Delta-E=       -0.000004517712 Rises=F Damp=F
 DIIS: error= 4.05D-05 at cycle  10 NSaved=  10.
 NSaved=10 IEnMin=10 EnMin= -3010.53553955883     IErMin=10 ErrMin= 4.05D-05
 ErrMax= 4.05D-05  0.00D+00 EMaxC= 1.00D-01 BMatC= 2.26D-07 BMatP= 7.74D-07
 IDIUse=1 WtCom= 1.00D+00 WtEn= 0.00D+00
 Coeff-Com:  0.130D-03-0.140D-03 0.871D-03 0.169D-02 0.975D-02 0.171D-01
 Coeff-Com: -0.435D-01-0.250D+00 0.178D+00 0.109D+01
 Coeff:      0.130D-03-0.140D-03 0.871D-03 0.169D-02 0.975D-02 0.171D-01
 Coeff:     -0.435D-01-0.250D+00 0.178D+00 0.109D+01
 Gap=     0.247 Goal=   None    Shift=    0.000
 RMSDP=3.31D-05 MaxDP=2.60D-03 DE=-4.52D-06 OVMax= 1.58D-03

 Cycle  11  Pass 1  IDiag  1:
 RMSU=  1.53D-05    CP:  4.90D-01  2.63D+00  1.89D+00  7.43D-01  5.52D-01
                    CP:  9.56D-01  1.26D+00  1.73D+00  1.64D+00  1.35D+00
 E= -3010.53554083339     Delta-E=       -0.000001274561 Rises=F Damp=F
 DIIS: error= 1.40D-05 at cycle  11 NSaved=  11.
 NSaved=11 IEnMin=11 EnMin= -3010.53554083339     IErMin=11 ErrMin= 1.40D-05
 ErrMax= 1.40D-05  0.00D+00 EMaxC= 1.00D-01 BMatC= 3.21D-08 BMatP= 2.26D-07
 IDIUse=1 WtCom= 1.00D+00 WtEn= 0.00D+00
 Coeff-Com: -0.483D-03 0.659D-03 0.266D-03 0.135D-02 0.576D-02 0.116D-01
 Coeff-Com: -0.306D-02-0.109D+00-0.379D-01 0.337D+00 0.794D+00
 Coeff:     -0.483D-03 0.659D-03 0.266D-03 0.135D-02 0.576D-02 0.116D-01
 Coeff:     -0.306D-02-0.109D+00-0.379D-01 0.337D+00 0.794D+00
 Gap=     0.247 Goal=   None    Shift=    0.000
 RMSDP=1.31D-05 MaxDP=1.32D-03 DE=-1.27D-06 OVMax= 3.51D-04

 Cycle  12  Pass 1  IDiag  1:
 RMSU=  3.37D-06    CP:  4.90D-01  2.63D+00  1.89D+00  7.42D-01  5.51D-01
                    CP:  9.59D-01  1.26D+00  1.76D+00  1.67D+00  1.51D+00
                    CP:  1.33D+00
 E= -3010.53554097593     Delta-E=       -0.000000142546 Rises=F Damp=F
 DIIS: error= 8.83D-06 at cycle  12 NSaved=  12.
 NSaved=12 IEnMin=12 EnMin= -3010.53554097593     IErMin=12 ErrMin= 8.83D-06
 ErrMax= 8.83D-06  0.00D+00 EMaxC= 1.00D-01 BMatC= 1.06D-08 BMatP= 3.21D-08
 IDIUse=1 WtCom= 1.00D+00 WtEn= 0.00D+00
 Coeff-Com: -0.121D-03 0.157D-03-0.106D-03-0.419D-04-0.171D-02-0.247D-02
 Coeff-Com:  0.152D-01 0.493D-01-0.855D-01-0.291D+00 0.341D+00 0.975D+00
 Coeff:     -0.121D-03 0.157D-03-0.106D-03-0.419D-04-0.171D-02-0.247D-02
 Coeff:      0.152D-01 0.493D-01-0.855D-01-0.291D+00 0.341D+00 0.975D+00
 Gap=     0.247 Goal=   None    Shift=    0.000
 RMSDP=8.56D-06 MaxDP=7.64D-04 DE=-1.43D-07 OVMax= 3.06D-04

 Cycle  13  Pass 1  IDiag  1:
 RMSU=  1.74D-06    CP:  4.90D-01  2.63D+00  1.89D+00  7.42D-01  5.51D-01
                    CP:  9.60D-01  1.26D+00  1.77D+00  1.72D+00  1.61D+00
                    CP:  1.67D+00  1.39D+00
 E= -3010.53554103487     Delta-E=       -0.000000058942 Rises=F Damp=F
 DIIS: error= 3.85D-06 at cycle  13 NSaved=  13.
 NSaved=13 IEnMin=13 EnMin= -3010.53554103487     IErMin=13 ErrMin= 3.85D-06
 ErrMax= 3.85D-06  0.00D+00 EMaxC= 1.00D-01 BMatC= 8.45D-10 BMatP= 1.06D-08
 IDIUse=1 WtCom= 1.00D+00 WtEn= 0.00D+00
 Coeff-Com:  0.238D-04-0.332D-04-0.394D-04-0.143D-03-0.823D-03-0.163D-02
 Coeff-Com:  0.689D-03 0.142D-01 0.769D-03-0.487D-01-0.784D-01 0.539D-01
 Coeff-Com:  0.106D+01
 Coeff:      0.238D-04-0.332D-04-0.394D-04-0.143D-03-0.823D-03-0.163D-02
 Coeff:      0.689D-03 0.142D-01 0.769D-03-0.487D-01-0.784D-01 0.539D-01
 Coeff:      0.106D+01
 Gap=     0.247 Goal=   None    Shift=    0.000
 RMSDP=1.79D-06 MaxDP=1.23D-04 DE=-5.89D-08 OVMax= 7.40D-05

 Cycle  14  Pass 1  IDiag  1:
 RMSU=  5.63D-07    CP:  4.90D-01  2.63D+00  1.89D+00  7.42D-01  5.51D-01
                    CP:  9.60D-01  1.26D+00  1.77D+00  1.72D+00  1.62D+00
                    CP:  1.71D+00  1.55D+00  1.53D+00
 E= -3010.53554104002     Delta-E=       -0.000000005144 Rises=F Damp=F
 DIIS: error= 1.46D-06 at cycle  14 NSaved=  14.
 NSaved=14 IEnMin=14 EnMin= -3010.53554104002     IErMin=14 ErrMin= 1.46D-06
 ErrMax= 1.46D-06  0.00D+00 EMaxC= 1.00D-01 BMatC= 2.69D-10 BMatP= 8.45D-10
 IDIUse=1 WtCom= 1.00D+00 WtEn= 0.00D+00
 Coeff-Com:  0.222D-05-0.255D-05-0.104D-04-0.413D-04 0.516D-04-0.832D-04
 Coeff-Com: -0.280D-02-0.380D-02 0.186D-01 0.411D-01-0.101D+00-0.185D+00
 Coeff-Com:  0.407D+00 0.826D+00
 Coeff:      0.222D-05-0.255D-05-0.104D-04-0.413D-04 0.516D-04-0.832D-04
 Coeff:     -0.280D-02-0.380D-02 0.186D-01 0.411D-01-0.101D+00-0.185D+00
 Coeff:      0.407D+00 0.826D+00
 Gap=     0.247 Goal=   None    Shift=    0.000
 RMSDP=6.97D-07 MaxDP=3.07D-05 DE=-5.14D-09 OVMax= 2.59D-05

 Cycle  15  Pass 1  IDiag  1:
 RMSU=  2.73D-07    CP:  4.90D-01  2.63D+00  1.89D+00  7.42D-01  5.50D-01
                    CP:  9.60D-01  1.26D+00  1.77D+00  1.72D+00  1.62D+00
                    CP:  1.71D+00  1.63D+00  1.77D+00  1.40D+00
 E= -3010.53554104101     Delta-E=       -0.000000000990 Rises=F Damp=F
 DIIS: error= 5.30D-07 at cycle  15 NSaved=  15.
 NSaved=15 IEnMin=15 EnMin= -3010.53554104101     IErMin=15 ErrMin= 5.30D-07
 ErrMax= 5.30D-07  0.00D+00 EMaxC= 1.00D-01 BMatC= 2.42D-11 BMatP= 2.69D-10
 IDIUse=1 WtCom= 1.00D+00 WtEn= 0.00D+00
 Coeff-Com: -0.418D-05 0.594D-05 0.355D-05 0.889D-05 0.808D-04 0.124D-03
 Coeff-Com: -0.792D-03-0.189D-02 0.341D-02 0.120D-01-0.721D-02-0.431D-01
 Coeff-Com: -0.700D-01 0.148D+00 0.959D+00
 Coeff:     -0.418D-05 0.594D-05 0.355D-05 0.889D-05 0.808D-04 0.124D-03
 Coeff:     -0.792D-03-0.189D-02 0.341D-02 0.120D-01-0.721D-02-0.431D-01
 Coeff:     -0.700D-01 0.148D+00 0.959D+00
 Gap=     0.247 Goal=   None    Shift=    0.000
 RMSDP=5.53D-07 MaxDP=7.11D-05 DE=-9.90D-10 OVMax= 8.78D-06

 Cycle  16  Pass 1  IDiag  1:
 RMSU=  1.05D-07    CP:  4.90D-01  2.63D+00  1.89D+00  7.42D-01  5.50D-01
                    CP:  9.61D-01  1.26D+00  1.77D+00  1.71D+00  1.62D+00
                    CP:  1.71D+00  1.67D+00  1.82D+00  1.53D+00  1.47D+00
 E= -3010.53554104107     Delta-E=       -0.000000000064 Rises=F Damp=F
 DIIS: error= 1.62D-07 at cycle  16 NSaved=  16.
 NSaved=16 IEnMin=16 EnMin= -3010.53554104107     IErMin=16 ErrMin= 1.62D-07
 ErrMax= 1.62D-07  0.00D+00 EMaxC= 1.00D-01 BMatC= 4.66D-12 BMatP= 2.42D-11
 IDIUse=1 WtCom= 1.00D+00 WtEn= 0.00D+00
 Coeff-Com: -0.249D-05 0.341D-05 0.263D-05 0.928D-05 0.129D-04 0.354D-04
 Coeff-Com:  0.599D-04 0.370D-04-0.108D-02-0.101D-02 0.101D-01 0.744D-02
 Coeff-Com: -0.623D-01-0.555D-01 0.260D+00 0.842D+00
 Coeff:     -0.249D-05 0.341D-05 0.263D-05 0.928D-05 0.129D-04 0.354D-04
 Coeff:      0.599D-04 0.370D-04-0.108D-02-0.101D-02 0.101D-01 0.744D-02
 Coeff:     -0.623D-01-0.555D-01 0.260D+00 0.842D+00
 Gap=     0.247 Goal=   None    Shift=    0.000
 RMSDP=8.92D-08 MaxDP=5.34D-06 DE=-6.37D-11 OVMax= 2.64D-06

 Cycle  17  Pass 1  IDiag  1:
 RMSU=  3.24D-08    CP:  4.90D-01  2.63D+00  1.89D+00  7.42D-01  5.50D-01
                    CP:  9.61D-01  1.26D+00  1.77D+00  1.71D+00  1.62D+00
                    CP:  1.71D+00  1.67D+00  1.83D+00  1.58D+00  1.69D+00
                    CP:  1.24D+00
 E= -3010.53554104112     Delta-E=       -0.000000000052 Rises=F Damp=F
 DIIS: error= 6.19D-08 at cycle  17 NSaved=  17.
 NSaved=17 IEnMin=17 EnMin= -3010.53554104112     IErMin=17 ErrMin= 6.19D-08
 ErrMax= 6.19D-08  0.00D+00 EMaxC= 1.00D-01 BMatC= 7.27D-13 BMatP= 4.66D-12
 IDIUse=1 WtCom= 1.00D+00 WtEn= 0.00D+00
 Coeff-Com: -0.136D-05 0.180D-05 0.267D-06 0.289D-05-0.796D-05-0.674D-05
 Coeff-Com:  0.133D-03 0.318D-03-0.109D-02-0.226D-02 0.485D-02 0.857D-02
 Coeff-Com: -0.863D-02-0.436D-01-0.656D-01 0.229D+00 0.878D+00
 Coeff:     -0.136D-05 0.180D-05 0.267D-06 0.289D-05-0.796D-05-0.674D-05
 Coeff:      0.133D-03 0.318D-03-0.109D-02-0.226D-02 0.485D-02 0.857D-02
 Coeff:     -0.863D-02-0.436D-01-0.656D-01 0.229D+00 0.878D+00
 Gap=     0.247 Goal=   None    Shift=    0.000
 RMSDP=6.48D-08 MaxDP=6.87D-06 DE=-5.18D-11 OVMax= 1.86D-06

 Cycle  18  Pass 1  IDiag  1:
 RMSU=  1.58D-08    CP:  4.90D-01  2.63D+00  1.89D+00  7.42D-01  5.50D-01
                    CP:  9.61D-01  1.26D+00  1.77D+00  1.71D+00  1.62D+00
                    CP:  1.71D+00  1.67D+00  1.83D+00  1.59D+00  1.75D+00
                    CP:  1.41D+00  1.49D+00
 E= -3010.53554104110     Delta-E=        0.000000000023 Rises=F Damp=F
 DIIS: error= 2.03D-08 at cycle  18 NSaved=  18.
 NSaved=18 IEnMin=17 EnMin= -3010.53554104112     IErMin=18 ErrMin= 2.03D-08
 ErrMax= 2.03D-08  0.00D+00 EMaxC= 1.00D-01 BMatC= 2.01D-13 BMatP= 7.27D-13
 IDIUse=1 WtCom= 1.00D+00 WtEn= 0.00D+00
 Coeff-Com: -0.639D-06 0.846D-06-0.688D-06-0.807D-06-0.121D-05-0.465D-05
 Coeff-Com: -0.450D-05 0.335D-04 0.561D-04 0.160D-03-0.142D-02-0.125D-02
 Coeff-Com:  0.121D-01 0.630D-02-0.539D-01-0.197D+00 0.202D+00 0.103D+01
 Coeff:     -0.639D-06 0.846D-06-0.688D-06-0.807D-06-0.121D-05-0.465D-05
 Coeff:     -0.450D-05 0.335D-04 0.561D-04 0.160D-03-0.142D-02-0.125D-02
 Coeff:      0.121D-01 0.630D-02-0.539D-01-0.197D+00 0.202D+00 0.103D+01
 Gap=     0.247 Goal=   None    Shift=    0.000
 RMSDP=3.77D-08 MaxDP=3.90D-06 DE= 2.32D-11 OVMax= 1.13D-06

 Cycle  19  Pass 1  IDiag  1:
 RMSU=  1.33D-08    CP:  4.90D-01  2.63D+00  1.89D+00  7.42D-01  5.50D-01
                    CP:  9.61D-01  1.26D+00  1.77D+00  1.71D+00  1.62D+00
                    CP:  1.71D+00  1.67D+00  1.82D+00  1.58D+00  1.77D+00
                    CP:  1.52D+00  1.97D+00  1.50D+00
 E= -3010.53554104112     Delta-E=       -0.000000000019 Rises=F Damp=F
 DIIS: error= 8.04D-09 at cycle  19 NSaved=  19.
 NSaved=19 IEnMin=17 EnMin= -3010.53554104112     IErMin=19 ErrMin= 8.04D-09
 ErrMax= 8.04D-09  0.00D+00 EMaxC= 1.00D-01 BMatC= 2.49D-14 BMatP= 2.01D-13
 IDIUse=1 WtCom= 1.00D+00 WtEn= 0.00D+00
 Coeff-Com: -0.642D-07 0.877D-07-0.184D-06-0.458D-06 0.595D-06-0.141D-05
 Coeff-Com: -0.205D-04-0.462D-04 0.152D-03 0.373D-03-0.979D-03-0.127D-02
 Coeff-Com:  0.268D-02 0.673D-02 0.694D-02-0.743D-01-0.751D-01 0.596D-01
 Coeff-Com:  0.108D+01
 Coeff:     -0.642D-07 0.877D-07-0.184D-06-0.458D-06 0.595D-06-0.141D-05
 Coeff:     -0.205D-04-0.462D-04 0.152D-03 0.373D-03-0.979D-03-0.127D-02
 Coeff:      0.268D-02 0.673D-02 0.694D-02-0.743D-01-0.751D-01 0.596D-01
 Coeff:      0.108D+01
 Gap=     0.247 Goal=   None    Shift=    0.000
 RMSDP=2.62D-08 MaxDP=1.79D-06 DE=-1.86D-11 OVMax= 5.21D-07

 Cycle  20  Pass 1  IDiag  1:
 RMSU=  3.59D-09    CP:  4.90D-01  2.63D+00  1.89D+00  7.42D-01  5.50D-01
                    CP:  9.61D-01  1.26D+00  1.77D+00  1.71D+00  1.62D+00
                    CP:  1.71D+00  1.66D+00  1.82D+00  1.58D+00  1.76D+00
                    CP:  1.55D+00  2.17D+00  1.92D+00  1.65D+00
 E= -3010.53554104114     Delta-E=       -0.000000000019 Rises=F Damp=F
 DIIS: error= 5.30D-09 at cycle  20 NSaved=  20.
 NSaved=20 IEnMin=20 EnMin= -3010.53554104114     IErMin=20 ErrMin= 5.30D-09
 ErrMax= 5.30D-09  0.00D+00 EMaxC= 1.00D-01 BMatC= 8.68D-15 BMatP= 2.49D-14
 IDIUse=1 WtCom= 1.00D+00 WtEn= 0.00D+00
 Coeff-Com:  0.412D-07-0.532D-07 0.776D-07 0.132D-06 0.605D-06 0.519D-06
 Coeff-Com: -0.349D-05-0.225D-04 0.349D-04 0.875D-04-0.291D-06 0.187D-04
 Coeff-Com: -0.271D-02 0.972D-04 0.196D-01 0.268D-01-0.703D-01-0.300D+00
 Coeff-Com:  0.410D+00 0.916D+00
 Coeff:      0.412D-07-0.532D-07 0.776D-07 0.132D-06 0.605D-06 0.519D-06
 Coeff:     -0.349D-05-0.225D-04 0.349D-04 0.875D-04-0.291D-06 0.187D-04
 Coeff:     -0.271D-02 0.972D-04 0.196D-01 0.268D-01-0.703D-01-0.300D+00
 Coeff:      0.410D+00 0.916D+00
 Gap=     0.247 Goal=   None    Shift=    0.000
 RMSDP=1.81D-08 MaxDP=1.80D-06 DE=-1.91D-11 OVMax= 2.43D-07

 Cycle  21  Pass 1  IDiag  1:
 Restarting incremental Fock formation.
 E= -3010.53554104115     Delta-E=       -0.000000000012 Rises=F Damp=F
 DIIS: error= 1.40D-09 at cycle  21 NSaved=  20.
 NSaved=20 IEnMin=20 EnMin= -3010.53554104115     IErMin=20 ErrMin= 1.40D-09
 ErrMax= 1.40D-09  0.00D+00 EMaxC= 1.00D-01 BMatC= 5.98D-16 BMatP= 8.68D-15
 IDIUse=1 WtCom= 1.00D+00 WtEn= 0.00D+00
 Large coefficients: NSaved= 20 BigCof=    0.00 CofMax=   10.00 Det=-2.10D-15
 Inversion failed.  Reducing to 19 matrices.
 Large coefficients: NSaved= 19 BigCof=    0.00 CofMax=   10.00 Det=-2.09D-15
 Inversion failed.  Reducing to 18 matrices.
 Large coefficients: NSaved= 18 BigCof=    0.00 CofMax=   10.00 Det=-2.12D-15
 Inversion failed.  Reducing to 17 matrices.
 Large coefficients: NSaved= 17 BigCof=    0.00 CofMax=   10.00 Det=-2.19D-15
 Inversion failed.  Reducing to 16 matrices.
 Large coefficients: NSaved= 16 BigCof=    0.00 CofMax=   10.00 Det=-2.20D-15
 Inversion failed.  Reducing to 15 matrices.
 Coeff-Com:  0.131D-05 0.131D-05-0.792D-05-0.133D-04 0.133D-04 0.898D-04
 Coeff-Com: -0.233D-03-0.302D-03 0.136D-02 0.565D-02 0.234D-02-0.304D-01
 Coeff-Com: -0.533D-01 0.673D-01 0.101D+01
 Coeff:      0.131D-05 0.131D-05-0.792D-05-0.133D-04 0.133D-04 0.898D-04
 Coeff:     -0.233D-03-0.302D-03 0.136D-02 0.565D-02 0.234D-02-0.304D-01
 Coeff:     -0.533D-01 0.673D-01 0.101D+01
 Gap=     0.247 Goal=   None    Shift=    0.000
 RMSDP=4.66D-09 MaxDP=4.00D-07 DE=-1.23D-11 OVMax= 4.30D-08

 SCF Done:  E(RwB97XD) =  -3010.53554104     A.U. after   21 cycles
            NFock= 21  Conv=0.47D-08     -V/T= 2.0016
 KE= 3.005866178974D+03 PE=-8.701417682789D+03 EE= 1.910719023470D+03
 Leave Link  502 at Thu May  2 14:20:02 2024, MaxMem=   134217728 cpu:            1279.9 elap:            1280.2
 (Enter /software/gaussian/g16-c01/sse4/g16/l601.exe)
 Copying SCF densities to generalized density rwf, IOpCl= 0 IROHF=0.

 **********************************************************************

            Population analysis using the SCF Density.

 **********************************************************************

 Alpha  occ. eigenvalues -- -483.32896 -62.87938 -56.67607 -56.67068 -56.67065
 Alpha  occ. eigenvalues --  -19.46445 -19.46221 -14.85746 -10.59612 -10.59456
 Alpha  occ. eigenvalues --  -10.58107 -10.57098 -10.53254 -10.53152  -9.03758
 Alpha  occ. eigenvalues --   -6.86371  -6.84597  -6.84588  -2.96291  -2.95818
 Alpha  occ. eigenvalues --   -2.95809  -2.94389  -2.94389  -1.50010  -1.32966
 Alpha  occ. eigenvalues --   -1.23093  -1.13572  -1.12974  -1.05876  -1.00884
 Alpha  occ. eigenvalues --   -0.95912  -0.90979  -0.85348  -0.81196  -0.80651
 Alpha  occ. eigenvalues --   -0.80230  -0.78444  -0.76321  -0.76047  -0.72740
 Alpha  occ. eigenvalues --   -0.68964  -0.67743  -0.63892  -0.60907  -0.58418
 Alpha  occ. eigenvalues --   -0.57632  -0.57041  -0.55981  -0.55473
 Alpha virt. eigenvalues --   -0.30797  -0.20549  -0.17042  -0.13717  -0.12463
 Alpha virt. eigenvalues --   -0.09028  -0.08402  -0.06607  -0.05078  -0.04268
 Alpha virt. eigenvalues --   -0.03854  -0.03277  -0.02780  -0.02298  -0.01322
 Alpha virt. eigenvalues --   -0.00167   0.00782   0.01608   0.02369   0.02982
 Alpha virt. eigenvalues --    0.03394   0.04667   0.04927   0.05972   0.06255
 Alpha virt. eigenvalues --    0.06633   0.07454   0.08614   0.09011   0.09145
 Alpha virt. eigenvalues --    0.10392   0.11096   0.11377   0.11779   0.12752
 Alpha virt. eigenvalues --    0.13340   0.13384   0.14225   0.14466   0.16134
 Alpha virt. eigenvalues --    0.16606   0.18008   0.18376   0.18850   0.19234
 Alpha virt. eigenvalues --    0.20778   0.21788   0.22185   0.23144   0.24348
 Alpha virt. eigenvalues --    0.25196   0.26210   0.27216   0.28596   0.29554
 Alpha virt. eigenvalues --    0.30226   0.32871   0.33097   0.34810   0.36144
 Alpha virt. eigenvalues --    0.37178   0.37363   0.39312   0.40751   0.40947
 Alpha virt. eigenvalues --    0.43132   0.44068   0.45730   0.46652   0.47597
 Alpha virt. eigenvalues --    0.48221   0.49524   0.50319   0.51313   0.53813
 Alpha virt. eigenvalues --    0.54337   0.54676   0.57321   0.58433   0.59831
 Alpha virt. eigenvalues --    0.61375   0.61911   0.63480   0.65809   0.68119
 Alpha virt. eigenvalues --    0.71277   0.71561   0.72878   0.73177   0.74440
 Alpha virt. eigenvalues --    0.75104   0.78183   0.80087   0.81891   0.85009
 Alpha virt. eigenvalues --    0.86732   0.87367   0.91445   0.93887   0.98858
 Alpha virt. eigenvalues --    0.99991   1.02143   1.03835   1.05266   1.06779
 Alpha virt. eigenvalues --    1.07859   1.12557   1.13378   1.14209   1.18170
 Alpha virt. eigenvalues --    1.20301   1.22725   1.27951   1.32839   1.36073
 Alpha virt. eigenvalues --    1.36508   1.38634   1.42437   1.54265   1.56277
 Alpha virt. eigenvalues --    1.57311   1.59642   1.60856   1.63700   1.65241
 Alpha virt. eigenvalues --    1.67914   1.71165   1.73826   1.74890   1.79156
 Alpha virt. eigenvalues --    1.83225   1.85273   1.87620   1.93108   1.94900
 Alpha virt. eigenvalues --    1.97471   2.01571   2.02766   2.06774   2.08128
 Alpha virt. eigenvalues --    2.12172   2.14295   2.22101   2.23488   2.27645
 Alpha virt. eigenvalues --    2.33465   2.39239   2.41501   2.43951   2.53021
 Alpha virt. eigenvalues --    2.57493   2.62974   2.65886   2.68619   2.71600
 Alpha virt. eigenvalues --    2.73655   2.76237   2.77219   2.80451   2.81537
 Alpha virt. eigenvalues --    2.92688   2.97681   3.01148   3.04954   3.08774
 Alpha virt. eigenvalues --    3.14759   3.16207   3.17388   3.22316   3.26587
 Alpha virt. eigenvalues --    3.28085   3.37753   3.46554   3.49984   3.54683
 Alpha virt. eigenvalues --    3.57248   3.68804   3.74148   3.83307   3.87019
 Alpha virt. eigenvalues --    4.08184   4.09017   4.17768   4.21815   4.41706
 Alpha virt. eigenvalues --    4.45028   4.54229   4.59789   4.93579   4.96239
 Alpha virt. eigenvalues --    5.05393   5.09443   5.61916   6.15094   6.66197
 Alpha virt. eigenvalues --    7.47034   7.49372   7.59531  23.21835  23.61037
 Alpha virt. eigenvalues --   23.70649  23.77795  23.95334  24.02201  35.31417
 Alpha virt. eigenvalues --   47.92396  49.85131  49.93791 289.80059 289.82402
 Alpha virt. eigenvalues --  289.950391020.93611
          Condensed to atoms (all electrons):
               1          2          3          4          5          6
     1  C    7.493030  -1.662200   0.533608  -0.014939   0.294073   0.046385
     2  C   -1.662200  16.712612  -3.207238   0.411134  -0.009980   0.218323
     3  C    0.533608  -3.207238  20.220914  -1.324147   0.020677   0.086445
     4  C   -0.014939   0.411134  -1.324147   6.387772   0.014918  -0.011430
     5  H    0.294073  -0.009980   0.020677   0.014918   0.289739  -0.001055
     6  H    0.046385   0.218323   0.086445  -0.011430  -0.001055   0.277050
     7  H    0.041364  -0.026258   0.021963   0.305123  -0.002313   0.000004
     8  N   -0.088422  -0.218128  -2.005216   0.038226  -0.000272  -0.024684
     9  O    0.007724   0.272878   0.025926  -0.024655  -0.000024  -0.002099
    10  O    0.240006  -0.116997  -0.261611  -0.018876  -0.000032   0.018080
    11  C    0.725945  -0.658221   2.201253  -0.268812  -0.019616   0.006592
    12  H   -0.022841   0.021591   0.010718   0.040044   0.000035  -0.000018
    13  C   -1.501947  -5.681676 -10.059427   0.805671   0.021852  -0.005884
    14  H    0.006389  -0.002487   0.020446  -0.005679  -0.000029   0.000060
    15  Br   0.018204  -0.252710  -0.228788  -0.029832   0.000066  -0.000441
               7          8          9         10         11         12
     1  C    0.041364  -0.088422   0.007724   0.240006   0.725945  -0.022841
     2  C   -0.026258  -0.218128   0.272878  -0.116997  -0.658221   0.021591
     3  C    0.021963  -2.005216   0.025926  -0.261611   2.201253   0.010718
     4  C    0.305123   0.038226  -0.024655  -0.018876  -0.268812   0.040044
     5  H   -0.002313  -0.000272  -0.000024  -0.000032  -0.019616   0.000035
     6  H    0.000004  -0.024684  -0.002099   0.018080   0.006592  -0.000018
     7  H    0.335031  -0.000029   0.000008  -0.000001   0.017031  -0.002742
     8  N   -0.000029   7.725816  -0.017175   0.235534  -0.389101   0.000016
     9  O    0.000008  -0.017175   8.000620   0.010885   0.298713   0.000193
    10  O   -0.000001   0.235534   0.010885   7.698543  -0.006454  -0.000034
    11  C    0.017031  -0.389101   0.298713  -0.006454   8.499341   0.281725
    12  H   -0.002742   0.000016   0.000193  -0.000034   0.281725   0.363712
    13  C   -0.022965   1.826184  -0.551685   0.061662  -4.516009  -0.002311
    14  H   -0.000017  -0.024283   0.011330  -0.001295   0.096293  -0.005687
    15  Br  -0.000393   0.177472  -0.057774   0.003756  -0.059790   0.002187
              13         14         15
     1  C   -1.501947   0.006389   0.018204
     2  C   -5.681676  -0.002487  -0.252710
     3  C  -10.059427   0.020446  -0.228788
     4  C    0.805671  -0.005679  -0.029832
     5  H    0.021852  -0.000029   0.000066
     6  H   -0.005884   0.000060  -0.000441
     7  H   -0.022965  -0.000017  -0.000393
     8  N    1.826184  -0.024283   0.177472
     9  O   -0.551685   0.011330  -0.057774
    10  O    0.061662  -0.001295   0.003756
    11  C   -4.516009   0.096293  -0.059790
    12  H   -0.002311  -0.005687   0.002187
    13  C   25.197329   0.225754   0.556588
    14  H    0.225754   0.349058  -0.052598
    15  Br   0.556588  -0.052598  34.825980
 Mulliken charges:
               1
     1  C   -0.116379
     2  C    0.199356
     3  C   -0.055524
     4  C   -0.304518
     5  H    0.391961
     6  H    0.392673
     7  H    0.334193
     8  N   -0.235938
     9  O    0.025138
    10  O    0.136832
    11  C   -0.208889
    12  H    0.313412
    13  C   -0.353134
    14  H    0.382745
    15  Br   0.098072
 Sum of Mulliken charges =   1.00000
 Mulliken charges with hydrogens summed into heavy atoms:
               1
     1  C    0.275582
     2  C    0.592028
     3  C   -0.055524
     4  C    0.029676
     8  N   -0.235938
     9  O    0.025138
    10  O    0.136832
    11  C    0.104523
    13  C    0.029611
    15  Br   0.098072
 Electronic spatial extent (au):  <R**2>=           3948.6506
 Charge=              1.0000 electrons
 Dipole moment (field-independent basis, Debye):
    X=              2.6089    Y=              2.5013    Z=             -0.2938  Tot=              3.6262
 Quadrupole moment (field-independent basis, Debye-Ang):
   XX=            -68.0283   YY=            -53.0853   ZZ=            -63.4402
   XY=              4.1267   XZ=             -1.5652   YZ=              0.6567
 Traceless Quadrupole moment (field-independent basis, Debye-Ang):
   XX=             -6.5104   YY=              8.4326   ZZ=             -1.9222
   XY=              4.1267   XZ=             -1.5652   YZ=              0.6567
 Octapole moment (field-independent basis, Debye-Ang**2):
  XXX=           -512.6095  YYY=            112.9102  ZZZ=             86.6492  XYY=           -140.8723
  XXY=             50.2557  XXZ=             27.6313  XZZ=           -135.5960  YZZ=             23.4248
  YYZ=             31.0243  XYZ=              4.0448
 Hexadecapole moment (field-independent basis, Debye-Ang**3):
 XXXX=          -3440.3494 YYYY=           -727.6201 ZZZZ=           -406.5004 XXXY=            283.2311
 XXXZ=            187.9136 YYYX=            225.9171 YYYZ=           -189.4124 ZZZX=            175.9120
 ZZZY=           -156.4303 XXYY=           -633.5978 XXZZ=           -534.3031 YYZZ=           -184.7180
 XXYZ=            -50.9316 YYXZ=             61.2193 ZZXY=             42.5017
 N-N= 7.742969393037D+02 E-N=-8.701417682908D+03  KE= 3.005866178974D+03
 No NMR shielding tensors so no spin-rotation constants.
 Leave Link  601 at Thu May  2 14:20:09 2024, MaxMem=   134217728 cpu:               7.5 elap:               7.5
 (Enter /software/gaussian/g16-c01/sse4/g16/l9999.exe)
 Unable to Open any file for archive entry.
 1\1\GINC-BHX0010\SP\RwB97XD\6-311+G(d)\C6H5Br1N1O2(1+)\BWEIGHT\02-May-
 2024\0\\#P wB97XD/6-311+G* NoSymm #P Field=Y-116\\TitleMe\\1,1\C,0,0.5
 193,1.233,-0.0319\C,0,1.9445,1.2692,-0.0367\C,0,2.6204,0.0928,-0.025\C
 ,0,-0.196,0.0301,0.001\H,0,-0.0207,2.1742,-0.0434\H,0,2.4828,2.2089,-0
 .0361\H,0,-1.2777,0.0399,0.0117\N,0,4.0921,0.0959,0.0366\O,0,4.6393,-1
 .0217,0.1446\O,0,4.6649,1.1984,-0.0233\C,0,0.4943,-1.1671,0.021\H,0,-0
 .0325,-2.1149,0.0545\C,0,1.9629,-1.2165,-0.0211\H,0,2.4436,-1.9631,0.6
 151\Br,0,2.173,-1.9491,-1.9062\\Version=ES64L-G16RevC.01\HF=-3010.5355
 41\RMSD=4.656e-09\Dipole=-3.3027835,2.2122147,1.1336218\Quadrupole=-4.
 8403188,6.269448,-1.4291292,3.0680676,-1.1636679,0.4882045\PG=C01 [X(C
 6H5Br1N1O2)]\\@
 The archive entry for this job was punched.


 NEVER LOSE YOUR IGNORANCE, IT CAN'T BE REPLACED.
   -- ANDY CAPP
 Job cpu time:       0 days  0 hours 22 minutes 30.7 seconds.
 Elapsed time:       0 days  0 hours 22 minutes 30.9 seconds.
 File lengths (MBytes):  RWF=     40 Int=      0 D2E=      0 Chk=     32 Scr=      1
 Normal termination of Gaussian 16 at Thu May  2 14:20:11 2024.
