 Entering Gaussian System, Link 0=g16
 Initial command:
 /software/gaussian/g16-a03/l1.exe "/local_scratch/6484765/Gau-27570.inp" -scrdir="/local_scratch/6484765/"
 Entering Link 1 = /software/gaussian/g16-a03/l1.exe PID=     27598.
  
 Copyright (c) 1988,1990,1992,1993,1995,1998,2003,2009,2016,
            Gaussian, Inc.  All Rights Reserved.
  
 This is part of the Gaussian(R) 16 program.  It is based on
 the Gaussian(R) 09 system (copyright 2009, Gaussian, Inc.),
 the Gaussian(R) 03 system (copyright 2003, Gaussian, Inc.),
 the Gaussian(R) 98 system (copyright 1998, Gaussian, Inc.),
 the Gaussian(R) 94 system (copyright 1995, Gaussian, Inc.),
 the Gaussian 92(TM) system (copyright 1992, Gaussian, Inc.),
 the Gaussian 90(TM) system (copyright 1990, Gaussian, Inc.),
 the Gaussian 88(TM) system (copyright 1988, Gaussian, Inc.),
 the Gaussian 86(TM) system (copyright 1986, Carnegie Mellon
 University), and the Gaussian 82(TM) system (copyright 1983,
 Carnegie Mellon University). Gaussian is a federally registered
 trademark of Gaussian, Inc.
  
 This software contains proprietary and confidential information,
 including trade secrets, belonging to Gaussian, Inc.
  
 This software is provided under written license and may be
 used, copied, transmitted, or stored only in accord with that
 written license.
  
 The following legend is applicable only to US Government
 contracts under FAR:
  
                    RESTRICTED RIGHTS LEGEND
  
 Use, reproduction and disclosure by the US Government is
 subject to restrictions as set forth in subparagraphs (a)
 and (c) of the Commercial Computer Software - Restricted
 Rights clause in FAR 52.227-19.
  
 Gaussian, Inc.
 340 Quinnipiac St., Bldg. 40, Wallingford CT 06492
  
  
 ---------------------------------------------------------------
 Warning -- This program may not be used in any manner that
 competes with the business of Gaussian, Inc. or will provide
 assistance to any competitor of Gaussian, Inc.  The licensee
 of this program is prohibited from giving any competitor of
 Gaussian, Inc. access to this program.  By using this program,
 the user acknowledges that Gaussian, Inc. is engaged in the
 business of creating and licensing software in the field of
 computational chemistry and represents and warrants to the
 licensee that it is not a competitor of Gaussian, Inc. and that
 it will not use this program in any manner prohibited above.
 ---------------------------------------------------------------
  

 Cite this work as:
 Gaussian 16, Revision A.03,
 M. J. Frisch, G. W. Trucks, H. B. Schlegel, G. E. Scuseria, 
 M. A. Robb, J. R. Cheeseman, G. Scalmani, V. Barone, 
 G. A. Petersson, H. Nakatsuji, X. Li, M. Caricato, A. V. Marenich, 
 J. Bloino, B. G. Janesko, R. Gomperts, B. Mennucci, H. P. Hratchian, 
 J. V. Ortiz, A. F. Izmaylov, J. L. Sonnenberg, D. Williams-Young, 
 F. Ding, F. Lipparini, F. Egidi, J. Goings, B. Peng, A. Petrone, 
 T. Henderson, D. Ranasinghe, V. G. Zakrzewski, J. Gao, N. Rega, 
 G. Zheng, W. Liang, M. Hada, M. Ehara, K. Toyota, R. Fukuda, 
 J. Hasegawa, M. Ishida, T. Nakajima, Y. Honda, O. Kitao, H. Nakai, 
 T. Vreven, K. Throssell, J. A. Montgomery, Jr., J. E. Peralta, 
 F. Ogliaro, M. J. Bearpark, J. J. Heyd, E. N. Brothers, K. N. Kudin, 
 V. N. Staroverov, T. A. Keith, R. Kobayashi, J. Normand, 
 K. Raghavachari, A. P. Rendell, J. C. Burant, S. S. Iyengar, 
 J. Tomasi, M. Cossi, J. M. Millam, M. Klene, C. Adamo, R. Cammi, 
 J. W. Ochterski, R. L. Martin, K. Morokuma, O. Farkas, 
 J. B. Foresman, and D. J. Fox, Gaussian, Inc., Wallingford CT, 2016.
 
 ******************************************
 Gaussian 16:  ES64L-G16RevA.03 25-Dec-2016
                17-Sep-2021 
 ******************************************
 %chk=geometry.chk
 %mem=2GB
 %nprocshared=1
 Will use up to    1 processors via shared memory.
 --------------------------------------------------------------------
 #p B3LYP/6-311+G** #p TD=(singlets,nstates=30)IOp(6/8=3) IOp(9/40=4)
 --------------------------------------------------------------------
 1/38=1,172=1/1;
 2/12=2,17=6,18=5,40=1/2;
 3/5=4,6=6,7=111,11=9,25=1,30=1,74=-5/1,2,3,8;
 4//1;
 5/5=2,38=5/2;
 8/6=1,10=2,108=30/1;
 9/40=4,41=30,42=1,48=1,70=2/14;
 6/7=2,8=3,9=2,10=2/1;
 99/5=1,9=1/99;
 Leave Link    1 at Fri Sep 17 10:51:55 2021, MaxMem=   268435456 cpu:               0.0 elap:               0.3
 (Enter /software/gaussian/g16-a03/l101.exe)
 ------------------------------
 Scan Step 34, Bond Length 0.67
 ------------------------------
 Symbolic Z-matrix:
 Charge =  0 Multiplicity = 1
 C                     0.        0.       -0.52736 
 H                     0.        0.93726  -1.11871 
 H                     0.       -0.93726  -1.11871 
 O                     0.        0.        0.14264 
 
 ITRead=  0  0  0  0
 MicOpt= -1 -1 -1 -1
 NAtoms=      4 NQM=        4 NQMF=       0 NMMI=      0 NMMIF=      0
                NMic=       0 NMicF=      0.
                    Isotopes and Nuclear Properties:
 (Nuclear quadrupole moments (NQMom) in fm**2, nuclear magnetic moments (NMagM)
  in nuclear magnetons)

  Atom         1           2           3           4
 IAtWgt=          12           1           1          16
 AtmWgt=  12.0000000   1.0078250   1.0078250  15.9949146
 NucSpn=           0           1           1           0
 AtZEff=  -0.0000000  -0.0000000  -0.0000000  -0.0000000
 NQMom=    0.0000000   0.0000000   0.0000000   0.0000000
 NMagM=    0.0000000   2.7928460   2.7928460   0.0000000
 AtZNuc=   6.0000000   1.0000000   1.0000000   8.0000000
 Leave Link  101 at Fri Sep 17 10:51:55 2021, MaxMem=   268435456 cpu:               0.1 elap:               0.1
 (Enter /software/gaussian/g16-a03/l202.exe)
                          Input orientation:                          
 ---------------------------------------------------------------------
 Center     Atomic      Atomic             Coordinates (Angstroms)
 Number     Number       Type             X           Y           Z
 ---------------------------------------------------------------------
      1          6           0        0.000000    0.000000   -0.527360
      2          1           0        0.000000    0.937260   -1.118710
      3          1           0        0.000000   -0.937260   -1.118710
      4          8           0        0.000000    0.000000    0.142640
 ---------------------------------------------------------------------
                    Distance matrix (angstroms):
                    1          2          3          4
     1  C    0.000000
     2  H    1.108220   0.000000
     3  H    1.108220   1.874520   0.000000
     4  O    0.670000   1.571452   1.571452   0.000000
 Stoichiometry    CH2O
 Framework group  C2V[C2(CO),SGV(H2)]
 Deg. of freedom     3
 Full point group                 C2V     NOp   4
 Largest Abelian subgroup         C2V     NOp   4
 Largest concise Abelian subgroup C2      NOp   2
                         Standard orientation:                         
 ---------------------------------------------------------------------
 Center     Atomic      Atomic             Coordinates (Angstroms)
 Number     Number       Type             X           Y           Z
 ---------------------------------------------------------------------
      1          6           0        0.000000   -0.000000   -0.261081
      2          1           0        0.000000    0.937260   -0.852431
      3          1           0       -0.000000   -0.937260   -0.852431
      4          8           0        0.000000    0.000000    0.408919
 ---------------------------------------------------------------------
 Rotational constants (GHZ):         285.4183527         103.9428280          76.1945264
 Leave Link  202 at Fri Sep 17 10:51:55 2021, MaxMem=   268435456 cpu:               0.0 elap:               0.1
 (Enter /software/gaussian/g16-a03/l301.exe)
 Standard basis: 6-311+G(d,p) (5D, 7F)
 Ernie: Thresh=  0.10000D-02 Tol=  0.10000D-05 Strict=F.
 There are    29 symmetry adapted cartesian basis functions of A1  symmetry.
 There are     3 symmetry adapted cartesian basis functions of A2  symmetry.
 There are    11 symmetry adapted cartesian basis functions of B1  symmetry.
 There are    15 symmetry adapted cartesian basis functions of B2  symmetry.
 There are    27 symmetry adapted basis functions of A1  symmetry.
 There are     3 symmetry adapted basis functions of A2  symmetry.
 There are    11 symmetry adapted basis functions of B1  symmetry.
 There are    15 symmetry adapted basis functions of B2  symmetry.
    56 basis functions,    88 primitive gaussians,    58 cartesian basis functions
     8 alpha electrons        8 beta electrons
       nuclear repulsion energy        49.3114348977 Hartrees.
 IExCor=  402 DFT=T Ex+Corr=B3LYP ExCW=0 ScaHFX=  0.200000
 ScaDFX=  0.800000  0.720000  1.000000  0.810000 ScalE2=  1.000000  1.000000
 IRadAn=      5 IRanWt=     -1 IRanGd=            0 ICorTp=0 IEmpDi=  4
 NAtoms=    4 NActive=    4 NUniq=    3 SFac= 1.78D+00 NAtFMM=   60 NAOKFM=F Big=F
 Integral buffers will be    131072 words long.
 Regular integral format.
 Two-electron integral symmetry is turned on.
 Leave Link  301 at Fri Sep 17 10:51:55 2021, MaxMem=   268435456 cpu:               0.1 elap:               0.1
 (Enter /software/gaussian/g16-a03/l302.exe)
 NPDir=0 NMtPBC=     1 NCelOv=     1 NCel=       1 NClECP=     1 NCelD=      1
         NCelK=      1 NCelE2=     1 NClLst=     1 CellRange=     0.0.
 One-electron integrals computed using PRISM.
 One-electron integral symmetry used in STVInt
 NBasis=    56 RedAO= T EigKep=  4.76D-04  NBF=    27     3    11    15
 NBsUse=    56 1.00D-06 EigRej= -1.00D+00 NBFU=    27     3    11    15
 Precomputing XC quadrature grid using
 IXCGrd= 4 IRadAn=           5 IRanWt=          -1 IRanGd=           0 AccXCQ= 0.00D+00.
 Generated NRdTot=       0 NPtTot=           0 NUsed=           0 NTot=          32
 NSgBfM=    58    58    58    58    58 MxSgAt=     4 MxSgA2=     4.
 Leave Link  302 at Fri Sep 17 10:51:55 2021, MaxMem=   268435456 cpu:               0.3 elap:               0.3
 (Enter /software/gaussian/g16-a03/l303.exe)
 DipDrv:  MaxL=1.
 Leave Link  303 at Fri Sep 17 10:51:56 2021, MaxMem=   268435456 cpu:               0.1 elap:               0.1
 (Enter /software/gaussian/g16-a03/l308.exe)
 Leave Link  308 at Fri Sep 17 10:51:56 2021, MaxMem=   268435456 cpu:               0.1 elap:               0.1
 (Enter /software/gaussian/g16-a03/l401.exe)
 ExpMin= 4.38D-02 ExpMax= 8.59D+03 ExpMxC= 1.30D+03 IAcc=3 IRadAn=         5 AccDes= 0.00D+00
 Harris functional with IExCor=  402 and IRadAn=       5 diagonalized for initial guess.
 HarFok:  IExCor=  402 AccDes= 0.00D+00 IRadAn=         5 IDoV= 1 UseB2=F ITyADJ=14
 ICtDFT=  3500011 ScaDFX=  1.000000  1.000000  1.000000  1.000000
 FoFCou: FMM=F IPFlag=           0 FMFlag=      100000 FMFlg1=           0
         NFxFlg=           0 DoJE=T BraDBF=F KetDBF=T FulRan=T
         wScrn=  0.000000 ICntrl=       500 IOpCl=  0 I1Cent=   200000004 NGrid=           0
         NMat0=    1 NMatS0=      1 NMatT0=    0 NMatD0=    1 NMtDS0=    0 NMtDT0=    0
 Petite list used in FoFCou.
 Harris En= -113.072005990219    
 JPrj=0 DoOrth=F DoCkMO=F.
 Initial guess orbital symmetries:
       Occupied  (A1) (A1) (A1) (B2) (B1) (A1) (A1) (B2)
       Virtual   (B1) (A1) (A1) (B2) (B1) (A1) (A1) (B2) (B1) (B2)
                 (A1) (A1) (A1) (B1) (B2) (B2) (A1) (A2) (B1) (A1)
                 (B2) (A1) (A1) (B2) (A1) (B1) (A2) (B2) (B1) (A1)
                 (A1) (B2) (B1) (A1) (A1) (B2) (A2) (A1) (B2) (B1)
                 (A1) (B2) (A1) (B1) (B2) (A1) (A1) (A1)
 The electronic state of the initial guess is 1-A1.
 Leave Link  401 at Fri Sep 17 10:51:56 2021, MaxMem=   268435456 cpu:               0.6 elap:               0.6
 (Enter /software/gaussian/g16-a03/l502.exe)
 Keep R1 ints in memory in symmetry-blocked form, NReq=2159909.
 FoFCou: FMM=F IPFlag=           0 FMFlag=           0 FMFlg1=           0
         NFxFlg=           0 DoJE=F BraDBF=F KetDBF=F FulRan=T
         wScrn=  0.000000 ICntrl=       600 IOpCl=  0 I1Cent=           0 NGrid=           0
         NMat0=    1 NMatS0=   1596 NMatT0=    0 NMatD0=    1 NMtDS0=    0 NMtDT0=    0
 Petite list used in FoFCou.
 Closed shell SCF:
 Using DIIS extrapolation, IDIIS=  1040.
 NGot=   268435456 LenX=   268074384 LenY=   268070579
 Requested convergence on RMS density matrix=1.00D-08 within 128 cycles.
 Requested convergence on MAX density matrix=1.00D-06.
 Requested convergence on             energy=1.00D-06.
 No special actions if energy rises.

 Cycle   1  Pass 1  IDiag  1:
 E= -112.327886052559    
 DIIS: error= 1.28D-01 at cycle   1 NSaved=   1.
 NSaved= 1 IEnMin= 1 EnMin= -112.327886052559     IErMin= 1 ErrMin= 1.28D-01
 ErrMax= 1.28D-01  0.00D+00 EMaxC= 1.00D-01 BMatC= 6.97D-01 BMatP= 6.97D-01
 IDIUse=3 WtCom= 0.00D+00 WtEn= 1.00D+00
 Coeff-Com:  0.100D+01
 Coeff-En:   0.100D+01
 Coeff:      0.100D+01
 Gap=     0.107 Goal=   None    Shift=    0.000
 GapD=    0.107 DampG=1.000 DampE=0.250 DampFc=0.2500 IDamp=-1.
 Damping current iteration by 2.50D-01
 RMSDP=2.35D-02 MaxDP=3.87D-01              OVMax= 3.88D-01

 Cycle   2  Pass 1  IDiag  1:
 E= -112.459963050080     Delta-E=       -0.132076997521 Rises=F Damp=T
 DIIS: error= 6.49D-02 at cycle   2 NSaved=   2.
 NSaved= 2 IEnMin= 2 EnMin= -112.459963050080     IErMin= 2 ErrMin= 6.49D-02
 ErrMax= 6.49D-02  0.00D+00 EMaxC= 1.00D-01 BMatC= 1.80D-01 BMatP= 6.97D-01
 IDIUse=3 WtCom= 3.51D-01 WtEn= 6.49D-01
 Coeff-Com: -0.988D+00 0.199D+01
 Coeff-En:   0.000D+00 0.100D+01
 Coeff:     -0.347D+00 0.135D+01
 Gap=     0.191 Goal=   None    Shift=    0.000
 RMSDP=8.54D-03 MaxDP=1.78D-01 DE=-1.32D-01 OVMax= 1.73D-01

 Cycle   3  Pass 1  IDiag  1:
 E= -112.680121833292     Delta-E=       -0.220158783212 Rises=F Damp=F
 DIIS: error= 2.66D-02 at cycle   3 NSaved=   3.
 NSaved= 3 IEnMin= 3 EnMin= -112.680121833292     IErMin= 3 ErrMin= 2.66D-02
 ErrMax= 2.66D-02  0.00D+00 EMaxC= 1.00D-01 BMatC= 3.59D-02 BMatP= 1.80D-01
 IDIUse=3 WtCom= 7.34D-01 WtEn= 2.66D-01
 Coeff-Com:  0.251D+00-0.118D+00 0.867D+00
 Coeff-En:   0.000D+00 0.000D+00 0.100D+01
 Coeff:      0.184D+00-0.866D-01 0.902D+00
 Gap=     0.221 Goal=   None    Shift=    0.000
 RMSDP=3.46D-03 MaxDP=5.11D-02 DE=-2.20D-01 OVMax= 5.56D-02

 Cycle   4  Pass 1  IDiag  1:
 E= -112.699514157723     Delta-E=       -0.019392324431 Rises=F Damp=F
 DIIS: error= 7.83D-03 at cycle   4 NSaved=   4.
 NSaved= 4 IEnMin= 4 EnMin= -112.699514157723     IErMin= 4 ErrMin= 7.83D-03
 ErrMax= 7.83D-03  0.00D+00 EMaxC= 1.00D-01 BMatC= 3.10D-03 BMatP= 3.59D-02
 IDIUse=3 WtCom= 9.22D-01 WtEn= 7.83D-02
 Coeff-Com: -0.208D-01 0.325D-01 0.208D+00 0.780D+00
 Coeff-En:   0.000D+00 0.000D+00 0.000D+00 0.100D+01
 Coeff:     -0.191D-01 0.299D-01 0.192D+00 0.798D+00
 Gap=     0.211 Goal=   None    Shift=    0.000
 RMSDP=9.32D-04 MaxDP=1.19D-02 DE=-1.94D-02 OVMax= 1.81D-02

 Cycle   5  Pass 1  IDiag  1:
 E= -112.701612403936     Delta-E=       -0.002098246213 Rises=F Damp=F
 DIIS: error= 8.80D-04 at cycle   5 NSaved=   5.
 NSaved= 5 IEnMin= 5 EnMin= -112.701612403936     IErMin= 5 ErrMin= 8.80D-04
 ErrMax= 8.80D-04  0.00D+00 EMaxC= 1.00D-01 BMatC= 3.34D-05 BMatP= 3.10D-03
 IDIUse=3 WtCom= 9.91D-01 WtEn= 8.80D-03
 Coeff-Com: -0.186D-01 0.235D-01 0.166D-01 0.228D+00 0.750D+00
 Coeff-En:   0.000D+00 0.000D+00 0.000D+00 0.000D+00 0.100D+01
 Coeff:     -0.184D-01 0.233D-01 0.165D-01 0.226D+00 0.752D+00
 Gap=     0.212 Goal=   None    Shift=    0.000
 RMSDP=1.12D-04 MaxDP=1.58D-03 DE=-2.10D-03 OVMax= 2.03D-03

 Cycle   6  Pass 1  IDiag  1:
 E= -112.701640190544     Delta-E=       -0.000027786608 Rises=F Damp=F
 DIIS: error= 1.01D-04 at cycle   6 NSaved=   6.
 NSaved= 6 IEnMin= 6 EnMin= -112.701640190544     IErMin= 6 ErrMin= 1.01D-04
 ErrMax= 1.01D-04  0.00D+00 EMaxC= 1.00D-01 BMatC= 4.81D-07 BMatP= 3.34D-05
 IDIUse=3 WtCom= 9.99D-01 WtEn= 1.01D-03
 Coeff-Com: -0.130D-02 0.186D-02-0.286D-02-0.188D-01-0.210D-01 0.104D+01
 Coeff-En:   0.000D+00 0.000D+00 0.000D+00 0.000D+00 0.000D+00 0.100D+01
 Coeff:     -0.130D-02 0.186D-02-0.286D-02-0.188D-01-0.210D-01 0.104D+01
 Gap=     0.212 Goal=   None    Shift=    0.000
 RMSDP=9.43D-06 MaxDP=1.43D-04 DE=-2.78D-05 OVMax= 2.76D-04

 Cycle   7  Pass 1  IDiag  1:
 E= -112.701640537282     Delta-E=       -0.000000346739 Rises=F Damp=F
 DIIS: error= 7.11D-06 at cycle   7 NSaved=   7.
 NSaved= 7 IEnMin= 7 EnMin= -112.701640537282     IErMin= 7 ErrMin= 7.11D-06
 ErrMax= 7.11D-06  0.00D+00 EMaxC= 1.00D-01 BMatC= 2.37D-09 BMatP= 4.81D-07
 IDIUse=1 WtCom= 1.00D+00 WtEn= 0.00D+00
 Coeff-Com:  0.143D-03-0.152D-03-0.575D-03-0.574D-02-0.136D-01 0.624D-01
 Coeff-Com:  0.958D+00
 Coeff:      0.143D-03-0.152D-03-0.575D-03-0.574D-02-0.136D-01 0.624D-01
 Coeff:      0.958D+00
 Gap=     0.212 Goal=   None    Shift=    0.000
 RMSDP=1.04D-06 MaxDP=1.36D-05 DE=-3.47D-07 OVMax= 2.17D-05

 Cycle   8  Pass 1  IDiag  1:
 E= -112.701640539069     Delta-E=       -0.000000001786 Rises=F Damp=F
 DIIS: error= 8.07D-07 at cycle   8 NSaved=   8.
 NSaved= 8 IEnMin= 8 EnMin= -112.701640539069     IErMin= 8 ErrMin= 8.07D-07
 ErrMax= 8.07D-07  0.00D+00 EMaxC= 1.00D-01 BMatC= 2.63D-11 BMatP= 2.37D-09
 IDIUse=1 WtCom= 1.00D+00 WtEn= 0.00D+00
 Coeff-Com:  0.234D-04-0.332D-04-0.253D-04-0.229D-03 0.238D-05 0.215D-02
 Coeff-Com:  0.949D-01 0.903D+00
 Coeff:      0.234D-04-0.332D-04-0.253D-04-0.229D-03 0.238D-05 0.215D-02
 Coeff:      0.949D-01 0.903D+00
 Gap=     0.212 Goal=   None    Shift=    0.000
 RMSDP=1.13D-07 MaxDP=1.61D-06 DE=-1.79D-09 OVMax= 1.74D-06

 Cycle   9  Pass 1  IDiag  1:
 E= -112.701640539086     Delta-E=       -0.000000000018 Rises=F Damp=F
 DIIS: error= 1.22D-07 at cycle   9 NSaved=   9.
 NSaved= 9 IEnMin= 9 EnMin= -112.701640539086     IErMin= 9 ErrMin= 1.22D-07
 ErrMax= 1.22D-07  0.00D+00 EMaxC= 1.00D-01 BMatC= 5.44D-13 BMatP= 2.63D-11
 IDIUse=1 WtCom= 1.00D+00 WtEn= 0.00D+00
 Coeff-Com: -0.568D-05 0.790D-05 0.537D-05 0.705D-04 0.666D-04 0.130D-04
 Coeff-Com: -0.128D-01-0.273D-01 0.104D+01
 Coeff:     -0.568D-05 0.790D-05 0.537D-05 0.705D-04 0.666D-04 0.130D-04
 Coeff:     -0.128D-01-0.273D-01 0.104D+01
 Gap=     0.212 Goal=   None    Shift=    0.000
 RMSDP=2.81D-08 MaxDP=4.59D-07 DE=-1.76D-11 OVMax= 4.25D-07

 Cycle  10  Pass 1  IDiag  1:
 E= -112.701640539087     Delta-E=       -0.000000000001 Rises=F Damp=F
 DIIS: error= 3.63D-08 at cycle  10 NSaved=  10.
 NSaved=10 IEnMin=10 EnMin= -112.701640539087     IErMin=10 ErrMin= 3.63D-08
 ErrMax= 3.63D-08  0.00D+00 EMaxC= 1.00D-01 BMatC= 5.81D-14 BMatP= 5.44D-13
 IDIUse=1 WtCom= 1.00D+00 WtEn= 0.00D+00
 Coeff-Com: -0.302D-06 0.458D-06 0.555D-06 0.367D-05-0.965D-05-0.280D-03
 Coeff-Com: -0.131D-02-0.169D-02 0.925D-01 0.911D+00
 Coeff:     -0.302D-06 0.458D-06 0.555D-06 0.367D-05-0.965D-05-0.280D-03
 Coeff:     -0.131D-02-0.169D-02 0.925D-01 0.911D+00
 Gap=     0.212 Goal=   None    Shift=    0.000
 RMSDP=3.24D-09 MaxDP=5.17D-08 DE=-9.66D-13 OVMax= 1.04D-07

 SCF Done:  E(RB3LYP) =  -112.701640539     A.U. after   10 cycles
            NFock= 10  Conv=0.32D-08     -V/T= 1.9307
 KE= 1.210872999203D+02 PE=-3.686126782952D+02 EE= 8.551230293815D+01
 Leave Link  502 at Fri Sep 17 10:51:59 2021, MaxMem=   268435456 cpu:               2.6 elap:               3.1
 (Enter /software/gaussian/g16-a03/l801.exe)
 DoSCS=F DFT=T ScalE2(SS,OS)=  1.000000  1.000000
 ExpMin= 4.38D-02 ExpMax= 8.59D+03 ExpMxC= 1.30D+03 IAcc=3 IRadAn=         5 AccDes= 0.00D+00
 HarFok:  IExCor=  205 AccDes= 0.00D+00 IRadAn=         5 IDoV=-2 UseB2=F ITyADJ=14
 ICtDFT= 12500011 ScaDFX=  1.000000  1.000000  1.000000  1.000000
 Largest valence mixing into a core orbital is  5.31D-04
 Largest core mixing into a valence orbital is  1.80D-04
 Range of M.O.s used for correlation:     3    56
 NBasis=    56 NAE=     8 NBE=     8 NFC=     2 NFV=     0
 NROrb=     54 NOA=     6 NOB=     6 NVA=    48 NVB=    48

 **** Warning!!: The largest alpha MO coefficient is  0.16928949D+02

 Leave Link  801 at Fri Sep 17 10:52:00 2021, MaxMem=   268435456 cpu:               0.2 elap:               0.2
 (Enter /software/gaussian/g16-a03/l914.exe)
 RHF ground state
 Keep R1, R2, and R3 ints in memory in symmetry-blocked form, NReq=6042848.
 FoFCou: FMM=F IPFlag=           0 FMFlag=           0 FMFlg1=           0
         NFxFlg=           0 DoJE=F BraDBF=F KetDBF=F FulRan=T
         wScrn=  0.000000 ICntrl=       600 IOpCl=  0 I1Cent=           0 NGrid=           0
         NMat0=    1 NMatS0=   1596 NMatT0=    0 NMatD0=    1 NMtDS0=    0 NMtDT0=    0
 Petite list used in FoFCou.
 MDV=   268435456 DFT=T DoStab=F Mixed=T DoRPA=T DoScal=F NonHer=T
 Making orbital integer symmetry assigments:
 Orbital symmetries:
       Occupied  (A1) (A1) (A1) (B2) (B1) (A1) (A1) (B2)
       Virtual   (A1) (B1) (B2) (A1) (A1) (B1) (A1) (B2) (B1) (A1)
                 (B2) (A1) (A1) (B2) (B1) (B2) (A1) (A1) (B1) (A2)
                 (B2) (A1) (A1) (B2) (A1) (B1) (A2) (B1) (B2) (A1)
                 (A1) (B2) (B1) (A1) (B2) (A1) (A2) (B2) (A1) (B1)
                 (A1) (B2) (A1) (B1) (B2) (A1) (A1) (A1)
   120 initial guesses have been made.
 Convergence on wavefunction:    0.001000000000000
 Davidson Disk Diagonalization:  ConvIn= 1.00D-03 SkipCon=T Conv= 1.00D-03.
 Max sub-space:  1728 roots to seek:   120 dimension of matrix:          576
 Iteration     1 Dimension   120 NMult     0 NNew    120
 CISAX will form   120 AO SS matrices at one time.
 NMat=   120 NSing=   120 JSym2X=-1.
 New state      3 was old state      4
 New state      4 was old state      3
 New state      5 was old state      6
 New state      6 was old state      7
 New state      7 was old state      8
 New state      8 was old state      5
 New state     12 was old state     13
 New state     13 was old state     12
 New state     16 was old state     17
 New state     17 was old state     16
 New state     23 was old state     24
 New state     24 was old state     27
 New state     25 was old state     26
 New state     26 was old state     25
 New state     27 was old state     23
 New state     28 was old state     29
 New state     29 was old state     28
 New state     30 was old state     34
 Excitation Energies [eV] at current iteration:
 Root      1 :     4.817482802416631
 Root      2 :     5.144296524715859
 Root      3 :     5.761951490248551
 Root      4 :     5.936424333374378
 Root      5 :     8.144893843411610
 Root      6 :     8.998172502101339
 Root      7 :     9.507198853068040
 Root      8 :     9.537770485450148
 Root      9 :    10.171569089988240
 Root     10 :    10.815076716025940
 Root     11 :    12.305538734982010
 Root     12 :    13.978532013650780
 Root     13 :    13.997602006884030
 Root     14 :    14.441780521968770
 Root     15 :    15.050735772619880
 Root     16 :    15.164275870274810
 Root     17 :    15.393498676456350
 Root     18 :    15.495198122682660
 Root     19 :    16.097295075204710
 Root     20 :    16.116580999179430
 Root     21 :    17.516745216287870
 Root     22 :    17.586832804835640
 Root     23 :    18.316304831200700
 Root     24 :    18.493602296693030
 Root     25 :    18.688317935096950
 Root     26 :    18.778652407573120
 Root     27 :    19.240183233077440
 Root     28 :    19.364368571783270
 Root     29 :    19.665882778580230
 Root     30 :    19.668000785064480
 Root     31 :    19.786859681139170
 Root     32 :    19.806712716486310
 Root     33 :    19.903603525152430
 Root     34 :    20.119875331871070
 Root     35 :    20.613825276514170
 Root     36 :    20.647140458269800
 Root     37 :    20.765771413949230
 Root     38 :    20.822257754055660
 Root     39 :    21.010902955430970
 Root     40 :    21.081364453957820
 Root     41 :    21.237506624778410
 Root     42 :    21.265997839758710
 Root     43 :    21.791029743076640
 Root     44 :    21.823445732897910
 Root     45 :    22.197840220914140
 Root     46 :    23.385005574025430
 Root     47 :    23.473702369619310
 Root     48 :    23.515269791756300
 Root     49 :    23.706774168061070
 Root     50 :    23.710032413002970
 Root     51 :    24.224557029401070
 Root     52 :    24.244108261112390
 Root     53 :    24.299557684762050
 Root     54 :    24.446667222284650
 Root     55 :    24.682799421247780
 Root     56 :    25.105986931040640
 Root     57 :    25.408294171947590
 Root     58 :    25.784508385437950
 Root     59 :    25.992672563665560
 Root     60 :    26.434677104346990
 Root     61 :    26.651591145925630
 Root     62 :    26.654547927226950
 Root     63 :    27.289570399416630
 Root     64 :    28.574963621752240
 Root     65 :    28.825970313595700
 Root     66 :    29.031523854234150
 Root     67 :    29.170761926911510
 Root     68 :    29.312138835962460
 Root     69 :    29.669789679106390
 Root     70 :    29.750297060306120
 Root     71 :    29.965487835086550
 Root     72 :    30.285861114292570
 Root     73 :    30.350146793489550
 Root     74 :    31.006042473817250
 Root     75 :    32.531044084577940
 Root     76 :    32.826104628186140
 Root     77 :    33.047209727152800
 Root     78 :    33.246091947485250
 Root     79 :    33.286284508257230
 Root     80 :    33.872982088211980
 Root     81 :    34.389376820813600
 Root     82 :    34.618204776230480
 Root     83 :    34.869917612715080
 Root     84 :    35.173006175907210
 Root     85 :    35.480172922911500
 Root     86 :    35.653905805396690
 Root     87 :    35.930512264629710
 Root     88 :    36.044097022627700
 Root     89 :    36.213018704058110
 Root     90 :    37.674089723763060
 Root     91 :    38.076518556554710
 Root     92 :    38.332532333757740
 Root     93 :    38.729692671240230
 Root     94 :    38.932582702405170
 Root     95 :    39.241249528808570
 Root     96 :    39.477898453548980
 Root     97 :    39.498028621635250
 Root     98 :    39.569957028881400
 Root     99 :    39.626923914660890
 Root    100 :    39.753572470289240
 Root    101 :    40.127086480029950
 Root    102 :    40.246784258254300
 Root    103 :    40.470523237827170
 Root    104 :    40.647684854773590
 Root    105 :    40.747241435363140
 Root    106 :    40.995157576070690
 Root    107 :    41.727585986667850
 Root    108 :    41.922801415786030
 Root    109 :    42.176180502059130
 Root    110 :    42.491956873482180
 Root    111 :    44.132900956143430
 Root    112 :    44.299479244477280
 Root    113 :    44.564907090287460
 Root    114 :    44.738623627655990
 Root    115 :    45.171654575423350
 Root    116 :    45.522915814786700
 Root    117 :    45.675491096034470
 Root    118 :    46.688394961687440
 Root    119 :    47.460896771147060
 Root    120 :    48.967607652728540
 Iteration     2 Dimension   180 NMult   120 NNew     60
 CISAX will form    60 AO SS matrices at one time.
 NMat=    60 NSing=    60 JSym2X=-1.
 Root      1 not converged, maximum delta is    0.002183289173529
 Root      2 not converged, maximum delta is    0.003423231364872
 Root      3 not converged, maximum delta is    0.003636754969006
 Root      4 not converged, maximum delta is    0.005842723959040
 Root      5 not converged, maximum delta is    0.004499451692990
 Root      6 not converged, maximum delta is    0.007681257281620
 Root      7 not converged, maximum delta is    0.002947132033523
 Root      8 not converged, maximum delta is    0.008524175850897
 Root      9 not converged, maximum delta is    0.003967758611316
 Root     10 not converged, maximum delta is    0.002352608315763
 Root     11 not converged, maximum delta is    0.006697972845005
 Root     12 not converged, maximum delta is    0.010709930448990
 Root     13 not converged, maximum delta is    0.009758573247521
 Root     14 not converged, maximum delta is    0.005967147200794
 Root     15 not converged, maximum delta is    0.008441548757050
 Root     16 not converged, maximum delta is    0.006612357715917
 Root     17 not converged, maximum delta is    0.007498335275646
 Root     18 not converged, maximum delta is    0.006572144119276
 Root     19 not converged, maximum delta is    0.006055389465834
 Root     20 not converged, maximum delta is    0.006411628550967
 New state     21 was old state     22
 Root     21 not converged, maximum delta is    0.016902274705610
 New state     22 was old state     21
 Root     22 not converged, maximum delta is    0.002710939071110
 Root     23 not converged, maximum delta is    0.006374599454947
 Root     24 not converged, maximum delta is    0.004176293690525
 Root     25 not converged, maximum delta is    0.014760809706001
 Root     26 not converged, maximum delta is    0.011013462860495
 Root     27 not converged, maximum delta is    0.034345854683747
 Root     28 not converged, maximum delta is    0.021088598434150
 Root     29 not converged, maximum delta is    0.025625763224286
 Root     30 not converged, maximum delta is    0.003049211052467
 Excitation Energies [eV] at current iteration:
 Root      1 :     4.814437540135673   Change is   -0.003045262280958
 Root      2 :     5.141266054487359   Change is   -0.003030470228500
 Root      3 :     5.758302976889589   Change is   -0.003648513358961
 Root      4 :     5.929197635791852   Change is   -0.007226697582525
 Root      5 :     8.139393765560525   Change is   -0.005500077851084
 Root      6 :     8.990498769239776   Change is   -0.007673732861562
 Root      7 :     9.499563124690850   Change is   -0.007635728377189
 Root      8 :     9.523167777547194   Change is   -0.014602707902955
 Root      9 :    10.167737544224390   Change is   -0.003831545763850
 Root     10 :    10.810824866139630   Change is   -0.004251849886311
 Root     11 :    12.290683452113620   Change is   -0.014855282868387
 Root     12 :    13.964422376121430   Change is   -0.014109637529351
 Root     13 :    13.975668256298420   Change is   -0.021933750585610
 Root     14 :    14.434262990313090   Change is   -0.007517531655682
 Root     15 :    15.031097578422650   Change is   -0.019638194197232
 Root     16 :    15.154094001138640   Change is   -0.010181869136167
 Root     17 :    15.374011980577560   Change is   -0.019486695878789
 Root     18 :    15.485091644100030   Change is   -0.010106478582631
 Root     19 :    16.087307566942900   Change is   -0.009987508261807
 Root     20 :    16.106801387287750   Change is   -0.009779611891683
 Root     21 :    17.502016548177490   Change is   -0.084816256658151
 Root     22 :    17.511994329016690   Change is   -0.004750887271184
 Root     23 :    18.307946567489550   Change is   -0.008358263711149
 Root     24 :    18.489712983841450   Change is   -0.003889312851579
 Root     25 :    18.650488243857260   Change is   -0.037829691239695
 Root     26 :    18.755090892016220   Change is   -0.023561515556893
 Root     27 :    19.176897644004830   Change is   -0.063285589072614
 Root     28 :    19.342528285417510   Change is   -0.021840286365760
 Root     29 :    19.650621410296730   Change is   -0.015261368283499
 Root     30 :    19.664246800339680   Change is   -0.003753984724795
 Iteration     3 Dimension   240 NMult   180 NNew     60
 CISAX will form    60 AO SS matrices at one time.
 NMat=    60 NSing=    60 JSym2X=-1.
 Root      1 has converged.
 Root      2 has converged.
 Root      3 has converged.
 Root      4 has converged.
 Root      5 has converged.
 Root      6 has converged.
 Root      7 has converged.
 Root      8 has converged.
 Root      9 has converged.
 Root     10 has converged.
 Root     11 has converged.
 Root     12 has converged.
 Root     13 has converged.
 Root     14 has converged.
 Root     15 has converged.
 Root     16 has converged.
 Root     17 has converged.
 Root     18 has converged.
 Root     19 has converged.
 Root     20 has converged.
 Root     21 has converged.
 Root     22 has converged.
 Root     23 has converged.
 Root     24 has converged.
 Root     25 has converged.
 Root     26 has converged.
 Root     27 has converged.
 Root     28 has converged.
 Root     29 has converged.
 Root     30 has converged.
 Excitation Energies [eV] at current iteration:
 Root      1 :     4.814436750881343   Change is   -0.000000789254329
 Root      2 :     5.141264828802235   Change is   -0.000001225685124
 Root      3 :     5.758301487661565   Change is   -0.000001489228025
 Root      4 :     5.929195253852345   Change is   -0.000002381939507
 Root      5 :     8.139390483260650   Change is   -0.000003282299875
 Root      6 :     8.990497016197159   Change is   -0.000001753042618
 Root      7 :     9.499555910711143   Change is   -0.000007213979707
 Root      8 :     9.523160685780255   Change is   -0.000007091766938
 Root      9 :    10.167732660635460   Change is   -0.000004883588926
 Root     10 :    10.810819953280560   Change is   -0.000004912859070
 Root     11 :    12.290664335969050   Change is   -0.000019116144574
 Root     12 :    13.964400052295130   Change is   -0.000022323826304
 Root     13 :    13.975626641124820   Change is   -0.000041615173598
 Root     14 :    14.434235277589290   Change is   -0.000027712723796
 Root     15 :    15.031058092112930   Change is   -0.000039486309716
 Root     16 :    15.154076049139850   Change is   -0.000017951998797
 Root     17 :    15.373964588075240   Change is   -0.000047392502321
 Root     18 :    15.485081268864500   Change is   -0.000010375235527
 Root     19 :    16.087293409795970   Change is   -0.000014157146934
 Root     20 :    16.106785923024270   Change is   -0.000015464263486
 Root     21 :    17.501616083096180   Change is   -0.000400465081310
 Root     22 :    17.511983377241950   Change is   -0.000010951774735
 Root     23 :    18.307925053677350   Change is   -0.000021513812200
 Root     24 :    18.489700692994930   Change is   -0.000012290846520
 Root     25 :    18.650447358165530   Change is   -0.000040885691729
 Root     26 :    18.755053242343680   Change is   -0.000037649672540
 Root     27 :    19.176830021836160   Change is   -0.000067622168670
 Root     28 :    19.342407940775600   Change is   -0.000120344641914
 Root     29 :    19.650567949112010   Change is   -0.000053461184726
 Root     30 :    19.664235888203290   Change is   -0.000010912136397
 Convergence achieved on expansion vectors.
 ***********************************************************************
 Excited states from <AA,BB:AA,BB> singles matrix:
 ***********************************************************************
 
 1PDM for each excited state written to RWF  633
 Ground to excited state transition densities written to RWF  633
 Ground to excited state transition electric dipole moments (Au):
       state          X           Y           Z        Dip. S.      Osc.
         1         0.0000      1.0295      0.0000      1.0598      0.1250
         2         0.0000      0.0000      0.0000      0.0000      0.0000
         3        -0.0000      0.4912      0.0000      0.2413      0.0340
         4        -0.0000     -0.0000      0.2432      0.0591      0.0086
         5        -0.0000      0.0000      0.0000      0.0000      0.0000
         6        -0.0000     -0.6446      0.0000      0.4155      0.0915
         7        -0.0000     -0.0000     -0.1635      0.0267      0.0062
         8        -0.0000     -1.2964      0.0000      1.6806      0.3921
         9         0.0000     -0.0000     -0.0000      0.0000      0.0000
        10         0.0000      0.4201      0.0000      0.1765      0.0467
        11        -0.0000      0.0000      0.9349      0.8740      0.2632
        12         0.0000     -0.1947     -0.0000      0.0379      0.0130
        13        -0.0000     -0.0000      0.2766      0.0765      0.0262
        14         0.0854      0.0000     -0.0000      0.0073      0.0026
        15         0.0000     -0.3076     -0.0000      0.0946      0.0348
        16        -0.0000      0.0000     -0.0413      0.0017      0.0006
        17         0.0000      0.0000     -0.1442      0.0208      0.0078
        18        -0.5413      0.0000     -0.0000      0.2930      0.1112
        19        -0.0000     -0.1541     -0.0000      0.0237      0.0094
        20         0.0000      0.0000     -0.5590      0.3125      0.1233
        21        -0.5863     -0.0000     -0.0000      0.3437      0.1474
        22         0.0000      0.0000     -0.2119      0.0449      0.0193
        23        -0.0000     -0.0000      0.4172      0.1741      0.0781
        24         0.0000     -0.3221     -0.0000      0.1038      0.0470
        25         0.3449      0.0000      0.0000      0.1189      0.0543
        26        -0.0000      0.0000      0.1314      0.0173      0.0079
        27        -0.0000     -0.2100     -0.0000      0.0441      0.0207
        28         0.0708     -0.0000      0.0000      0.0050      0.0024
        29         0.0000     -0.0000      0.1546      0.0239      0.0115
        30         0.0000      0.0000      0.0000      0.0000      0.0000
 Ground to excited state transition velocity dipole moments (Au):
       state          X           Y           Z        Dip. S.      Osc.
         1         0.0000     -0.1722     -0.0000      0.0296      0.1117
         2         0.0000     -0.0000     -0.0000      0.0000      0.0000
         3         0.0000     -0.1004      0.0000      0.0101      0.0318
         4         0.0000      0.0000     -0.0522      0.0027      0.0083
         5        -0.0000      0.0000     -0.0000      0.0000      0.0000
         6         0.0000      0.2311     -0.0000      0.0534      0.1078
         7         0.0000      0.0000      0.0501      0.0025      0.0048
         8        -0.0000      0.4286     -0.0000      0.1837      0.3499
         9         0.0000      0.0000      0.0000      0.0000      0.0000
        10         0.0000     -0.1587     -0.0000      0.0252      0.0422
        11         0.0000     -0.0000     -0.4079      0.1664      0.2456
        12         0.0000      0.0653      0.0000      0.0043      0.0055
        13         0.0000      0.0000     -0.1390      0.0193      0.0251
        14        -0.0564      0.0000      0.0000      0.0032      0.0040
        15        -0.0000      0.1664      0.0000      0.0277      0.0334
        16         0.0000     -0.0000      0.0289      0.0008      0.0010
        17        -0.0000      0.0000      0.0759      0.0058      0.0068
        18         0.2958     -0.0000      0.0000      0.0875      0.1025
        19         0.0000      0.0970      0.0000      0.0094      0.0106
        20        -0.0000     -0.0000      0.3241      0.1051      0.1183
        21         0.3848      0.0000      0.0000      0.1481      0.1535
        22        -0.0000      0.0000      0.1360      0.0185      0.0192
        23         0.0000      0.0000     -0.2802      0.0785      0.0778
        24        -0.0000      0.2215      0.0000      0.0491      0.0481
        25        -0.2484     -0.0000     -0.0000      0.0617      0.0600
        26         0.0000     -0.0000     -0.1021      0.0104      0.0101
        27         0.0000      0.1737      0.0000      0.0302      0.0285
        28        -0.0505      0.0000     -0.0000      0.0026      0.0024
        29        -0.0000      0.0000     -0.0972      0.0094      0.0087
        30        -0.0000     -0.0000     -0.0000      0.0000      0.0000
 Ground to excited state transition magnetic dipole moments (Au):
       state          X           Y           Z
         1        -0.4336      0.0000     -0.0000
         2         0.0000      0.0000     -0.9382
         3         0.7891      0.0000      0.0000
         4        -0.0000     -0.0000      0.0000
         5        -0.0000     -0.0000      0.8639
         6        -0.1811     -0.0000     -0.0000
         7         0.0000     -0.0000      0.0000
         8         1.2095     -0.0000      0.0000
         9         0.0000      0.0000     -0.5277
        10         0.0512      0.0000     -0.0000
        11         0.0000     -0.0000     -0.0000
        12         1.4816      0.0000      0.0000
        13         0.0000      0.0000      0.0000
        14        -0.0000      0.0692      0.0000
        15        -0.2831     -0.0000      0.0000
        16        -0.0000     -0.0000     -0.0000
        17         0.0000      0.0000      0.0000
        18         0.0000     -0.5451     -0.0000
        19        -0.1759     -0.0000     -0.0000
        20         0.0000      0.0000      0.0000
        21        -0.0000      0.7982     -0.0000
        22        -0.0000     -0.0000     -0.0000
        23        -0.0000     -0.0000     -0.0000
        24        -0.3301      0.0000     -0.0000
        25         0.0000      0.6828      0.0000
        26         0.0000     -0.0000     -0.0000
        27         0.1354     -0.0000     -0.0000
        28         0.0000      0.0208      0.0000
        29         0.0000      0.0000      0.0000
        30        -0.0000     -0.0000     -0.0434
 Ground to excited state transition velocity quadrupole moments (Au):
       state          XX          YY          ZZ          XY          XZ          YZ
         1         0.0000      0.0000      0.0000      0.0000      0.0000      0.3705
         2         0.0000      0.0000      0.0000      0.3491      0.0000      0.0000
         3         0.0000      0.0000      0.0000     -0.0000      0.0000      0.4493
         4         0.2818      0.8047      0.1133     -0.0000     -0.0000     -0.0000
         5        -0.0000      0.0000     -0.0000     -0.0889     -0.0000      0.0000
         6        -0.0000      0.0000      0.0000     -0.0000     -0.0000     -0.7755
         7        -0.2423     -0.6267     -0.5665      0.0000     -0.0000     -0.0000
         8         0.0000      0.0000      0.0000      0.0000      0.0000     -0.6531
         9         0.0000     -0.0000      0.0000     -0.1556      0.0000     -0.0000
        10         0.0000     -0.0000     -0.0000     -0.0000      0.0000      0.1158
        11         0.0173      1.0188      0.8743     -0.0000     -0.0000     -0.0000
        12         0.0000     -0.0000      0.0000     -0.0000     -0.0000     -0.2017
        13        -0.0409      0.0129     -0.2544     -0.0000      0.0000     -0.0000
        14        -0.0000      0.0000      0.0000     -0.0000      0.2861     -0.0000
        15         0.0000     -0.0000     -0.0000     -0.0000     -0.0000      0.2527
        16        -0.0954     -0.2153      0.3722     -0.0000     -0.0000      0.0000
        17        -0.4902     -0.8200     -0.8402      0.0000      0.0000      0.0000
        18        -0.0000     -0.0000     -0.0000     -0.0000     -0.5060     -0.0000
        19        -0.0000     -0.0000     -0.0000     -0.0000     -0.0000      0.1311
        20        -0.1252     -0.2103     -0.8984      0.0000      0.0000     -0.0000
        21        -0.0000     -0.0000      0.0000      0.0000      0.5842      0.0000
        22        -0.0019     -0.4044      0.0924      0.0000     -0.0000      0.0000
        23        -0.1007      0.1238     -0.7944      0.0000     -0.0000      0.0000
        24        -0.0000      0.0000      0.0000      0.0000      0.0000      0.4676
        25        -0.0000      0.0000      0.0000     -0.0000      0.6198     -0.0000
        26        -0.5675      1.1401      0.6671      0.0000     -0.0000     -0.0000
        27         0.0000      0.0000     -0.0000      0.0000     -0.0000     -0.5618
        28        -0.0000      0.0000      0.0000     -0.0000      0.3453     -0.0000
        29         0.2234      0.9423     -0.6103     -0.0000     -0.0000      0.0000
        30        -0.0000      0.0000     -0.0000      0.1409     -0.0000      0.0000
 <0|del|b> * <b|rxdel|0> + <0|del|b> * <b|delr+rdel|0>
 Rotatory Strengths (R) in cgs (10**-40 erg-esu-cm/Gauss)
       state          XX          YY          ZZ    R(velocity)    E-M Angle
         1         0.0000     -0.0000     -0.0000     -0.0000       90.00
         2         0.0000      0.0000      0.0000      0.0000       90.00
         3         0.0000      0.0000     -0.0000      0.0000       90.00
         4         0.0000     -0.0000     -0.0000     -0.0000       90.00
         5        -0.0000     -0.0000     -0.0000     -0.0000       90.00
         6         0.0000     -0.0000      0.0000     -0.0000       90.00
         7         0.0000      0.0000      0.0000      0.0000       90.00
         8        -0.0000     -0.0000     -0.0000     -0.0000       90.00
         9        -0.0000     -0.0000      0.0000     -0.0000       90.00
        10         0.0000      0.0000     -0.0000     -0.0000       90.00
        11         0.0000      0.0000      0.0000      0.0000       90.00
        12         0.0000      0.0000      0.0000      0.0000       90.00
        13        -0.0000     -0.0000      0.0000     -0.0000       90.00
        14        -0.0000      0.0000      0.0000      0.0000       90.00
        15         0.0000      0.0000      0.0000      0.0000       90.00
        16        -0.0000      0.0000      0.0000     -0.0000       90.00
        17         0.0000      0.0000     -0.0000      0.0000       90.00
        18         0.0000     -0.0000      0.0000      0.0000       90.00
        19        -0.0000     -0.0000     -0.0000     -0.0000       90.00
        20         0.0000     -0.0000     -0.0000      0.0000       90.00
        21         0.0000      0.0000      0.0000      0.0000       90.00
        22         0.0000     -0.0000      0.0000     -0.0000       90.00
        23        -0.0000      0.0000     -0.0000      0.0000       90.00
        24        -0.0000     -0.0000      0.0000      0.0000       90.00
        25        -0.0000      0.0000     -0.0000     -0.0000       90.00
        26        -0.0000      0.0000      0.0000      0.0000       90.00
        27         0.0000     -0.0000      0.0000     -0.0000       90.00
        28        -0.0000      0.0000     -0.0000     -0.0000       90.00
        29         0.0000     -0.0000      0.0000     -0.0000       90.00
        30        -0.0000      0.0000      0.0000      0.0000       90.00
 1/2[<0|r|b>*<b|rxdel|0> + (<0|rxdel|b>*<b|r|0>)*]
 Rotatory Strengths (R) in cgs (10**-40 erg-esu-cm/Gauss)
       state          XX          YY          ZZ     R(length)
         1         0.0000     -0.0000      0.0000     -0.0000
         2        -0.0000     -0.0000      0.0000      0.0000
         3         0.0000     -0.0000     -0.0000      0.0000
         4        -0.0000     -0.0000     -0.0000     -0.0000
         5        -0.0000      0.0000     -0.0000     -0.0000
         6        -0.0000     -0.0000      0.0000     -0.0000
         7         0.0000     -0.0000      0.0000      0.0000
         8         0.0000     -0.0000     -0.0000     -0.0000
         9        -0.0000      0.0000     -0.0000     -0.0000
        10        -0.0000     -0.0000      0.0000     -0.0000
        11         0.0000      0.0000      0.0000      0.0000
        12        -0.0000      0.0000      0.0000     -0.0000
        13         0.0000      0.0000     -0.0000     -0.0000
        14         0.0000     -0.0000      0.0000     -0.0000
        15         0.0000     -0.0000      0.0000      0.0000
        16        -0.0000      0.0000     -0.0000     -0.0000
        17        -0.0000     -0.0000      0.0000      0.0000
        18         0.0000      0.0000     -0.0000      0.0000
        19        -0.0000     -0.0000     -0.0000     -0.0000
        20        -0.0000     -0.0000      0.0000      0.0000
        21        -0.0000      0.0000     -0.0000      0.0000
        22         0.0000      0.0000     -0.0000     -0.0000
        23        -0.0000     -0.0000      0.0000      0.0000
        24         0.0000      0.0000     -0.0000      0.0000
        25        -0.0000     -0.0000     -0.0000     -0.0000
        26         0.0000      0.0000      0.0000      0.0000
        27         0.0000     -0.0000     -0.0000     -0.0000
        28        -0.0000      0.0000     -0.0000     -0.0000
        29        -0.0000      0.0000     -0.0000     -0.0000
        30         0.0000      0.0000      0.0000      0.0000
  1/2[<0|del|b>*<b|r|0> + (<0|r|b>*<b|del|0>)*] (Au)
       state          X           Y           Z        Dip. S.   Osc.(frdel)
         1         0.0000     -0.1773     -0.0000      0.1773      0.1182
         2         0.0000     -0.0000     -0.0000      0.0000      0.0000
         3        -0.0000     -0.0493      0.0000      0.0493      0.0329
         4        -0.0000     -0.0000     -0.0127      0.0127      0.0085
         5         0.0000      0.0000     -0.0000     -0.0000     -0.0000
         6        -0.0000     -0.1490     -0.0000      0.1490      0.0993
         7        -0.0000     -0.0000     -0.0082      0.0082      0.0055
         8         0.0000     -0.5556     -0.0000      0.5556      0.3704
         9         0.0000     -0.0000     -0.0000      0.0000      0.0000
        10         0.0000     -0.0667     -0.0000      0.0667      0.0444
        11        -0.0000     -0.0000     -0.3813      0.3813      0.2542
        12         0.0000     -0.0127     -0.0000      0.0127      0.0085
        13        -0.0000     -0.0000     -0.0384      0.0384      0.0256
        14        -0.0048      0.0000     -0.0000      0.0048      0.0032
        15        -0.0000     -0.0512     -0.0000      0.0512      0.0341
        16        -0.0000     -0.0000     -0.0012      0.0012      0.0008
        17        -0.0000      0.0000     -0.0109      0.0109      0.0073
        18        -0.1601     -0.0000     -0.0000      0.1601      0.1068
        19        -0.0000     -0.0150     -0.0000      0.0150      0.0100
        20        -0.0000     -0.0000     -0.1812      0.1812      0.1208
        21        -0.2256     -0.0000     -0.0000      0.2256      0.1504
        22        -0.0000      0.0000     -0.0288      0.0288      0.0192
        23        -0.0000     -0.0000     -0.1169      0.1169      0.0779
        24        -0.0000     -0.0714     -0.0000      0.0714      0.0476
        25        -0.0857     -0.0000     -0.0000      0.0857      0.0571
        26        -0.0000     -0.0000     -0.0134      0.0134      0.0089
        27        -0.0000     -0.0365     -0.0000      0.0365      0.0243
        28        -0.0036     -0.0000     -0.0000      0.0036      0.0024
        29        -0.0000     -0.0000     -0.0150      0.0150      0.0100
        30        -0.0000     -0.0000     -0.0000      0.0000      0.0000

 Excitation energies and oscillator strengths:
 
 Excited State   1:      Singlet-B2     4.8144 eV  257.53 nm  f=0.1250  <S**2>=0.000
       3 -> 11         0.00075
       3 -> 16         0.00064
       3 -> 19         0.00076
       3 -> 22         0.00047
       3 -> 24        -0.00101
       3 -> 29         0.00020
       3 -> 32        -0.00019
       3 -> 40        -0.00023
       3 -> 43         0.00021
       3 -> 50        -0.00010
       3 -> 53         0.00015
       4 ->  9        -0.00286
       4 -> 12         0.00294
       4 -> 13         0.00349
       4 -> 15         0.00151
       4 -> 18         0.00275
       4 -> 20         0.00205
       4 -> 21         0.00170
       4 -> 25         0.00145
       4 -> 26        -0.00077
       4 -> 30         0.00070
       4 -> 31         0.00154
       4 -> 33         0.00026
       4 -> 38        -0.00066
       4 -> 42        -0.00049
       4 -> 44        -0.00030
       4 -> 47        -0.00077
       4 -> 49         0.00015
       4 -> 51        -0.00010
       5 -> 28         0.00182
       5 -> 35         0.00081
       5 -> 45         0.00079
       6 -> 11        -0.00526
       6 -> 16         0.00350
       6 -> 19         0.00054
       6 -> 22        -0.00079
       6 -> 24        -0.00466
       6 -> 29         0.00070
       6 -> 32        -0.00073
       6 -> 37         0.00020
       6 -> 43         0.00016
       6 -> 46         0.00034
       7 -> 11         0.00824
       7 -> 16         0.00351
       7 -> 19         0.00298
       7 -> 24        -0.00056
       7 -> 29        -0.00110
       7 -> 32         0.00087
       7 -> 37        -0.00071
       7 -> 43        -0.00042
       7 -> 46         0.00041
       7 -> 50         0.00043
       7 -> 53        -0.00011
       8 ->  9         0.70526
       8 -> 12        -0.00028
       8 -> 13         0.04876
       8 -> 15        -0.00635
       8 -> 18        -0.02211
       8 -> 20         0.00544
       8 -> 21         0.01030
       8 -> 25        -0.00022
       8 -> 26        -0.00040
       8 -> 30        -0.00309
       8 -> 31        -0.00206
       8 -> 33        -0.00102
       8 -> 38        -0.00112
       8 -> 42        -0.00075
       8 -> 44         0.00033
       8 -> 47         0.00076
       8 -> 49        -0.00028
       8 -> 51         0.00011
       3 <- 11         0.00032
       3 <- 16         0.00030
       3 <- 19         0.00049
       3 <- 22         0.00037
       3 <- 24        -0.00076
       3 <- 29         0.00016
       3 <- 32        -0.00020
       3 <- 40        -0.00023
       3 <- 43         0.00021
       3 <- 53         0.00016
       4 <-  9        -0.00127
       4 <- 12        -0.00022
       4 <- 13         0.00287
       4 <- 15         0.00178
       4 <- 18         0.00054
       4 <- 20         0.00119
       4 <- 21         0.00132
       4 <- 25         0.00118
       4 <- 26        -0.00132
       4 <- 30         0.00055
       4 <- 31         0.00064
       4 <- 33         0.00022
       4 <- 38        -0.00042
       4 <- 39         0.00015
       4 <- 42        -0.00040
       4 <- 44        -0.00024
       4 <- 47        -0.00069
       5 <- 28         0.00152
       5 <- 35         0.00066
       5 <- 45         0.00067
       6 <- 11        -0.00095
       6 <- 16         0.00309
       6 <- 19         0.00078
       6 <- 24        -0.00342
       6 <- 29         0.00023
       6 <- 32        -0.00064
       6 <- 37         0.00026
       6 <- 43         0.00011
       6 <- 46         0.00031
       6 <- 50         0.00017
       7 <- 11         0.00177
       7 <- 16         0.00148
       7 <- 19         0.00029
       7 <- 24         0.00012
       7 <- 29        -0.00159
       7 <- 32         0.00070
       7 <- 37        -0.00043
       7 <- 43        -0.00029
       7 <- 46         0.00043
       7 <- 50         0.00049
       8 <-  9        -0.00873
       8 <- 12        -0.00547
       8 <- 13         0.02042
       8 <- 15         0.00627
       8 <- 18         0.00137
       8 <- 20         0.00057
       8 <- 21         0.00526
       8 <- 25         0.00307
       8 <- 30        -0.00204
       8 <- 31        -0.00138
       8 <- 33        -0.00137
       8 <- 38        -0.00107
       8 <- 42        -0.00063
       8 <- 47         0.00065
       8 <- 49        -0.00019
 This state for optimization and/or second-order correction.
 Total Energy, E(TD-HF/TD-DFT) =  -112.524713244    
 Copying the excited state density for this state as the 1-particle RhoCI density.
 
 Excited State   2:      Singlet-A2     5.1413 eV  241.16 nm  f=0.0000  <S**2>=0.000
       3 -> 28        -0.00186
       3 -> 35        -0.00115
       3 -> 45        -0.00041
       4 -> 10        -0.00089
       4 -> 14         0.00081
       4 -> 17        -0.00358
       4 -> 23         0.00159
       4 -> 27        -0.00220
       4 -> 36        -0.00147
       4 -> 41        -0.00015
       4 -> 48        -0.00013
       4 -> 52        -0.00027
       5 -> 11         0.00028
       5 -> 16        -0.00015
       5 -> 19         0.00035
       5 -> 22        -0.00091
       5 -> 24        -0.00023
       5 -> 29         0.00023
       5 -> 32        -0.00011
       5 -> 37        -0.00033
       5 -> 40         0.00010
       5 -> 43        -0.00038
       5 -> 46        -0.00035
       5 -> 50         0.00019
       6 -> 28        -0.00325
       6 -> 35         0.00048
       7 -> 28         0.00150
       7 -> 35        -0.00033
       7 -> 45        -0.00045
       8 -> 10         0.70611
       8 -> 14        -0.02584
       8 -> 17         0.02793
       8 -> 23         0.00306
       8 -> 27         0.00150
       8 -> 34         0.00322
       8 -> 36        -0.00190
       8 -> 41         0.00027
       8 -> 48         0.00014
       8 -> 52         0.00037
       3 <- 28        -0.00153
       3 <- 35        -0.00099
       3 <- 45        -0.00039
       4 <- 10        -0.00018
       4 <- 14         0.00068
       4 <- 17        -0.00076
       4 <- 23         0.00012
       4 <- 27        -0.00038
       4 <- 34         0.00075
       4 <- 36        -0.00082
       4 <- 41        -0.00023
       5 <- 11         0.00060
       5 <- 16        -0.00057
       5 <- 19         0.00148
       5 <- 22        -0.00132
       5 <- 24        -0.00114
       5 <- 29         0.00131
       5 <- 32         0.00022
       5 <- 37        -0.00074
       5 <- 43        -0.00043
       5 <- 46        -0.00036
       5 <- 53        -0.00025
       6 <- 28        -0.00316
       6 <- 35         0.00062
       7 <- 28         0.00156
       7 <- 35        -0.00042
       7 <- 45        -0.00045
       8 <- 10         0.00146
       8 <- 14         0.00513
       8 <- 17        -0.00623
       8 <- 23         0.00019
       8 <- 27        -0.00053
       8 <- 34         0.00309
       8 <- 36        -0.00152
       8 <- 41         0.00018
       8 <- 52         0.00013
 
 Excited State   3:      Singlet-B2     5.7583 eV  215.31 nm  f=0.0340  <S**2>=0.000
       3 -> 11        -0.00015
       3 -> 16         0.00046
       3 -> 19        -0.00029
       3 -> 22         0.00030
       3 -> 24        -0.00033
       3 -> 29        -0.00039
       3 -> 32         0.00013
       3 -> 37        -0.00021
       3 -> 40         0.00010
       3 -> 43        -0.00021
       3 -> 46         0.00014
       3 -> 50         0.00011
       3 -> 53        -0.00017
       4 ->  9         0.00176
       4 -> 12         0.00032
       4 -> 13         0.00124
       4 -> 15         0.00244
       4 -> 18        -0.00133
       4 -> 20        -0.00050
       4 -> 21         0.00121
       4 -> 25         0.00085
       4 -> 26         0.00057
       4 -> 30        -0.00217
       4 -> 31        -0.00053
       4 -> 38         0.00025
       4 -> 39        -0.00096
       4 -> 42         0.00031
       4 -> 47         0.00052
       5 -> 28        -0.00099
       5 -> 35        -0.00122
       5 -> 45        -0.00069
       6 -> 11        -0.00052
       6 -> 16         0.00372
       6 -> 19        -0.00171
       6 -> 24        -0.00198
       6 -> 29         0.00183
       6 -> 32         0.00041
       6 -> 37         0.00060
       6 -> 40         0.00043
       6 -> 43         0.00030
       6 -> 46        -0.00030
       6 -> 50        -0.00024
       6 -> 53         0.00014
       7 -> 11        -0.00213
       7 -> 16        -0.00423
       7 -> 19        -0.00124
       7 -> 22         0.00068
       7 -> 24         0.00313
       7 -> 29        -0.00098
       7 -> 32        -0.00046
       7 -> 37         0.00056
       7 -> 43         0.00017
       7 -> 46        -0.00057
       7 -> 50        -0.00030
       7 -> 53         0.00014
       8 ->  9        -0.00116
       8 -> 12         0.70571
       8 -> 13         0.03186
       8 -> 15         0.02705
       8 -> 18         0.00822
       8 -> 20         0.01580
       8 -> 21         0.00533
       8 -> 25        -0.00089
       8 -> 26         0.00177
       8 -> 30        -0.00258
       8 -> 31         0.00046
       8 -> 33        -0.00024
       8 -> 38        -0.00039
       8 -> 39         0.00142
       8 -> 42        -0.00086
       8 -> 47        -0.00043
       8 -> 49         0.00011
       8 -> 54        -0.00015
       3 <- 16         0.00045
       3 <- 22         0.00015
       3 <- 24        -0.00038
       3 <- 29        -0.00023
       3 <- 32         0.00013
       3 <- 37        -0.00022
       3 <- 43        -0.00019
       3 <- 46         0.00011
       3 <- 53        -0.00022
       4 <-  9        -0.00119
       4 <- 12        -0.00015
       4 <- 13         0.00128
       4 <- 15         0.00069
       4 <- 18         0.00061
       4 <- 20        -0.00043
       4 <- 21         0.00083
       4 <- 25         0.00097
       4 <- 26         0.00062
       4 <- 30        -0.00144
       4 <- 33        -0.00059
       4 <- 38         0.00017
       4 <- 39        -0.00072
       4 <- 42         0.00033
       4 <- 47         0.00048
       5 <- 28        -0.00059
       5 <- 35        -0.00105
       5 <- 45        -0.00061
       6 <- 11        -0.00043
       6 <- 16         0.00077
       6 <- 19         0.00034
       6 <- 22        -0.00059
       6 <- 24        -0.00161
       6 <- 29         0.00137
       6 <- 32         0.00058
       6 <- 37         0.00058
       6 <- 40         0.00037
       6 <- 43         0.00020
       6 <- 46        -0.00025
       6 <- 50        -0.00018
       7 <- 16        -0.00140
       7 <- 19        -0.00058
       7 <- 22         0.00044
       7 <- 24         0.00177
       7 <- 29        -0.00019
       7 <- 32        -0.00037
       7 <- 37         0.00020
       7 <- 43         0.00010
       7 <- 46        -0.00051
       7 <- 50        -0.00038
       8 <-  9        -0.00502
       8 <- 12         0.00107
       8 <- 13         0.01104
       8 <- 15         0.00428
       8 <- 18        -0.00117
       8 <- 20        -0.00302
       8 <- 21         0.00332
       8 <- 25         0.00065
       8 <- 30        -0.00221
       8 <- 31         0.00042
       8 <- 33        -0.00011
       8 <- 38        -0.00021
       8 <- 39         0.00123
       8 <- 42        -0.00075
       8 <- 47        -0.00035
 
 Excited State   4:      Singlet-A1     5.9292 eV  209.11 nm  f=0.0086  <S**2>=0.000
       3 ->  9         0.00127
       3 -> 12        -0.00049
       3 -> 13         0.00020
       3 -> 15        -0.00071
       3 -> 18        -0.00150
       3 -> 20        -0.00011
       3 -> 21         0.00078
       3 -> 25        -0.00062
       3 -> 26        -0.00029
       3 -> 30         0.00071
       3 -> 31        -0.00075
       3 -> 33         0.00041
       3 -> 38         0.00035
       3 -> 39         0.00033
       3 -> 47        -0.00012
       3 -> 51         0.00019
       3 -> 54        -0.00013
       4 -> 11        -0.00614
       4 -> 16        -0.00637
       4 -> 19        -0.00465
       4 -> 22        -0.00238
       4 -> 24         0.00327
       4 -> 29         0.00025
       4 -> 37        -0.00103
       4 -> 40        -0.00012
       4 -> 43         0.00026
       4 -> 50         0.00019
       5 -> 10        -0.00350
       5 -> 14        -0.00348
       5 -> 17        -0.00289
       5 -> 23        -0.00342
       5 -> 27        -0.00092
       5 -> 34        -0.00088
       5 -> 36        -0.00059
       5 -> 41        -0.00012
       5 -> 48         0.00022
       6 ->  9         0.01142
       6 -> 12         0.00632
       6 -> 13        -0.00417
       6 -> 15        -0.00421
       6 -> 18        -0.00713
       6 -> 20         0.00472
       6 -> 21         0.00118
       6 -> 25        -0.00575
       6 -> 26         0.00088
       6 -> 30        -0.00034
       6 -> 31         0.00148
       6 -> 33         0.00197
       6 -> 38         0.00120
       6 -> 39        -0.00114
       6 -> 42         0.00013
       6 -> 44         0.00059
       6 -> 49         0.00045
       7 ->  9         0.00707
       7 -> 12        -0.01212
       7 -> 13         0.00131
       7 -> 15         0.00499
       7 -> 18        -0.00702
       7 -> 20        -0.00372
       7 -> 21        -0.00058
       7 -> 25         0.00179
       7 -> 26        -0.00288
       7 -> 30        -0.00061
       7 -> 31        -0.00180
       7 -> 33         0.00013
       7 -> 38        -0.00065
       7 -> 39         0.00055
       7 -> 42        -0.00013
       7 -> 44        -0.00034
       7 -> 51        -0.00017
       8 -> 11         0.70475
       8 -> 16         0.05240
       8 -> 19        -0.01909
       8 -> 22        -0.00057
       8 -> 24        -0.00658
       8 -> 29        -0.00391
       8 -> 32         0.00195
       8 -> 37        -0.00325
       8 -> 40        -0.00038
       8 -> 43         0.00184
       8 -> 46        -0.00090
       8 -> 50         0.00018
       3 <-  9         0.00069
       3 <- 12        -0.00024
       3 <- 13         0.00016
       3 <- 15        -0.00044
       3 <- 18        -0.00095
       3 <- 21         0.00051
       3 <- 25        -0.00049
       3 <- 26        -0.00023
       3 <- 30         0.00053
       3 <- 31        -0.00050
       3 <- 33         0.00036
       3 <- 38         0.00027
       3 <- 39         0.00027
       3 <- 47        -0.00015
       3 <- 51         0.00016
       3 <- 54        -0.00012
       4 <- 11        -0.00250
       4 <- 16        -0.00260
       4 <- 19        -0.00265
       4 <- 22        -0.00172
       4 <- 24         0.00178
       4 <- 29         0.00010
       4 <- 32         0.00015
       4 <- 37        -0.00086
       4 <- 40        -0.00011
       4 <- 43         0.00024
       4 <- 50         0.00017
       5 <- 10        -0.00191
       5 <- 14        -0.00198
       5 <- 17        -0.00174
       5 <- 23        -0.00237
       5 <- 27        -0.00067
       5 <- 34        -0.00073
       5 <- 36        -0.00050
       5 <- 48         0.00020
       6 <-  9         0.00811
       6 <- 12         0.00318
       6 <- 13        -0.00327
       6 <- 15        -0.00343
       6 <- 18        -0.00386
       6 <- 20         0.00267
       6 <- 21         0.00161
       6 <- 25        -0.00385
       6 <- 26         0.00054
       6 <- 31         0.00109
       6 <- 33         0.00142
       6 <- 38         0.00120
       6 <- 39        -0.00090
       6 <- 42         0.00012
       6 <- 44         0.00059
       6 <- 49         0.00037
       7 <- 12        -0.00492
       7 <- 13         0.00170
       7 <- 15         0.00349
       7 <- 18        -0.00327
       7 <- 20        -0.00179
       7 <- 21        -0.00078
       7 <- 25         0.00125
       7 <- 26        -0.00186
       7 <- 30        -0.00066
       7 <- 31        -0.00138
       7 <- 38        -0.00060
       7 <- 39         0.00032
       7 <- 44        -0.00035
       7 <- 47         0.00010
       7 <- 51        -0.00016
       8 <- 11        -0.00961
       8 <- 16         0.00505
       8 <- 19        -0.01539
       8 <- 22        -0.00399
       8 <- 24        -0.00257
       8 <- 29        -0.00276
       8 <- 32         0.00175
       8 <- 37        -0.00257
       8 <- 40        -0.00013
       8 <- 43         0.00147
       8 <- 46        -0.00087
       8 <- 50         0.00018
 
 Excited State   5:      Singlet-A2     8.1394 eV  152.33 nm  f=0.0000  <S**2>=0.000
       3 -> 28         0.00262
       3 -> 35         0.00172
       3 -> 45         0.00059
       4 -> 10         0.00055
       4 -> 14        -0.00748
       4 -> 17         0.00158
       4 -> 23        -0.00342
       4 -> 27         0.00070
       4 -> 34         0.00101
       4 -> 36         0.00265
       4 -> 52         0.00035
       5 -> 16        -0.00055
       5 -> 19        -0.00047
       5 -> 22         0.00144
       5 -> 24         0.00068
       5 -> 32         0.00010
       5 -> 37         0.00046
       5 -> 40        -0.00013
       5 -> 43         0.00063
       5 -> 46         0.00047
       5 -> 50        -0.00013
       5 -> 53         0.00014
       6 -> 28         0.00284
       6 -> 35        -0.00067
       6 -> 45         0.00014
       7 -> 28        -0.00133
       7 -> 35         0.00044
       7 -> 45         0.00055
       8 -> 10         0.02800
       8 -> 14         0.70374
       8 -> 17        -0.05938
       8 -> 23         0.02031
       8 -> 27        -0.00268
       8 -> 34        -0.00283
       8 -> 36         0.00285
       8 -> 52        -0.00042
       3 <- 28         0.00181
       3 <- 35         0.00141
       3 <- 45         0.00064
       4 <- 10         0.00033
       4 <- 14        -0.00074
       4 <- 17         0.00048
       4 <- 23        -0.00020
       4 <- 27         0.00025
       4 <- 34        -0.00065
       4 <- 36         0.00101
       4 <- 41         0.00030
       4 <- 52         0.00012
       5 <- 11         0.00035
       5 <- 16        -0.00022
       5 <- 19        -0.00057
       5 <- 22         0.00185
       5 <- 24         0.00159
       5 <- 29        -0.00042
       5 <- 32        -0.00059
       5 <- 37         0.00120
       5 <- 43         0.00074
       5 <- 46         0.00019
       5 <- 53         0.00031
       6 <- 28         0.00301
       6 <- 35        -0.00054
       7 <- 28        -0.00136
       7 <- 45         0.00035
       8 <- 10         0.00541
       8 <- 14        -0.00340
       8 <- 17         0.00415
       8 <- 23        -0.00077
       8 <- 27         0.00048
       8 <- 34        -0.00309
       8 <- 36         0.00165
       8 <- 41        -0.00021
       8 <- 52        -0.00017
 
 Excited State   6:      Singlet-B2     8.9905 eV  137.91 nm  f=0.0915  <S**2>=0.000
       3 -> 11         0.00042
       3 -> 16        -0.00077
       3 -> 19         0.00091
       3 -> 22        -0.00046
       3 -> 24         0.00023
       3 -> 29         0.00067
       3 -> 32         0.00053
       3 -> 37         0.00010
       3 -> 40         0.00043
       3 -> 43        -0.00025
       3 -> 46        -0.00016
       4 ->  9         0.00279
       4 -> 12        -0.00331
       4 -> 13        -0.00694
       4 -> 18        -0.00140
       4 -> 20        -0.00453
       4 -> 21        -0.00632
       4 -> 25        -0.00179
       4 -> 26        -0.00011
       4 -> 30        -0.00228
       4 -> 31         0.00054
       4 -> 33        -0.00040
       4 -> 38        -0.00101
       4 -> 39         0.00067
       4 -> 44        -0.00016
       4 -> 51         0.00018
       4 -> 54         0.00019
       5 -> 28        -0.00333
       5 -> 45         0.00036
       6 -> 11         0.01264
       6 -> 16        -0.00735
       6 -> 19         0.00939
       6 -> 22         0.00180
       6 -> 24         0.00735
       6 -> 29        -0.00093
       6 -> 32        -0.00260
       6 -> 37         0.00254
       6 -> 40        -0.00011
       6 -> 43        -0.00092
       6 -> 46         0.00024
       6 -> 50         0.00012
       7 -> 11        -0.00991
       7 -> 16         0.00103
       7 -> 19        -0.00556
       7 -> 24        -0.00301
       7 -> 29         0.00086
       7 -> 32         0.00084
       7 -> 37        -0.00127
       7 -> 43         0.00064
       8 ->  9        -0.04042
       8 -> 12        -0.00525
       8 -> 13         0.52002
       8 -> 15        -0.47644
       8 -> 18        -0.00042
       8 -> 20        -0.01413
       8 -> 21        -0.03378
       8 -> 25        -0.01142
       8 -> 26         0.00406
       8 -> 30         0.00481
       8 -> 31         0.00172
       8 -> 33         0.00201
       8 -> 38        -0.00295
       8 -> 39         0.00105
       8 -> 42         0.00172
       8 -> 44        -0.00206
       8 -> 47         0.00031
       8 -> 49        -0.00043
       8 -> 51         0.00016
       3 <- 11         0.00014
       3 <- 16        -0.00033
       3 <- 19         0.00030
       3 <- 22        -0.00037
       3 <- 24         0.00032
       3 <- 29         0.00018
       3 <- 32         0.00035
       3 <- 37         0.00013
       3 <- 40         0.00036
       3 <- 43        -0.00025
       3 <- 46        -0.00014
       4 <-  9         0.00089
       4 <- 12        -0.00040
       4 <- 13        -0.00339
       4 <- 15        -0.00147
       4 <- 18        -0.00019
       4 <- 20        -0.00242
       4 <- 21        -0.00344
       4 <- 25        -0.00102
       4 <- 26         0.00076
       4 <- 30        -0.00126
       4 <- 33         0.00015
       4 <- 38        -0.00085
       4 <- 39         0.00039
       4 <- 42        -0.00014
       4 <- 44        -0.00029
       5 <- 28        -0.00259
       5 <- 35         0.00030
       5 <- 45         0.00045
       6 <- 11         0.00395
       6 <- 16        -0.00272
       6 <- 19         0.00313
       6 <- 22         0.00224
       6 <- 24         0.00443
       6 <- 29        -0.00020
       6 <- 32        -0.00143
       6 <- 37         0.00170
       6 <- 40        -0.00018
       6 <- 43        -0.00077
       6 <- 46         0.00024
       6 <- 53        -0.00011
       7 <- 11        -0.00229
       7 <- 19        -0.00115
       7 <- 22        -0.00106
       7 <- 24        -0.00194
       7 <- 29         0.00096
       7 <- 32         0.00030
       7 <- 37        -0.00087
       7 <- 43         0.00051
       7 <- 46        -0.00011
       8 <-  9         0.01287
       8 <- 12         0.00694
       8 <- 13        -0.02360
       8 <- 15        -0.00811
       8 <- 18         0.00058
       8 <- 20        -0.00084
       8 <- 21        -0.01711
       8 <- 25        -0.00350
       8 <- 26         0.00040
       8 <- 30         0.00268
       8 <- 31         0.00024
       8 <- 33         0.00112
       8 <- 38        -0.00197
       8 <- 39         0.00061
       8 <- 42         0.00131
       8 <- 44        -0.00126
       8 <- 47         0.00020
       8 <- 49        -0.00036
       8 <- 51         0.00012
 
 Excited State   7:      Singlet-A1     9.4996 eV  130.52 nm  f=0.0062  <S**2>=0.000
       3 ->  9        -0.00015
       3 -> 12         0.00024
       3 -> 13        -0.00084
       3 -> 15         0.00088
       3 -> 18         0.00044
       3 -> 20         0.00054
       3 -> 21        -0.00102
       3 -> 25         0.00086
       3 -> 30        -0.00015
       3 -> 33        -0.00143
       3 -> 39         0.00015
       3 -> 42         0.00045
       3 -> 44         0.00010
       3 -> 47         0.00034
       3 -> 49         0.00043
       3 -> 51         0.00055
       3 -> 54        -0.00035
       4 -> 11         0.00037
       4 -> 16         0.00068
       4 -> 19         0.00102
       4 -> 22         0.00213
       4 -> 24        -0.00064
       4 -> 29        -0.00025
       4 -> 32         0.00081
       4 -> 37         0.00036
       4 -> 40         0.00032
       4 -> 43        -0.00059
       4 -> 46         0.00075
       4 -> 50         0.00069
       4 -> 53         0.00013
       5 -> 10         0.00600
       5 -> 14         0.00173
       5 -> 17         0.00593
       5 -> 23         0.00184
       5 -> 27         0.00408
       5 -> 34         0.00035
       5 -> 36        -0.00043
       5 -> 41         0.00012
       5 -> 48         0.00117
       5 -> 52         0.00047
       6 ->  9        -0.01360
       6 -> 12         0.00129
       6 -> 13        -0.00021
       6 -> 15         0.00179
       6 -> 18         0.00877
       6 -> 20        -0.00671
       6 -> 21        -0.00286
       6 -> 25         0.00121
       6 -> 26         0.00303
       6 -> 30        -0.00142
       6 -> 31         0.00058
       6 -> 33         0.00082
       6 -> 38        -0.00166
       6 -> 42        -0.00010
       6 -> 44        -0.00071
       6 -> 47         0.00044
       6 -> 51        -0.00072
       7 ->  9        -0.00428
       7 -> 12         0.00529
       7 -> 13         0.00135
       7 -> 15        -0.00984
       7 -> 18         0.00337
       7 -> 20         0.00165
       7 -> 21         0.00393
       7 -> 25         0.00031
       7 -> 26         0.00663
       7 -> 30         0.00183
       7 -> 31         0.00020
       7 -> 33        -0.00128
       7 -> 38         0.00062
       7 -> 39        -0.00068
       7 -> 44        -0.00029
       7 -> 47         0.00080
       7 -> 49         0.00047
       7 -> 51        -0.00086
       7 -> 54        -0.00056
       8 -> 11        -0.05063
       8 -> 16         0.70315
       8 -> 19         0.04777
       8 -> 22         0.01475
       8 -> 24        -0.00411
       8 -> 29         0.00295
       8 -> 32         0.00149
       8 -> 37         0.00159
       8 -> 40        -0.00057
       8 -> 43        -0.00088
       8 -> 50        -0.00064
       3 <-  9        -0.00032
       3 <- 12         0.00021
       3 <- 13        -0.00040
       3 <- 15         0.00062
       3 <- 18         0.00055
       3 <- 20         0.00039
       3 <- 21        -0.00076
       3 <- 25         0.00061
       3 <- 30        -0.00016
       3 <- 31         0.00019
       3 <- 33        -0.00110
       3 <- 42         0.00035
       3 <- 47         0.00026
       3 <- 49         0.00038
       3 <- 51         0.00048
       3 <- 54        -0.00031
       4 <- 11         0.00196
       4 <- 16         0.00174
       4 <- 19         0.00176
       4 <- 22         0.00108
       4 <- 24        -0.00100
       4 <- 29        -0.00089
       4 <- 32         0.00068
       4 <- 37         0.00035
       4 <- 40         0.00029
       4 <- 43        -0.00051
       4 <- 46         0.00065
       4 <- 50         0.00060
       4 <- 53         0.00013
       5 <- 10         0.00215
       5 <- 14         0.00080
       5 <- 17         0.00261
       5 <- 23         0.00107
       5 <- 27         0.00264
       5 <- 34         0.00025
       5 <- 36        -0.00034
       5 <- 48         0.00099
       5 <- 52         0.00041
       6 <-  9        -0.00292
       6 <- 12        -0.00100
       6 <- 13        -0.00039
       6 <- 15        -0.00043
       6 <- 18         0.00183
       6 <- 20        -0.00310
       6 <- 21        -0.00173
       6 <- 25         0.00018
       6 <- 26         0.00208
       6 <- 30        -0.00080
       6 <- 31         0.00022
       6 <- 33         0.00041
       6 <- 38        -0.00104
       6 <- 39         0.00012
       6 <- 44        -0.00049
       6 <- 47         0.00044
       6 <- 51        -0.00059
       7 <-  9        -0.00157
       7 <- 12         0.00224
       7 <- 13         0.00110
       7 <- 15        -0.00221
       7 <- 18         0.00254
       7 <- 20         0.00119
       7 <- 21         0.00213
       7 <- 25         0.00051
       7 <- 26         0.00395
       7 <- 30         0.00112
       7 <- 31         0.00015
       7 <- 33        -0.00089
       7 <- 38         0.00042
       7 <- 39        -0.00076
       7 <- 44        -0.00028
       7 <- 47         0.00082
       7 <- 49         0.00037
       7 <- 51        -0.00077
       7 <- 54        -0.00047
       8 <- 11         0.00473
       8 <- 16        -0.00085
       8 <- 19         0.00540
       8 <- 22         0.00142
       8 <- 24         0.00319
       8 <- 29         0.00295
       8 <- 32         0.00138
       8 <- 37         0.00119
       8 <- 40        -0.00034
       8 <- 43        -0.00070
       8 <- 50        -0.00055
 
 Excited State   8:      Singlet-B2     9.5232 eV  130.19 nm  f=0.3921  <S**2>=0.000
       3 -> 16        -0.00148
       3 -> 19         0.00085
       3 -> 22        -0.00193
       3 -> 24         0.00055
       3 -> 29         0.00139
       3 -> 32         0.00119
       3 -> 37        -0.00060
       3 -> 40         0.00079
       3 -> 43        -0.00084
       3 -> 53        -0.00013
       4 ->  9         0.00368
       4 -> 12        -0.00151
       4 -> 13        -0.01088
       4 -> 15        -0.00860
       4 -> 18        -0.00200
       4 -> 20        -0.01005
       4 -> 21        -0.00734
       4 -> 25        -0.00350
       4 -> 26         0.00387
       4 -> 30        -0.00504
       4 -> 31        -0.00197
       4 -> 33        -0.00015
       4 -> 38        -0.00063
       4 -> 39         0.00046
       4 -> 42         0.00013
       4 -> 44         0.00027
       4 -> 51        -0.00027
       5 -> 28        -0.00677
       5 -> 35        -0.00128
       6 -> 11         0.01911
       6 -> 16        -0.00948
       6 -> 19         0.01054
       6 -> 22         0.00503
       6 -> 24         0.01220
       6 -> 29         0.00054
       6 -> 32        -0.00101
       6 -> 37         0.00273
       6 -> 40         0.00043
[...]
  47        4PZ         0.00346   0.00000   0.00260   0.01059  -0.01683
  48        5S          0.00197   0.00000  -0.02734  -0.03628  -0.00888
  49        5PX        -0.00000   0.00000   0.00000   0.00000   0.00000
  50        5PY         0.00000   0.00000  -0.05465  -0.09104  -0.10691
  51        5PZ        -0.00002   0.00000   0.00433   0.00634   0.00002
  52        6D 0       -0.00026   0.00000  -0.00273  -0.00458   0.00105
  53        6D+1        0.00000   0.00000   0.00000   0.00000   0.00000
  54        6D-1       -0.00000  -0.00000  -0.00050   0.00163   0.01308
  55        6D+2       -0.00001   0.00000  -0.00027  -0.00041  -0.00002
  56        6D-2        0.00000  -0.00000   0.00000   0.00000   0.00000
                          26        27        28        29        30
  26        4PX         0.00009
  27        4PY         0.00000   0.00168
  28        4PZ         0.00000  -0.00078   0.00064
  29 3   H  1S          0.00000  -0.00502  -0.00015   0.08750
  30        2S          0.00000  -0.00719  -0.00032   0.13277   0.20522
  31        3S          0.00000  -0.00315   0.00035   0.10990   0.18156
  32        4PX         0.00009   0.00000   0.00000   0.00000   0.00000
  33        4PY         0.00000  -0.00081  -0.00014   0.00616   0.00786
  34        4PZ         0.00000   0.00014  -0.00041   0.00382   0.00497
  35 4   O  1S          0.00000  -0.00178  -0.00051   0.00513   0.00889
  36        2S          0.00000  -0.00342  -0.00043   0.00910   0.01557
  37        2PX         0.00357   0.00000   0.00000   0.00000   0.00000
  38        2PY         0.00000  -0.00847   0.00800   0.02760   0.05725
  39        2PZ         0.00000  -0.00809  -0.00003   0.00772   0.02003
  40        3S          0.00000   0.01089  -0.00024  -0.02888  -0.04748
  41        3PX         0.00486   0.00000   0.00000   0.00000   0.00000
  42        3PY         0.00000  -0.01154   0.01070   0.04592   0.09175
  43        3PZ         0.00000  -0.00934  -0.00019   0.00654   0.02066
  44        4S          0.00000   0.00911  -0.00157  -0.04373  -0.05957
  45        4PX         0.00240   0.00000   0.00000   0.00000   0.00000
  46        4PY         0.00000  -0.00660   0.00496   0.07384   0.13105
  47        4PZ         0.00000  -0.00537  -0.00013   0.00260   0.01059
  48        5S          0.00000   0.00555  -0.00143  -0.02734  -0.03628
  49        5PX        -0.00024   0.00000   0.00000   0.00000   0.00000
  50        5PY         0.00000  -0.00057  -0.00075   0.05465   0.09104
  51        5PZ         0.00000  -0.00127   0.00020   0.00433   0.00634
  52        6D 0        0.00000   0.00118  -0.00011  -0.00273  -0.00458
  53        6D+1       -0.00082   0.00000   0.00000   0.00000   0.00000
  54        6D-1        0.00000   0.00178  -0.00184   0.00050  -0.00163
  55        6D+2        0.00000   0.00009  -0.00001  -0.00027  -0.00041
  56        6D-2       -0.00000   0.00000   0.00000   0.00000   0.00000
                          31        32        33        34        35
  31        3S          0.21528
  32        4PX         0.00000   0.00009
  33        4PY        -0.00161   0.00000   0.00168
  34        4PZ         0.00052   0.00000   0.00078   0.00064
  35 4   O  1S          0.00356   0.00000   0.00178  -0.00051   0.64203
  36        2S          0.00488   0.00000   0.00342  -0.00043   0.57582
  37        2PX         0.00000   0.00357   0.00000   0.00000   0.00000
  38        2PY         0.11838   0.00000  -0.00847  -0.00800  -0.00000
  39        2PZ        -0.01956   0.00000   0.00809  -0.00003   0.01086
  40        3S         -0.01141   0.00000  -0.01089  -0.00024  -0.11406
  41        3PX         0.00000   0.00486   0.00000   0.00000   0.00000
  42        3PY         0.17692   0.00000  -0.01154  -0.01070  -0.00000
  43        3PZ        -0.02517   0.00000   0.00934  -0.00019   0.00253
  44        4S         -0.02729   0.00000  -0.00911  -0.00157  -0.10612
  45        4PX         0.00000   0.00240   0.00000   0.00000   0.00000
  46        4PY         0.19037   0.00000  -0.00660  -0.00496   0.00000
  47        4PZ        -0.01683   0.00000   0.00537  -0.00013  -0.01139
  48        5S         -0.00888   0.00000  -0.00555  -0.00143  -0.02007
  49        5PX         0.00000  -0.00024   0.00000   0.00000   0.00000
  50        5PY         0.10691   0.00000  -0.00057   0.00075  -0.00000
  51        5PZ         0.00002   0.00000   0.00127   0.00020   0.00426
  52        6D 0        0.00105   0.00000  -0.00118  -0.00011  -0.00059
  53        6D+1        0.00000  -0.00082   0.00000   0.00000   0.00000
  54        6D-1       -0.01308   0.00000   0.00178   0.00184   0.00000
  55        6D+2       -0.00002   0.00000  -0.00009  -0.00001  -0.00042
  56        6D-2        0.00000   0.00000   0.00000   0.00000   0.00000
                          36        37        38        39        40
  36        2S          0.53694
  37        2PX         0.00000   0.14787
  38        2PY        -0.00000   0.00000   0.19017
  39        2PZ         0.02082   0.00000  -0.00000   0.26186
  40        3S         -0.21897   0.00000   0.00000  -0.05862   0.68469
  41        3PX         0.00000   0.20168   0.00000   0.00000   0.00000
  42        3PY        -0.00000   0.00000   0.26492  -0.00000   0.00000
  43        3PZ         0.01309   0.00000  -0.00000   0.32400  -0.05406
  44        4S         -0.19777   0.00000   0.00000   0.09960   0.60874
  45        4PX         0.00000   0.09951   0.00000   0.00000   0.00000
  46        4PY         0.00000   0.00000   0.18398  -0.00000  -0.00000
  47        4PZ        -0.00992   0.00000  -0.00000   0.20485   0.00544
  48        5S         -0.04219   0.00000   0.00000   0.00519   0.14363
  49        5PX         0.00000  -0.01010   0.00000   0.00000   0.00000
  50        5PY        -0.00000   0.00000   0.04881  -0.00000   0.00000
  51        5PZ         0.00769   0.00000  -0.00000   0.01555  -0.02275
  52        6D 0       -0.00384  -0.00000   0.00000  -0.02250   0.01838
  53        6D+1        0.00000  -0.03395   0.00000   0.00000  -0.00000
  54        6D-1        0.00000   0.00000  -0.03571   0.00000  -0.00000
  55        6D+2       -0.00089   0.00000  -0.00000  -0.00099   0.00299
  56        6D-2        0.00000   0.00000  -0.00000   0.00000   0.00000
                          41        42        43        44        45
  41        3PX         0.27505
  42        3PY         0.00000   0.37011
  43        3PZ         0.00000  -0.00000   0.40176
  44        4S          0.00000   0.00000   0.14233   0.64642
  45        4PX         0.13572   0.00000   0.00000   0.00000   0.06696
  46        4PY         0.00000   0.26290  -0.00000  -0.00000   0.00000
  47        4PZ         0.00000  -0.00000   0.25520   0.12721   0.00000
  48        5S          0.00000   0.00000   0.01208   0.15388   0.00000
  49        5PX        -0.01378   0.00000   0.00000   0.00000  -0.00680
  50        5PY         0.00000   0.07465  -0.00000   0.00000   0.00000
  51        5PZ         0.00000  -0.00000   0.01846  -0.01447   0.00000
  52        6D 0       -0.00000   0.00000  -0.02729   0.00507  -0.00000
  53        6D+1       -0.04630   0.00000   0.00000  -0.00000  -0.02285
  54        6D-1        0.00000  -0.04895   0.00000   0.00000   0.00000
  55        6D+2        0.00000  -0.00000  -0.00114   0.00231   0.00000
  56        6D-2        0.00000  -0.00000   0.00000   0.00000   0.00000
                          46        47        48        49        50
  46        4PY         0.21964
  47        4PZ        -0.00000   0.16452
  48        5S          0.00000   0.01609   0.04760
  49        5PX         0.00000   0.00000   0.00000   0.00069
  50        5PY         0.08924  -0.00000   0.00000   0.00000   0.05492
  51        5PZ        -0.00000   0.01054  -0.00617   0.00000  -0.00000
  52        6D 0        0.00000  -0.01646   0.00362  -0.00000   0.00000
  53        6D+1        0.00000   0.00000  -0.00000   0.00232   0.00000
  54        6D-1       -0.02952   0.00000  -0.00000   0.00000  -0.00410
  55        6D+2       -0.00000  -0.00056   0.00067   0.00000  -0.00000
  56        6D-2       -0.00000   0.00000   0.00000  -0.00000  -0.00000
                          51        52        53        54        55
  51        5PZ         0.00181
  52        6D 0       -0.00188   0.00241
  53        6D+1        0.00000   0.00000   0.00779
  54        6D-1        0.00000  -0.00000   0.00000   0.00731
  55        6D+2       -0.00015   0.00015   0.00000   0.00000   0.00002
  56        6D-2        0.00000   0.00000  -0.00000  -0.00000   0.00000
                          56
  56        6D-2        0.00000
          Condensed to atoms (all electrons):
               1          2          3          4
     1  C    4.808158   0.541073   0.541073  -0.199244
     2  H    0.541073   1.066594  -0.243384  -0.264707
     3  H    0.541073  -0.243384   1.066594  -0.264707
     4  O   -0.199244  -0.264707  -0.264707   8.838445
 Mulliken charges:
               1
     1  C    0.308940
     2  H   -0.099576
     3  H   -0.099576
     4  O   -0.109787
 Sum of Mulliken charges =  -0.00000
 Mulliken charges with hydrogens summed into heavy atoms:
               1
     1  C    0.109787
     4  O   -0.109787
 Electronic spatial extent (au):  <R**2>=             45.5946
 Charge=             -0.0000 electrons
 Dipole moment (field-independent basis, Debye):
    X=              0.0000    Y=             -0.0000    Z=              1.1556  Tot=              1.1556
 Quadrupole moment (field-independent basis, Debye-Ang):
   XX=            -10.2157   YY=            -13.6610   ZZ=            -13.6406
   XY=             -0.0000   XZ=             -0.0000   YZ=              0.0000
 Traceless Quadrupole moment (field-independent basis, Debye-Ang):
   XX=              2.2901   YY=             -1.1552   ZZ=             -1.1349
   XY=             -0.0000   XZ=             -0.0000   YZ=              0.0000
 Octapole moment (field-independent basis, Debye-Ang**2):
  XXX=              0.0000  YYY=             -0.0000  ZZZ=              6.3056  XYY=              0.0000
  XXY=             -0.0000  XXZ=              1.9466  XZZ=              0.0000  YZZ=             -0.0000
  YYZ=              5.1525  XYZ=              0.0000
 Hexadecapole moment (field-independent basis, Debye-Ang**3):
 XXXX=             -8.7720 YYYY=            -34.2604 ZZZZ=            -33.2881 XXXY=             -0.0000
 XXXZ=             -0.0000 YYYX=             -0.0000 YYYZ=             -0.0000 ZZZX=             -0.0000
 ZZZY=              0.0000 XXYY=             -6.8600 XXZZ=             -6.7135 YYZZ=            -13.3067
 XXYZ=              0.0000 YYXZ=             -0.0000 ZZXY=             -0.0000
 N-N= 4.931143489768D+01 E-N=-3.686126762057D+02  KE= 1.210872999203D+02
 Symmetry A1   KE= 1.087798249916D+02
 Symmetry A2   KE= 1.204703188104D-35
 Symmetry B1   KE= 5.038635433590D+00
 Symmetry B2   KE= 7.268839495140D+00
 Leave Link  601 at Fri Sep 17 10:52:25 2021, MaxMem=   268435456 cpu:               0.0 elap:               0.0
 (Enter /software/gaussian/g16-a03/l9999.exe)
 Electronic transition elements 
                 1             2             3             4             5 
      1  -0.112525D+03 -0.112513D+03 -0.112490D+03 -0.112484D+03 -0.112403D+03
      2   0.000000D+00  0.000000D+00  0.000000D+00  0.000000D+00  0.000000D+00
      3   0.102947D+01  0.000000D+00  0.491231D+00  0.000000D+00  0.000000D+00
      4   0.000000D+00  0.000000D+00  0.000000D+00  0.243190D+00  0.000000D+00
      5   0.000000D+00  0.000000D+00  0.000000D+00  0.000000D+00  0.000000D+00
      6  -0.172188D+00  0.000000D+00 -0.100429D+00  0.000000D+00  0.000000D+00
      7   0.000000D+00  0.000000D+00  0.000000D+00 -0.522362D-01  0.000000D+00
      8  -0.433563D+00  0.000000D+00  0.789085D+00  0.000000D+00  0.000000D+00
      9   0.000000D+00  0.000000D+00  0.000000D+00  0.000000D+00  0.000000D+00
     10   0.000000D+00 -0.938238D+00  0.000000D+00  0.000000D+00  0.863920D+00
     11   0.000000D+00  0.000000D+00  0.000000D+00  0.281834D+00  0.000000D+00
     12   0.000000D+00  0.000000D+00  0.000000D+00  0.804725D+00  0.000000D+00
     13   0.000000D+00  0.000000D+00  0.000000D+00  0.113292D+00  0.000000D+00
     14   0.000000D+00  0.349112D+00  0.000000D+00  0.000000D+00 -0.889469D-01
     15   0.000000D+00  0.000000D+00  0.000000D+00  0.000000D+00  0.000000D+00
     16   0.370456D+00  0.000000D+00  0.449287D+00  0.000000D+00  0.000000D+00
                 6             7             8             9            10 
      1  -0.112371D+03 -0.112353D+03 -0.112352D+03 -0.112328D+03 -0.112304D+03
      2   0.000000D+00  0.000000D+00  0.000000D+00  0.000000D+00  0.000000D+00
      3  -0.644622D+00  0.000000D+00 -0.129639D+01  0.000000D+00  0.420121D+00
      4   0.000000D+00 -0.163496D+00  0.000000D+00  0.000000D+00  0.000000D+00
      5   0.000000D+00  0.000000D+00  0.000000D+00  0.000000D+00  0.000000D+00
      6   0.231131D+00  0.000000D+00  0.428562D+00  0.000000D+00 -0.158657D+00
      7   0.000000D+00  0.501405D-01  0.000000D+00  0.000000D+00  0.000000D+00
      8  -0.181080D+00  0.000000D+00  0.120949D+01  0.000000D+00  0.511988D-01
      9   0.000000D+00  0.000000D+00  0.000000D+00  0.000000D+00  0.000000D+00
     10   0.000000D+00  0.000000D+00  0.000000D+00 -0.527701D+00  0.000000D+00
     11   0.000000D+00 -0.242289D+00  0.000000D+00  0.000000D+00  0.000000D+00
     12   0.000000D+00 -0.626727D+00  0.000000D+00  0.000000D+00  0.000000D+00
     13   0.000000D+00 -0.566529D+00  0.000000D+00  0.000000D+00  0.000000D+00
     14   0.000000D+00  0.000000D+00  0.000000D+00 -0.155634D+00  0.000000D+00
     15   0.000000D+00  0.000000D+00  0.000000D+00  0.000000D+00  0.000000D+00
     16  -0.775463D+00  0.000000D+00 -0.653116D+00  0.000000D+00  0.115750D+00
                11            12            13            14            15 
      1  -0.112250D+03 -0.112188D+03 -0.112188D+03 -0.112171D+03 -0.112149D+03
      2   0.000000D+00  0.000000D+00  0.000000D+00  0.853826D-01  0.000000D+00
      3   0.000000D+00 -0.194702D+00  0.000000D+00  0.000000D+00 -0.307553D+00
      4   0.934854D+00  0.000000D+00  0.276641D+00  0.000000D+00  0.000000D+00
      5   0.000000D+00  0.000000D+00  0.000000D+00 -0.564034D-01  0.000000D+00
      6   0.000000D+00  0.652822D-01  0.000000D+00  0.000000D+00  0.166399D+00
      7  -0.407921D+00  0.000000D+00 -0.138986D+00  0.000000D+00  0.000000D+00
      8   0.000000D+00  0.148156D+01  0.000000D+00  0.000000D+00 -0.283088D+00
      9   0.000000D+00  0.000000D+00  0.000000D+00  0.692499D-01  0.000000D+00
     10   0.000000D+00  0.000000D+00  0.000000D+00  0.000000D+00  0.000000D+00
     11   0.173474D-01  0.000000D+00 -0.409484D-01  0.000000D+00  0.000000D+00
     12   0.101879D+01  0.000000D+00  0.128925D-01  0.000000D+00  0.000000D+00
     13   0.874312D+00  0.000000D+00 -0.254413D+00  0.000000D+00  0.000000D+00
     14   0.000000D+00  0.000000D+00  0.000000D+00  0.000000D+00  0.000000D+00
     15   0.000000D+00  0.000000D+00  0.000000D+00  0.286136D+00  0.000000D+00
     16   0.000000D+00 -0.201681D+00  0.000000D+00  0.000000D+00  0.252719D+00
                16            17            18            19            20 
      1  -0.112145D+03 -0.112137D+03 -0.112133D+03 -0.112110D+03 -0.112110D+03
      2   0.000000D+00  0.000000D+00 -0.541304D+00  0.000000D+00  0.000000D+00
      3   0.000000D+00  0.000000D+00  0.000000D+00 -0.154053D+00  0.000000D+00
      4  -0.413174D-01 -0.144185D+00  0.000000D+00  0.000000D+00 -0.559029D+00
      5   0.000000D+00  0.000000D+00  0.295846D+00  0.000000D+00  0.000000D+00
      6   0.000000D+00  0.000000D+00  0.000000D+00  0.970490D-01  0.000000D+00
      7   0.289442D-01  0.759325D-01  0.000000D+00  0.000000D+00  0.324138D+00
      8   0.000000D+00  0.000000D+00  0.000000D+00 -0.175851D+00  0.000000D+00
      9   0.000000D+00  0.000000D+00 -0.545100D+00  0.000000D+00  0.000000D+00
     10   0.000000D+00  0.000000D+00  0.000000D+00  0.000000D+00  0.000000D+00
     11  -0.954312D-01 -0.490210D+00  0.000000D+00  0.000000D+00 -0.125213D+00
     12  -0.215250D+00 -0.820027D+00  0.000000D+00  0.000000D+00 -0.210306D+00
     13   0.372171D+00 -0.840163D+00  0.000000D+00  0.000000D+00 -0.898392D+00
     14   0.000000D+00  0.000000D+00  0.000000D+00  0.000000D+00  0.000000D+00
     15   0.000000D+00  0.000000D+00 -0.505971D+00  0.000000D+00  0.000000D+00
     16   0.000000D+00  0.000000D+00  0.000000D+00  0.131072D+00  0.000000D+00
                21            22            23            24            25 
      1  -0.112058D+03 -0.112058D+03 -0.112029D+03 -0.112022D+03 -0.112016D+03
      2  -0.586252D+00  0.000000D+00  0.000000D+00  0.000000D+00  0.344854D+00
      3   0.000000D+00  0.000000D+00  0.000000D+00 -0.322144D+00  0.000000D+00
      4   0.000000D+00 -0.211939D+00  0.417199D+00  0.000000D+00  0.000000D+00
      5   0.384836D+00  0.000000D+00  0.000000D+00  0.000000D+00 -0.248413D+00
      6   0.000000D+00  0.000000D+00  0.000000D+00  0.221523D+00  0.000000D+00
      7   0.000000D+00  0.136046D+00 -0.280233D+00  0.000000D+00  0.000000D+00
      8   0.000000D+00  0.000000D+00  0.000000D+00 -0.330140D+00  0.000000D+00
      9   0.798219D+00  0.000000D+00  0.000000D+00  0.000000D+00  0.682818D+00
     10   0.000000D+00  0.000000D+00  0.000000D+00  0.000000D+00  0.000000D+00
     11   0.000000D+00 -0.190248D-02 -0.100702D+00  0.000000D+00  0.000000D+00
     12   0.000000D+00 -0.404409D+00  0.123838D+00  0.000000D+00  0.000000D+00
     13   0.000000D+00  0.923870D-01 -0.794428D+00  0.000000D+00  0.000000D+00
     14   0.000000D+00  0.000000D+00  0.000000D+00  0.000000D+00  0.000000D+00
     15   0.584192D+00  0.000000D+00  0.000000D+00  0.000000D+00  0.619754D+00
     16   0.000000D+00  0.000000D+00  0.000000D+00  0.467634D+00  0.000000D+00
                26            27            28            29            30 
      1  -0.112012D+03 -0.111997D+03 -0.111991D+03 -0.111979D+03 -0.111979D+03
      2   0.000000D+00  0.000000D+00  0.707886D-01  0.000000D+00  0.000000D+00
      3   0.000000D+00 -0.209957D+00  0.000000D+00  0.000000D+00  0.000000D+00
      4   0.131396D+00  0.000000D+00  0.000000D+00  0.154608D+00  0.000000D+00
      5   0.000000D+00  0.000000D+00 -0.505176D-01  0.000000D+00  0.000000D+00
      6   0.000000D+00  0.173706D+00  0.000000D+00  0.000000D+00  0.000000D+00
      7  -0.102080D+00  0.000000D+00  0.000000D+00 -0.971760D-01  0.000000D+00
      8   0.000000D+00  0.135362D+00  0.000000D+00  0.000000D+00  0.000000D+00
      9   0.000000D+00  0.000000D+00  0.207649D-01  0.000000D+00  0.000000D+00
     10   0.000000D+00  0.000000D+00  0.000000D+00  0.000000D+00 -0.434479D-01
     11  -0.567507D+00  0.000000D+00  0.000000D+00  0.223403D+00  0.000000D+00
     12   0.114011D+01  0.000000D+00  0.000000D+00  0.942253D+00  0.000000D+00
     13   0.667087D+00  0.000000D+00  0.000000D+00 -0.610305D+00  0.000000D+00
     14   0.000000D+00  0.000000D+00  0.000000D+00  0.000000D+00  0.140937D+00
     15   0.000000D+00  0.000000D+00  0.345268D+00  0.000000D+00  0.000000D+00
     16   0.000000D+00 -0.561833D+00  0.000000D+00  0.000000D+00  0.000000D+00

 Test job not archived.
 1\1\GINC-BHD0003\SP\RB3LYP TD-FC\6-311+G(d,p)\C1H2O1\BWEIGHT\17-Sep-20
 21\0\\#p B3LYP/6-311+G** #p TD=(singlets,nstates=30)IOp(6/8=3) IOp(9/4
 0=4)\\Scan Step 34, Bond Length 0.67\\0,1\C,0,0.,0.,-0.52736\H,0,0.,0.
 93726,-1.11871\H,0,0.,-0.93726,-1.11871\O,0,0.,0.,0.14264\\Version=ES6
 4L-G16RevA.03\State=1-A1\HF=-112.7016405\RMSD=3.240e-09\PG=C02V [C2(C1
 O1),SGV(H2)]\\@


 WE STILL HAVE JUDGEMENT HERE,
 THAT WE TEACH BUT BLOODY INSTRUCTIONS,
 WHICH, BEING TAUGHT,
 RETURN TO PLAGUE THE INVENTOR.
           MACBETH ACT I, SCENE VII
 Job cpu time:       0 days  0 hours  0 minutes 30.0 seconds.
 Elapsed time:       0 days  0 hours  0 minutes 30.7 seconds.
 File lengths (MBytes):  RWF=     79 Int=      0 D2E=      0 Chk=     32 Scr=      1
 Normal termination of Gaussian 16 at Fri Sep 17 10:52:25 2021.
