 Entering Gaussian System, Link 0=g16
 Initial command:
 /software/gaussian/g16-c01/sse4/g16/l1.exe "/local_scratch/24657571/Gau-13868.inp" -scrdir="/local_scratch/24657571/"
 Entering Link 1 = /software/gaussian/g16-c01/sse4/g16/l1.exe PID=     13870.
  
 Copyright (c) 1988-2019, Gaussian, Inc.  All Rights Reserved.
  
 This is part of the Gaussian(R) 16 program.  It is based on
 the Gaussian(R) 09 system (copyright 2009, Gaussian, Inc.),
 the Gaussian(R) 03 system (copyright 2003, Gaussian, Inc.),
 the Gaussian(R) 98 system (copyright 1998, Gaussian, Inc.),
 the Gaussian(R) 94 system (copyright 1995, Gaussian, Inc.),
 the Gaussian 92(TM) system (copyright 1992, Gaussian, Inc.),
 the Gaussian 90(TM) system (copyright 1990, Gaussian, Inc.),
 the Gaussian 88(TM) system (copyright 1988, Gaussian, Inc.),
 the Gaussian 86(TM) system (copyright 1986, Carnegie Mellon
 University), and the Gaussian 82(TM) system (copyright 1983,
 Carnegie Mellon University). Gaussian is a federally registered
 trademark of Gaussian, Inc.
  
 This software contains proprietary and confidential information,
 including trade secrets, belonging to Gaussian, Inc.
  
 This software is provided under written license and may be
 used, copied, transmitted, or stored only in accord with that
 written license.
  
 The following legend is applicable only to US Government
 contracts under FAR:
  
                    RESTRICTED RIGHTS LEGEND
  
 Use, reproduction and disclosure by the US Government is
 subject to restrictions as set forth in subparagraphs (a)
 and (c) of the Commercial Computer Software - Restricted
 Rights clause in FAR 52.227-19.
  
 Gaussian, Inc.
 340 Quinnipiac St., Bldg. 40, Wallingford CT 06492
  
  
 ---------------------------------------------------------------
 Warning -- This program may not be used in any manner that
 competes with the business of Gaussian, Inc. or will provide
 assistance to any competitor of Gaussian, Inc.  The licensee
 of this program is prohibited from giving any competitor of
 Gaussian, Inc. access to this program.  By using this program,
 the user acknowledges that Gaussian, Inc. is engaged in the
 business of creating and licensing software in the field of
 computational chemistry and represents and warrants to the
 licensee that it is not a competitor of Gaussian, Inc. and that
 it will not use this program in any manner prohibited above.
 ---------------------------------------------------------------
  

 Cite this work as:
 Gaussian 16, Revision C.01,
 M. J. Frisch, G. W. Trucks, H. B. Schlegel, G. E. Scuseria, 
 M. A. Robb, J. R. Cheeseman, G. Scalmani, V. Barone, 
 G. A. Petersson, H. Nakatsuji, X. Li, M. Caricato, A. V. Marenich, 
 J. Bloino, B. G. Janesko, R. Gomperts, B. Mennucci, H. P. Hratchian, 
 J. V. Ortiz, A. F. Izmaylov, J. L. Sonnenberg, D. Williams-Young, 
 F. Ding, F. Lipparini, F. Egidi, J. Goings, B. Peng, A. Petrone, 
 T. Henderson, D. Ranasinghe, V. G. Zakrzewski, J. Gao, N. Rega, 
 G. Zheng, W. Liang, M. Hada, M. Ehara, K. Toyota, R. Fukuda, 
 J. Hasegawa, M. Ishida, T. Nakajima, Y. Honda, O. Kitao, H. Nakai, 
 T. Vreven, K. Throssell, J. A. Montgomery, Jr., J. E. Peralta, 
 F. Ogliaro, M. J. Bearpark, J. J. Heyd, E. N. Brothers, K. N. Kudin, 
 V. N. Staroverov, T. A. Keith, R. Kobayashi, J. Normand, 
 K. Raghavachari, A. P. Rendell, J. C. Burant, S. S. Iyengar, 
 J. Tomasi, M. Cossi, J. M. Millam, M. Klene, C. Adamo, R. Cammi, 
 J. W. Ochterski, R. L. Martin, K. Morokuma, O. Farkas, 
 J. B. Foresman, and D. J. Fox, Gaussian, Inc., Wallingford CT, 2019.
 
 ******************************************
 Gaussian 16:  ES64L-G16RevC.01  3-Jul-2019
                 1-May-2024 
 ******************************************
 %chk=geometry.chk
 %mem=9GB
 %nprocshared=12
 Will use up to   12 processors via shared memory.
 ---------------------------------------
 #P wB97XD/6-311+G* NoSymm #P Field=Z+97
 ---------------------------------------
 1/38=1,172=1/1;
 2/12=2,15=1,17=6,18=5,40=1/2;
 3/5=4,6=6,7=11,11=2,14=3,15=97,25=1,30=1,74=-58/1,2,3;
 4//1;
 5/5=2,38=5/2;
 6/7=2,8=2,9=2,10=2,28=1/1;
 99/5=1,9=1/99;
 Leave Link    1 at Wed May  1 15:08:03 2024, MaxMem=  1207959552 cpu:               1.9 elap:               1.9
 (Enter /software/gaussian/g16-c01/sse4/g16/l101.exe)
 -------
 TitleMe
 -------
 Symbolic Z-matrix:
 Charge =  1 Multiplicity = 1
 C                     0.0295    1.3397    0.0682 
 C                     1.4348    1.2867    0.0064 
 C                     2.1118    0.0511   -0.0054 
 C                     1.4451   -1.1372    0.0312 
 C                    -0.6879    0.1682    0.11 
 H                    -0.4713    2.2984    0.0781 
 H                     2.0273    2.1965   -0.0322 
 H                     1.9897   -2.0764    0.0232 
 H                    -1.7716    0.1804    0.1582 
 N                     3.5864    0.051    -0.0675 
 O                     4.1471   -1.0597   -0.0881 
 O                     4.145     1.1639   -0.0901 
 C                    -0.0236   -1.1458    0.0835 
 H                    -0.4367   -1.8725    0.7889 
 Br                   -0.5359   -1.8697   -1.7408 
 
 ITRead=  0  0  0  0  0  0  0  0  0  0  0  0  0  0  0
 MicOpt= -1 -1 -1 -1 -1 -1 -1 -1 -1 -1 -1 -1 -1 -1 -1
 NAtoms=     15 NQM=       15 NQMF=       0 NMMI=      0 NMMIF=      0
                NMic=       0 NMicF=      0.
                    Isotopes and Nuclear Properties:
 (Nuclear quadrupole moments (NQMom) in fm**2, nuclear magnetic moments (NMagM)
  in nuclear magnetons)

  Atom         1           2           3           4           5           6           7           8           9          10
 IAtWgt=          12          12          12          12          12           1           1           1           1          14
 AtmWgt=  12.0000000  12.0000000  12.0000000  12.0000000  12.0000000   1.0078250   1.0078250   1.0078250   1.0078250  14.0030740
 NucSpn=           0           0           0           0           0           1           1           1           1           2
 AtZEff=  -0.0000000  -0.0000000  -0.0000000  -0.0000000  -0.0000000  -0.0000000  -0.0000000  -0.0000000  -0.0000000  -0.0000000
 NQMom=    0.0000000   0.0000000   0.0000000   0.0000000   0.0000000   0.0000000   0.0000000   0.0000000   0.0000000   2.0440000
 NMagM=    0.0000000   0.0000000   0.0000000   0.0000000   0.0000000   2.7928460   2.7928460   2.7928460   2.7928460   0.4037610
 AtZNuc=   6.0000000   6.0000000   6.0000000   6.0000000   6.0000000   1.0000000   1.0000000   1.0000000   1.0000000   7.0000000

  Atom        11          12          13          14          15
 IAtWgt=          16          16          12           1          79
 AtmWgt=  15.9949146  15.9949146  12.0000000   1.0078250  78.9183361
 NucSpn=           0           0           0           1           3
 AtZEff=  -0.0000000  -0.0000000  -0.0000000  -0.0000000  -0.0000000
 NQMom=    0.0000000   0.0000000   0.0000000   0.0000000  31.3000000
 NMagM=    0.0000000   0.0000000   0.0000000   2.7928460   2.1063990
 AtZNuc=   8.0000000   8.0000000   6.0000000   1.0000000  35.0000000
 Leave Link  101 at Wed May  1 15:08:05 2024, MaxMem=  1207959552 cpu:               1.5 elap:               1.5
 (Enter /software/gaussian/g16-c01/sse4/g16/l202.exe)
                          Input orientation:                          
 ---------------------------------------------------------------------
 Center     Atomic      Atomic             Coordinates (Angstroms)
 Number     Number       Type             X           Y           Z
 ---------------------------------------------------------------------
      1          6           0        0.029500    1.339700    0.068200
      2          6           0        1.434800    1.286700    0.006400
      3          6           0        2.111800    0.051100   -0.005400
      4          6           0        1.445100   -1.137200    0.031200
      5          6           0       -0.687900    0.168200    0.110000
      6          1           0       -0.471300    2.298400    0.078100
      7          1           0        2.027300    2.196500   -0.032200
      8          1           0        1.989700   -2.076400    0.023200
      9          1           0       -1.771600    0.180400    0.158200
     10          7           0        3.586400    0.051000   -0.067500
     11          8           0        4.147100   -1.059700   -0.088100
     12          8           0        4.145000    1.163900   -0.090100
     13          6           0       -0.023600   -1.145800    0.083500
     14          1           0       -0.436700   -1.872500    0.788900
     15         35           0       -0.535900   -1.869700   -1.740800
 ---------------------------------------------------------------------
                    Distance matrix (angstroms):
                    1          2          3          4          5
     1  C    0.000000
     2  C    1.407656   0.000000
     3  C    2.449874   1.408963   0.000000
     4  C    2.853126   2.424049   1.363043   0.000000
     5  C    1.374344   2.401589   2.804523   2.501993   0.000000
     6  H    1.081667   2.159142   3.424870   3.934226   2.141421
     7  H    2.176095   1.086408   2.147231   3.384750   3.392128
     8  H    3.938800   3.408612   2.131193   1.085702   3.495040
     9  H    2.143837   3.395283   3.888995   3.478413   1.084840
    10  N    3.785591   2.482297   1.475907   2.450862   4.279589
    11  O    4.768247   3.587631   2.320164   2.705743   4.992415
    12  O    4.122294   2.714696   2.319353   3.549540   4.938459
    13  C    2.486114   2.837240   2.449573   1.469656   1.472614
    14  H    3.324903   3.754379   3.290289   2.157764   2.165286
    15  Br   3.727252   4.110867   3.702891   2.756973   2.757100
                    6          7          8          9         10
     6  H    0.000000
     7  H    2.503108   0.000000
     8  H    5.019802   4.273425   0.000000
     9  H    2.486588   4.304945   4.388479   0.000000
    10  N    4.640790   2.652397   2.661486   5.364313   0.000000
    11  O    5.712624   3.885809   2.387560   6.052233   1.244373
    12  O    4.756638   2.356750   3.893289   6.002923   1.245428
    13  C    3.473180   3.923079   2.218790   2.195425   3.806210
    14  H    4.231175   4.827242   2.552506   2.528663   4.540772
    15  Br   4.548146   5.101303   3.087568   3.055498   4.845862
                   11         12         13         14         15
    11  O    0.000000
    12  O    2.223602   0.000000
    13  C    4.175117   4.768865   0.000000
    14  H    4.737193   5.566358   1.093770   0.000000
    15  Br   5.031700   5.817075   2.028436   2.531646   0.000000
 Symmetry turned off by external request.
 Stoichiometry    C6H5BrNO2(1+)
 Framework group  C1[X(C6H5BrNO2)]
 Deg. of freedom    39
 Full point group                 C1      NOp   1
 Rotational constants (GHZ):           1.8252210           0.5518633           0.4576002
 Leave Link  202 at Wed May  1 15:08:06 2024, MaxMem=  1207959552 cpu:               1.1 elap:               1.1
 (Enter /software/gaussian/g16-c01/sse4/g16/l301.exe)
 Standard basis: 6-311+G(d) (5D, 7F)
 Ernie: Thresh=  0.10000D-02 Tol=  0.10000D-05 Strict=F.
 The following finite field(s) will be applied:
 An electric field of              0.0000  0.0000  0.0097
   261 basis functions,   443 primitive gaussians,   273 cartesian basis functions
    49 alpha electrons       49 beta electrons
       nuclear repulsion energy       739.2122215416 Hartrees.
 IExCor= 4639 DFT=T Ex+Corr=wB97XD ExCW=0 ScaHFX=  1.000000
 ScaDFX=  1.000000  1.000000  1.000000  1.000000 ScalE2=  1.000000  1.000000
 IRadAn=      5 IRanWt=     -1 IRanGd=            0 ICorTp=0 IEmpDi=121
 HFx  wShort=  0.000000 wLong=  0.200000 cFull=  0.222036 cShort=  0.000000 cLong=  0.777964
 DFx  wShort=  0.000000 wLong=  0.200000 cFull=  0.000000 cShort=  0.000000 cLong=  1.000000
 NAtoms=   15 NActive=   15 NUniq=   15 SFac= 1.00D+00 NAtFMM=   60 NAOKFM=F Big=F
 Integral buffers will be    131072 words long.
 Raffenetti 2 integral format.
 Two-electron integral symmetry is turned off.
 R6Disp:  Grimme-D2 Dispersion energy=       -0.0077368520 Hartrees.
 Nuclear repulsion after empirical dispersion term =      739.2044846896 Hartrees.
 Leave Link  301 at Wed May  1 15:08:07 2024, MaxMem=  1207959552 cpu:               1.0 elap:               1.2
 (Enter /software/gaussian/g16-c01/sse4/g16/l302.exe)
 NPDir=0 NMtPBC=     1 NCelOv=     1 NCel=       1 NClECP=     1 NCelD=      1
         NCelK=      1 NCelE2=     1 NClLst=     1 CellRange=     0.0.
 One-electron integrals computed using PRISM.
 NBasis=   261 RedAO= T EigKep=  2.35D-06  NBF=   261
 NBsUse=   261 1.00D-06 EigRej= -1.00D+00 NBFU=   261
 Precomputing XC quadrature grid using
 IXCGrd= 4 IRadAn=           5 IRanWt=          -1 IRanGd=           0 AccXCQ= 0.00D+00.
 Generated NRdTot=       0 NPtTot=           0 NUsed=           0 NTot=          32
 NSgBfM=   273   273   273   273   273 MxSgAt=    15 MxSgA2=    15.
 Leave Link  302 at Wed May  1 15:08:29 2024, MaxMem=  1207959552 cpu:              21.5 elap:              21.5
 (Enter /software/gaussian/g16-c01/sse4/g16/l303.exe)
 DipDrv:  MaxL=1.
 The nuclear repulsion energy is now       738.1038117241 hartrees.
 Leave Link  303 at Wed May  1 15:08:32 2024, MaxMem=  1207959552 cpu:               3.2 elap:               3.2
 (Enter /software/gaussian/g16-c01/sse4/g16/l401.exe)
 ExpMin= 3.50D-02 ExpMax= 4.40D+05 ExpMxC= 1.51D+04 IAcc=3 IRadAn=         5 AccDes= 0.00D+00
 Harris functional with IExCor= 4639 and IRadAn=       5 diagonalized for initial guess.
 HarFok:  IExCor= 4639 AccDes= 0.00D+00 IRadAn=         5 IDoV= 1 UseB2=F ITyADJ=14
 ICtDFT=  3500011 ScaDFX=  1.000000  1.000000  1.000000  1.000000
 FoFCou: FMM=F IPFlag=           0 FMFlag=      100000 FMFlg1=           0
         NFxFlg=           0 DoJE=T BraDBF=F KetDBF=T FulRan=T
         wScrn=  0.000000 ICntrl=       500 IOpCl=  0 I1Cent=   200000004 NGrid=           0
         NMat0=    1 NMatS0=      1 NMatT0=    0 NMatD0=    1 NMtDS0=    0 NMtDT0=    0
 Symmetry not used in FoFCou.
 Harris En= -2970.59993711767    
 JPrj=0 DoOrth=F DoCkMO=F.
 Leave Link  401 at Wed May  1 15:09:03 2024, MaxMem=  1207959552 cpu:              30.5 elap:              30.5
 (Enter /software/gaussian/g16-c01/sse4/g16/l502.exe)
 Two-electron integral symmetry not used.
 Closed shell SCF:
 Using DIIS extrapolation, IDIIS=  1040.
 NGot=  1207959552 LenX=  1207804877 LenY=  1207729907
 Requested convergence on RMS density matrix=1.00D-08 within 128 cycles.
 Requested convergence on MAX density matrix=1.00D-06.
 Requested convergence on             energy=1.00D-06.
 No special actions if energy rises.
 Fock matrices will be formed incrementally for  20 cycles.

 Cycle   1  Pass 1  IDiag  1:
 FoFJK:  IHMeth= 1 ICntrl=       0 DoSepK=T KAlg= 0 I1Cent=           0 FoldK=F
 IRaf=         1 NMat=       1 IRICut=       1 DoRegI=T DoRafI=F ISym2E= 0 IDoP0=0 IntGTp=1.
 FoFCou: FMM=F IPFlag=           0 FMFlag=      100000 FMFlg1=           0
         NFxFlg=           0 DoJE=T BraDBF=F KetDBF=F FulRan=T
         wScrn=  0.000000 ICntrl=       500 IOpCl=  0 I1Cent=           0 NGrid=           0
         NMat0=    1 NMatS0=      1 NMatT0=    0 NMatD0=    1 NMtDS0=    0 NMtDT0=    0
 Symmetry not used in FoFCou.
 E= -3009.71628653200    
 DIIS: error= 3.21D-01 at cycle   1 NSaved=   1.
 NSaved= 1 IEnMin= 1 EnMin= -3009.71628653200     IErMin= 1 ErrMin= 3.21D-01
 ErrMax= 3.21D-01  0.00D+00 EMaxC= 1.00D-01 BMatC= 1.20D+01 BMatP= 1.20D+01
 IDIUse=3 WtCom= 0.00D+00 WtEn= 1.00D+00
 Coeff-Com:  0.100D+01
 Coeff-En:   0.100D+01
 Coeff:      0.100D+01
 Gap=     0.327 Goal=   None    Shift=    0.000
 GapD=    0.327 DampG=1.000 DampE=0.250 DampFc=0.2500 IDamp=-1.
 Damping current iteration by 2.50D-01
 RMSDP=6.11D-02 MaxDP=7.91D+00              OVMax= 2.54D-01

 Cycle   2  Pass 1  IDiag  1:
 RMSU=  4.92D-03    CP:  8.69D-01
 E= -3010.00436476617     Delta-E=       -0.288078234171 Rises=F Damp=T
 DIIS: error= 2.25D-01 at cycle   2 NSaved=   2.
 NSaved= 2 IEnMin= 2 EnMin= -3010.00436476617     IErMin= 2 ErrMin= 2.25D-01
 ErrMax= 2.25D-01  0.00D+00 EMaxC= 1.00D-01 BMatC= 5.46D+00 BMatP= 1.20D+01
 IDIUse=3 WtCom= 0.00D+00 WtEn= 1.00D+00
 Coeff-Com: -0.183D+01 0.283D+01
 Coeff-En:   0.000D+00 0.100D+01
 Coeff:      0.000D+00 0.100D+01
 Gap=     0.294 Goal=   None    Shift=    0.000
 RMSDP=4.67D-02 MaxDP=6.01D+00 DE=-2.88D-01 OVMax= 7.03D-02

 Cycle   3  Pass 1  IDiag  1:
 RMSU=  4.46D-03    CP:  4.61D-01  3.00D+00
 E= -3010.38374497362     Delta-E=       -0.379380207455 Rises=F Damp=F
 DIIS: error= 6.60D-02 at cycle   3 NSaved=   3.
 NSaved= 3 IEnMin= 3 EnMin= -3010.38374497362     IErMin= 3 ErrMin= 6.60D-02
 ErrMax= 6.60D-02  0.00D+00 EMaxC= 1.00D-01 BMatC= 7.46D-01 BMatP= 5.46D+00
 IDIUse=3 WtCom= 3.40D-01 WtEn= 6.60D-01
 Coeff-Com:  0.274D+01-0.360D+01 0.186D+01
 Coeff-En:   0.364D-01 0.000D+00 0.964D+00
 Coeff:      0.954D+00-0.122D+01 0.127D+01
 Gap=     0.265 Goal=   None    Shift=    0.000
 RMSDP=8.32D-03 MaxDP=4.54D-01 DE=-3.79D-01 OVMax= 7.47D-02

 Cycle   4  Pass 1  IDiag  1:
 RMSU=  5.16D-03    CP:  4.85D-01  2.39D+00  1.81D+00
 E= -3010.49252604354     Delta-E=       -0.108781069918 Rises=F Damp=F
 DIIS: error= 3.77D-02 at cycle   4 NSaved=   4.
 NSaved= 4 IEnMin= 4 EnMin= -3010.49252604354     IErMin= 4 ErrMin= 3.77D-02
 ErrMax= 3.77D-02  0.00D+00 EMaxC= 1.00D-01 BMatC= 2.25D-01 BMatP= 7.46D-01
 IDIUse=3 WtCom= 6.23D-01 WtEn= 3.77D-01
 Coeff-Com: -0.223D+00 0.311D+00 0.244D+00 0.668D+00
 Coeff-En:   0.000D+00 0.000D+00 0.189D+00 0.811D+00
 Coeff:     -0.139D+00 0.193D+00 0.224D+00 0.722D+00
 Gap=     0.260 Goal=   None    Shift=    0.000
 RMSDP=4.09D-03 MaxDP=4.53D-01 DE=-1.09D-01 OVMax= 3.23D-02

 Cycle   5  Pass 1  IDiag  1:
 RMSU=  1.40D-03    CP:  4.54D-01  2.69D+00  1.67D+00  8.70D-01
 E= -3010.53701353977     Delta-E=       -0.044487496227 Rises=F Damp=F
 DIIS: error= 6.88D-03 at cycle   5 NSaved=   5.
 NSaved= 5 IEnMin= 5 EnMin= -3010.53701353977     IErMin= 5 ErrMin= 6.88D-03
 ErrMax= 6.88D-03  0.00D+00 EMaxC= 1.00D-01 BMatC= 7.36D-03 BMatP= 2.25D-01
 IDIUse=3 WtCom= 9.31D-01 WtEn= 6.88D-02
 Coeff-Com: -0.146D+00 0.197D+00 0.259D-01 0.314D+00 0.609D+00
 Coeff-En:   0.000D+00 0.000D+00 0.000D+00 0.000D+00 0.100D+01
 Coeff:     -0.136D+00 0.184D+00 0.241D-01 0.292D+00 0.636D+00
 Gap=     0.248 Goal=   None    Shift=    0.000
 RMSDP=5.19D-04 MaxDP=3.30D-02 DE=-4.45D-02 OVMax= 1.13D-02

 Cycle   6  Pass 1  IDiag  1:
 RMSU=  3.90D-04    CP:  4.53D-01  2.68D+00  1.69D+00  8.82D-01  8.01D-01
 E= -3010.53855040615     Delta-E=       -0.001536866379 Rises=F Damp=F
 DIIS: error= 4.31D-04 at cycle   6 NSaved=   6.
 NSaved= 6 IEnMin= 6 EnMin= -3010.53855040615     IErMin= 6 ErrMin= 4.31D-04
 ErrMax= 4.31D-04  0.00D+00 EMaxC= 1.00D-01 BMatC= 6.67D-05 BMatP= 7.36D-03
 IDIUse=3 WtCom= 9.96D-01 WtEn= 4.31D-03
 Coeff-Com: -0.738D-01 0.989D-01-0.135D-01 0.103D+00 0.275D+00 0.611D+00
 Coeff-En:   0.000D+00 0.000D+00 0.000D+00 0.000D+00 0.000D+00 0.100D+01
 Coeff:     -0.735D-01 0.985D-01-0.135D-01 0.102D+00 0.274D+00 0.612D+00
 Gap=     0.249 Goal=   None    Shift=    0.000
 RMSDP=1.64D-04 MaxDP=1.02D-02 DE=-1.54D-03 OVMax= 3.50D-03

 Cycle   7  Pass 1  IDiag  1:
 RMSU=  8.18D-05    CP:  4.52D-01  2.67D+00  1.70D+00  8.87D-01  8.78D-01
                    CP:  9.52D-01
 E= -3010.53860983543     Delta-E=       -0.000059429286 Rises=F Damp=F
 DIIS: error= 4.00D-04 at cycle   7 NSaved=   7.
 NSaved= 7 IEnMin= 7 EnMin= -3010.53860983543     IErMin= 7 ErrMin= 4.00D-04
 ErrMax= 4.00D-04  0.00D+00 EMaxC= 1.00D-01 BMatC= 1.50D-05 BMatP= 6.67D-05
 IDIUse=3 WtCom= 9.96D-01 WtEn= 4.00D-03
 Coeff-Com: -0.298D-01 0.396D-01-0.121D-01 0.270D-01 0.867D-01 0.344D+00
 Coeff-Com:  0.545D+00
 Coeff-En:   0.000D+00 0.000D+00 0.000D+00 0.000D+00 0.000D+00 0.000D+00
 Coeff-En:   0.100D+01
 Coeff:     -0.296D-01 0.394D-01-0.121D-01 0.269D-01 0.864D-01 0.343D+00
 Coeff:      0.546D+00
 Gap=     0.249 Goal=   None    Shift=    0.000
 RMSDP=6.90D-05 MaxDP=5.65D-03 DE=-5.94D-05 OVMax= 2.32D-03

 Cycle   8  Pass 1  IDiag  1:
 RMSU=  5.26D-05    CP:  4.52D-01  2.67D+00  1.71D+00  8.90D-01  8.86D-01
                    CP:  1.05D+00  1.07D+00
 E= -3010.53862303597     Delta-E=       -0.000013200541 Rises=F Damp=F
 DIIS: error= 1.61D-04 at cycle   8 NSaved=   8.
 NSaved= 8 IEnMin= 8 EnMin= -3010.53862303597     IErMin= 8 ErrMin= 1.61D-04
 ErrMax= 1.61D-04  0.00D+00 EMaxC= 1.00D-01 BMatC= 3.57D-06 BMatP= 1.50D-05
 IDIUse=3 WtCom= 9.98D-01 WtEn= 1.61D-03
 Coeff-Com:  0.639D-02-0.876D-02-0.295D-02-0.170D-01-0.424D-01-0.996D-02
 Coeff-Com:  0.336D+00 0.738D+00
 Coeff-En:   0.000D+00 0.000D+00 0.000D+00 0.000D+00 0.000D+00 0.000D+00
 Coeff-En:   0.000D+00 0.100D+01
 Coeff:      0.638D-02-0.875D-02-0.295D-02-0.170D-01-0.423D-01-0.995D-02
 Coeff:      0.336D+00 0.739D+00
 Gap=     0.249 Goal=   None    Shift=    0.000
 RMSDP=5.79D-05 MaxDP=4.67D-03 DE=-1.32D-05 OVMax= 1.81D-03

 Cycle   9  Pass 1  IDiag  1:
 RMSU=  2.23D-05    CP:  4.52D-01  2.67D+00  1.71D+00  8.92D-01  8.91D-01
                    CP:  1.15D+00  1.40D+00  1.24D+00
 E= -3010.53862878194     Delta-E=       -0.000005745967 Rises=F Damp=F
 DIIS: error= 4.43D-05 at cycle   9 NSaved=   9.
 NSaved= 9 IEnMin= 9 EnMin= -3010.53862878194     IErMin= 9 ErrMin= 4.43D-05
 ErrMax= 4.43D-05  0.00D+00 EMaxC= 1.00D-01 BMatC= 2.90D-07 BMatP= 3.57D-06
 IDIUse=1 WtCom= 1.00D+00 WtEn= 0.00D+00
 Coeff-Com:  0.690D-02-0.927D-02 0.904D-03-0.102D-01-0.267D-01-0.614D-01
 Coeff-Com:  0.118D-01 0.245D+00 0.843D+00
 Coeff:      0.690D-02-0.927D-02 0.904D-03-0.102D-01-0.267D-01-0.614D-01
 Coeff:      0.118D-01 0.245D+00 0.843D+00
 Gap=     0.249 Goal=   None    Shift=    0.000
 RMSDP=2.11D-05 MaxDP=1.84D-03 DE=-5.75D-06 OVMax= 9.46D-04

 Cycle  10  Pass 1  IDiag  1:
 RMSU=  8.05D-06    CP:  4.53D-01  2.67D+00  1.71D+00  8.92D-01  8.95D-01
                    CP:  1.19D+00  1.50D+00  1.39D+00  1.15D+00
 E= -3010.53862979825     Delta-E=       -0.000001016308 Rises=F Damp=F
 DIIS: error= 1.44D-05 at cycle  10 NSaved=  10.
 NSaved=10 IEnMin=10 EnMin= -3010.53862979825     IErMin=10 ErrMin= 1.44D-05
 ErrMax= 1.44D-05  0.00D+00 EMaxC= 1.00D-01 BMatC= 6.35D-08 BMatP= 2.90D-07
 IDIUse=1 WtCom= 1.00D+00 WtEn= 0.00D+00
 Coeff-Com:  0.298D-03-0.372D-03 0.375D-03-0.360D-05 0.147D-02-0.103D-01
 Coeff-Com: -0.452D-01-0.491D-01 0.234D+00 0.869D+00
 Coeff:      0.298D-03-0.372D-03 0.375D-03-0.360D-05 0.147D-02-0.103D-01
 Coeff:     -0.452D-01-0.491D-01 0.234D+00 0.869D+00
 Gap=     0.249 Goal=   None    Shift=    0.000
 RMSDP=1.06D-05 MaxDP=9.94D-04 DE=-1.02D-06 OVMax= 3.51D-04

 Cycle  11  Pass 1  IDiag  1:
 RMSU=  4.48D-06    CP:  4.53D-01  2.67D+00  1.71D+00  8.91D-01  8.95D-01
                    CP:  1.20D+00  1.51D+00  1.42D+00  1.28D+00  1.25D+00
 E= -3010.53862998658     Delta-E=       -0.000000188334 Rises=F Damp=F
 DIIS: error= 6.29D-06 at cycle  11 NSaved=  11.
 NSaved=11 IEnMin=11 EnMin= -3010.53862998658     IErMin=11 ErrMin= 6.29D-06
 ErrMax= 6.29D-06  0.00D+00 EMaxC= 1.00D-01 BMatC= 5.83D-09 BMatP= 6.35D-08
 IDIUse=1 WtCom= 1.00D+00 WtEn= 0.00D+00
 Coeff-Com: -0.532D-03 0.711D-03-0.250D-04 0.116D-02 0.365D-02 0.107D-01
 Coeff-Com:  0.409D-02-0.332D-01-0.163D+00-0.616D-01 0.124D+01
 Coeff:     -0.532D-03 0.711D-03-0.250D-04 0.116D-02 0.365D-02 0.107D-01
 Coeff:      0.409D-02-0.332D-01-0.163D+00-0.616D-01 0.124D+01
 Gap=     0.249 Goal=   None    Shift=    0.000
 RMSDP=5.25D-06 MaxDP=3.91D-04 DE=-1.88D-07 OVMax= 2.54D-04

 Cycle  12  Pass 1  IDiag  1:
 RMSU=  1.60D-06    CP:  4.53D-01  2.67D+00  1.71D+00  8.91D-01  8.94D-01
                    CP:  1.20D+00  1.50D+00  1.43D+00  1.35D+00  1.53D+00
                    CP:  1.40D+00
 E= -3010.53863003592     Delta-E=       -0.000000049336 Rises=F Damp=F
 DIIS: error= 2.32D-06 at cycle  12 NSaved=  12.
 NSaved=12 IEnMin=12 EnMin= -3010.53863003592     IErMin=12 ErrMin= 2.32D-06
 ErrMax= 2.32D-06  0.00D+00 EMaxC= 1.00D-01 BMatC= 1.97D-09 BMatP= 5.83D-09
 IDIUse=1 WtCom= 1.00D+00 WtEn= 0.00D+00
 Coeff-Com: -0.249D-03 0.329D-03-0.482D-04 0.453D-03 0.942D-03 0.512D-02
 Coeff-Com:  0.787D-02-0.665D-02-0.970D-01-0.144D+00 0.538D+00 0.695D+00
 Coeff:     -0.249D-03 0.329D-03-0.482D-04 0.453D-03 0.942D-03 0.512D-02
 Coeff:      0.787D-02-0.665D-02-0.970D-01-0.144D+00 0.538D+00 0.695D+00
 Gap=     0.249 Goal=   None    Shift=    0.000
 RMSDP=1.10D-06 MaxDP=6.25D-05 DE=-4.93D-08 OVMax= 7.97D-05

 Cycle  13  Pass 1  IDiag  1:
 RMSU=  6.66D-07    CP:  4.53D-01  2.67D+00  1.71D+00  8.91D-01  8.94D-01
                    CP:  1.20D+00  1.50D+00  1.43D+00  1.36D+00  1.57D+00
                    CP:  1.53D+00  9.63D-01
 E= -3010.53863004235     Delta-E=       -0.000000006428 Rises=F Damp=F
 DIIS: error= 7.53D-07 at cycle  13 NSaved=  13.
 NSaved=13 IEnMin=13 EnMin= -3010.53863004235     IErMin=13 ErrMin= 7.53D-07
 ErrMax= 7.53D-07  0.00D+00 EMaxC= 1.00D-01 BMatC= 2.99D-10 BMatP= 1.97D-09
 IDIUse=1 WtCom= 1.00D+00 WtEn= 0.00D+00
 Coeff-Com:  0.697D-05-0.893D-05-0.141D-04-0.162D-03-0.883D-03-0.227D-02
 Coeff-Com: -0.702D-03 0.683D-02 0.297D-01-0.144D-02-0.243D+00 0.673D-01
 Coeff-Com:  0.114D+01
 Coeff:      0.697D-05-0.893D-05-0.141D-04-0.162D-03-0.883D-03-0.227D-02
 Coeff:     -0.702D-03 0.683D-02 0.297D-01-0.144D-02-0.243D+00 0.673D-01
 Coeff:      0.114D+01
 Gap=     0.249 Goal=   None    Shift=    0.000
 RMSDP=6.87D-07 MaxDP=2.95D-05 DE=-6.43D-09 OVMax= 6.36D-05

 Cycle  14  Pass 1  IDiag  1:
 RMSU=  2.39D-07    CP:  4.53D-01  2.67D+00  1.71D+00  8.91D-01  8.94D-01
                    CP:  1.20D+00  1.50D+00  1.43D+00  1.36D+00  1.59D+00
                    CP:  1.57D+00  1.24D+00  1.36D+00
 E= -3010.53863004448     Delta-E=       -0.000000002135 Rises=F Damp=F
 DIIS: error= 3.97D-07 at cycle  14 NSaved=  14.
 NSaved=14 IEnMin=14 EnMin= -3010.53863004448     IErMin=14 ErrMin= 3.97D-07
 ErrMax= 3.97D-07  0.00D+00 EMaxC= 1.00D-01 BMatC= 4.52D-11 BMatP= 2.99D-10
 IDIUse=1 WtCom= 1.00D+00 WtEn= 0.00D+00
 Coeff-Com:  0.376D-04-0.499D-04 0.368D-06-0.101D-03-0.279D-03-0.112D-02
 Coeff-Com: -0.120D-02 0.260D-02 0.212D-01 0.222D-01-0.140D+00-0.100D+00
 Coeff-Com:  0.266D+00 0.931D+00
 Coeff:      0.376D-04-0.499D-04 0.368D-06-0.101D-03-0.279D-03-0.112D-02
 Coeff:     -0.120D-02 0.260D-02 0.212D-01 0.222D-01-0.140D+00-0.100D+00
 Coeff:      0.266D+00 0.931D+00
 Gap=     0.249 Goal=   None    Shift=    0.000
 RMSDP=3.01D-07 MaxDP=2.38D-05 DE=-2.14D-09 OVMax= 2.26D-05

 Cycle  15  Pass 1  IDiag  1:
 RMSU=  1.22D-07    CP:  4.53D-01  2.67D+00  1.71D+00  8.91D-01  8.94D-01
                    CP:  1.20D+00  1.50D+00  1.43D+00  1.36D+00  1.59D+00
                    CP:  1.57D+00  1.31D+00  1.60D+00  1.36D+00
 E= -3010.53863004478     Delta-E=       -0.000000000295 Rises=F Damp=F
 DIIS: error= 2.30D-07 at cycle  15 NSaved=  15.
 NSaved=15 IEnMin=15 EnMin= -3010.53863004478     IErMin=15 ErrMin= 2.30D-07
 ErrMax= 2.30D-07  0.00D+00 EMaxC= 1.00D-01 BMatC= 1.40D-11 BMatP= 4.52D-11
 IDIUse=1 WtCom= 1.00D+00 WtEn= 0.00D+00
 Coeff-Com:  0.134D-04-0.180D-04 0.234D-05 0.151D-05 0.132D-03 0.229D-03
 Coeff-Com: -0.244D-03-0.776D-03-0.443D-04 0.816D-02 0.458D-02-0.516D-01
 Coeff-Com: -0.148D+00 0.391D+00 0.796D+00
 Coeff:      0.134D-04-0.180D-04 0.234D-05 0.151D-05 0.132D-03 0.229D-03
 Coeff:     -0.244D-03-0.776D-03-0.443D-04 0.816D-02 0.458D-02-0.516D-01
 Coeff:     -0.148D+00 0.391D+00 0.796D+00
 Gap=     0.249 Goal=   None    Shift=    0.000
 RMSDP=1.10D-07 MaxDP=5.19D-06 DE=-2.95D-10 OVMax= 7.98D-06

 Cycle  16  Pass 1  IDiag  1:
 RMSU=  5.49D-08    CP:  4.53D-01  2.67D+00  1.71D+00  8.91D-01  8.94D-01
                    CP:  1.20D+00  1.50D+00  1.43D+00  1.36D+00  1.59D+00
                    CP:  1.56D+00  1.33D+00  1.65D+00  1.62D+00  1.16D+00
 E= -3010.53863004477     Delta-E=        0.000000000002 Rises=F Damp=F
 DIIS: error= 7.92D-08 at cycle  16 NSaved=  16.
 NSaved=16 IEnMin=15 EnMin= -3010.53863004478     IErMin=16 ErrMin= 7.92D-08
 ErrMax= 7.92D-08  0.00D+00 EMaxC= 1.00D-01 BMatC= 1.40D-12 BMatP= 1.40D-11
 IDIUse=1 WtCom= 1.00D+00 WtEn= 0.00D+00
 Coeff-Com:  0.145D-05-0.199D-05 0.125D-05 0.110D-04 0.715D-04 0.213D-03
 Coeff-Com:  0.461D-04-0.632D-03-0.279D-02 0.524D-03 0.197D-01-0.407D-02
 Coeff-Com: -0.865D-01-0.172D-01 0.194D+00 0.897D+00
 Coeff:      0.145D-05-0.199D-05 0.125D-05 0.110D-04 0.715D-04 0.213D-03
 Coeff:      0.461D-04-0.632D-03-0.279D-02 0.524D-03 0.197D-01-0.407D-02
 Coeff:     -0.865D-01-0.172D-01 0.194D+00 0.897D+00
 Gap=     0.249 Goal=   None    Shift=    0.000
 RMSDP=6.36D-08 MaxDP=5.58D-06 DE= 1.82D-12 OVMax= 2.96D-06

 Cycle  17  Pass 1  IDiag  1:
 RMSU=  1.52D-08    CP:  4.53D-01  2.67D+00  1.71D+00  8.91D-01  8.94D-01
                    CP:  1.20D+00  1.50D+00  1.43D+00  1.36D+00  1.59D+00
                    CP:  1.56D+00  1.35D+00  1.67D+00  1.71D+00  1.39D+00
                    CP:  1.11D+00
 E= -3010.53863004481     Delta-E=       -0.000000000033 Rises=F Damp=F
 DIIS: error= 4.28D-08 at cycle  17 NSaved=  17.
 NSaved=17 IEnMin=17 EnMin= -3010.53863004481     IErMin=17 ErrMin= 4.28D-08
 ErrMax= 4.28D-08  0.00D+00 EMaxC= 1.00D-01 BMatC= 2.65D-13 BMatP= 1.40D-12
 IDIUse=1 WtCom= 1.00D+00 WtEn= 0.00D+00
 Coeff-Com: -0.145D-05 0.194D-05-0.859D-08 0.239D-05 0.175D-06 0.283D-04
 Coeff-Com:  0.541D-04-0.373D-04-0.730D-03-0.851D-03 0.419D-02 0.622D-02
 Coeff-Com: -0.165D-02-0.559D-01-0.799D-01 0.289D+00 0.840D+00
 Coeff:     -0.145D-05 0.194D-05-0.859D-08 0.239D-05 0.175D-06 0.283D-04
 Coeff:      0.541D-04-0.373D-04-0.730D-03-0.851D-03 0.419D-02 0.622D-02
 Coeff:     -0.165D-02-0.559D-01-0.799D-01 0.289D+00 0.840D+00
 Gap=     0.249 Goal=   None    Shift=    0.000
 RMSDP=1.72D-08 MaxDP=8.90D-07 DE=-3.32D-11 OVMax= 7.46D-07

 Cycle  18  Pass 1  IDiag  1:
 RMSU=  5.12D-09    CP:  4.53D-01  2.67D+00  1.71D+00  8.91D-01  8.94D-01
                    CP:  1.20D+00  1.50D+00  1.43D+00  1.36D+00  1.60D+00
                    CP:  1.56D+00  1.35D+00  1.67D+00  1.73D+00  1.45D+00
                    CP:  1.24D+00  1.28D+00
 E= -3010.53863004478     Delta-E=        0.000000000025 Rises=F Damp=F
 DIIS: error= 9.53D-09 at cycle  18 NSaved=  18.
 NSaved=18 IEnMin=17 EnMin= -3010.53863004481     IErMin=18 ErrMin= 9.53D-09
 ErrMax= 9.53D-09  0.00D+00 EMaxC= 1.00D-01 BMatC= 4.13D-14 BMatP= 2.65D-13
 IDIUse=1 WtCom= 1.00D+00 WtEn= 0.00D+00
 Coeff-Com: -0.690D-07 0.944D-07-0.104D-06-0.170D-05-0.125D-04-0.255D-04
 Coeff-Com:  0.115D-04 0.101D-03 0.195D-03-0.390D-03-0.191D-02 0.297D-02
 Coeff-Com:  0.137D-01-0.119D-01-0.639D-01-0.567D-01 0.272D+00 0.846D+00
 Coeff:     -0.690D-07 0.944D-07-0.104D-06-0.170D-05-0.125D-04-0.255D-04
 Coeff:      0.115D-04 0.101D-03 0.195D-03-0.390D-03-0.191D-02 0.297D-02
 Coeff:      0.137D-01-0.119D-01-0.639D-01-0.567D-01 0.272D+00 0.846D+00
 Gap=     0.249 Goal=   None    Shift=    0.000
 RMSDP=7.49D-09 MaxDP=3.73D-07 DE= 2.46D-11 OVMax= 2.10D-07

 SCF Done:  E(RwB97XD) =  -3010.53863004     A.U. after   18 cycles
            NFock= 18  Conv=0.75D-08     -V/T= 2.0016
 KE= 3.005841212907D+03 PE=-8.630726033858D+03 EE= 1.876242379182D+03
 Leave Link  502 at Wed May  1 15:26:20 2024, MaxMem=  1207959552 cpu:            1037.8 elap:            1037.8
 (Enter /software/gaussian/g16-c01/sse4/g16/l601.exe)
 Copying SCF densities to generalized density rwf, IOpCl= 0 IROHF=0.

 **********************************************************************

            Population analysis using the SCF Density.

 **********************************************************************

 Alpha  occ. eigenvalues -- -483.29646 -62.84647 -56.64365 -56.63758 -56.63756
 Alpha  occ. eigenvalues --  -19.45293 -19.45229 -14.84796 -10.57380 -10.56768
 Alpha  occ. eigenvalues --  -10.56525 -10.56316 -10.56099 -10.52347  -9.00437
 Alpha  occ. eigenvalues --   -6.83182  -6.81202  -6.81188  -2.93070  -2.92545
 Alpha  occ. eigenvalues --   -2.92533  -2.90950  -2.90950  -1.49060  -1.32038
 Alpha  occ. eigenvalues --   -1.21907  -1.13188  -1.11033  -1.03020  -1.00405
 Alpha  occ. eigenvalues --   -0.94700  -0.90284  -0.84680  -0.80162  -0.79978
 Alpha  occ. eigenvalues --   -0.79377  -0.77703  -0.75491  -0.75270  -0.71347
 Alpha  occ. eigenvalues --   -0.68660  -0.66888  -0.62665  -0.59168  -0.56504
 Alpha  occ. eigenvalues --   -0.55581  -0.55058  -0.54481  -0.53649
 Alpha virt. eigenvalues --   -0.28755  -0.20726  -0.14667  -0.12633  -0.09772
 Alpha virt. eigenvalues --   -0.07002  -0.06704  -0.05343  -0.03444  -0.03156
 Alpha virt. eigenvalues --   -0.02304  -0.01086  -0.00603   0.00151   0.01246
 Alpha virt. eigenvalues --    0.02018   0.02536   0.03463   0.04103   0.04264
 Alpha virt. eigenvalues --    0.05091   0.05182   0.05787   0.06706   0.07253
 Alpha virt. eigenvalues --    0.07429   0.08126   0.08345   0.09626   0.10067
 Alpha virt. eigenvalues --    0.11038   0.11418   0.11753   0.12229   0.13123
 Alpha virt. eigenvalues --    0.13418   0.13915   0.14510   0.15441   0.16438
 Alpha virt. eigenvalues --    0.17056   0.17719   0.18186   0.18883   0.19031
 Alpha virt. eigenvalues --    0.19961   0.21650   0.21941   0.22407   0.25120
 Alpha virt. eigenvalues --    0.25695   0.28228   0.28900   0.30736   0.33657
 Alpha virt. eigenvalues --    0.34259   0.34451   0.35094   0.36068   0.36624
 Alpha virt. eigenvalues --    0.37986   0.38586   0.39959   0.41022   0.42990
 Alpha virt. eigenvalues --    0.43154   0.44345   0.44672   0.46648   0.48008
 Alpha virt. eigenvalues --    0.48292   0.50999   0.51765   0.52917   0.53987
 Alpha virt. eigenvalues --    0.54857   0.55875   0.57019   0.57672   0.59994
 Alpha virt. eigenvalues --    0.61863   0.62904   0.64875   0.67683   0.69280
 Alpha virt. eigenvalues --    0.70697   0.72805   0.73031   0.73866   0.74756
 Alpha virt. eigenvalues --    0.75305   0.79796   0.80510   0.84327   0.85782
 Alpha virt. eigenvalues --    0.87214   0.88568   0.92310   0.93809   0.99205
 Alpha virt. eigenvalues --    1.00165   1.01655   1.05298   1.05870   1.07150
 Alpha virt. eigenvalues --    1.09893   1.11385   1.12614   1.13038   1.14756
 Alpha virt. eigenvalues --    1.22551   1.25001   1.27234   1.33539   1.37042
 Alpha virt. eigenvalues --    1.37406   1.38640   1.45875   1.54936   1.57660
 Alpha virt. eigenvalues --    1.59047   1.59341   1.61155   1.62935   1.66927
 Alpha virt. eigenvalues --    1.69682   1.70371   1.74101   1.75812   1.79601
 Alpha virt. eigenvalues --    1.81661   1.85980   1.87997   1.95020   1.97090
 Alpha virt. eigenvalues --    1.98841   2.03477   2.04456   2.07792   2.08822
 Alpha virt. eigenvalues --    2.10388   2.15357   2.20905   2.23175   2.29812
 Alpha virt. eigenvalues --    2.38056   2.41684   2.42940   2.44001   2.53026
 Alpha virt. eigenvalues --    2.57156   2.63571   2.66637   2.68738   2.72262
 Alpha virt. eigenvalues --    2.73928   2.77049   2.77886   2.81593   2.82399
 Alpha virt. eigenvalues --    2.94176   2.96933   3.01193   3.06181   3.09522
 Alpha virt. eigenvalues --    3.13508   3.15490   3.19576   3.24229   3.24814
 Alpha virt. eigenvalues --    3.27897   3.39663   3.48159   3.51783   3.55043
 Alpha virt. eigenvalues --    3.57405   3.70483   3.74664   3.82746   3.87771
 Alpha virt. eigenvalues --    4.10659   4.10881   4.18233   4.23475   4.44254
 Alpha virt. eigenvalues --    4.44896   4.58061   4.60451   4.93743   4.96406
 Alpha virt. eigenvalues --    5.05058   5.09225   5.63379   6.16313   6.66293
 Alpha virt. eigenvalues --    7.49358   7.50920   7.60608  23.21924  23.61863
 Alpha virt. eigenvalues --   23.70383  23.80103  23.96597  24.01980  35.33162
 Alpha virt. eigenvalues --   47.92802  49.86126  49.94937 289.82109 289.83777
 Alpha virt. eigenvalues --  289.961971020.93190
          Condensed to atoms (all electrons):
               1          2          3          4          5          6
     1  C    8.815288  -2.055741  -0.045730  -1.402354  -0.625248   0.305764
     2  C   -2.055741  12.621567  -1.474568  -3.134208   0.615881  -0.014444
     3  C   -0.045730  -1.474568  13.233671  -3.439556  -1.065879   0.026360
     4  C   -1.402354  -3.134208  -3.439556  15.738177   1.069120   0.006322
     5  C   -0.625248   0.615881  -1.065879   1.069120   7.448767   0.015449
     6  H    0.305764  -0.014444   0.026360   0.006322   0.015449   0.338342
     7  H    0.067161   0.231403   0.076930  -0.032891  -0.021494  -0.001777
     8  H    0.004705  -0.009683   0.074656   0.234434  -0.020704   0.000003
     9  H    0.035314  -0.017736   0.002842  -0.006264   0.301437  -0.002379
    10  N   -0.128190   0.343313  -0.929796   0.293624   0.003938  -0.000658
    11  O    0.017093  -0.061689  -0.258147  -0.035153  -0.058291  -0.000020
    12  O    0.315092  -0.069448  -0.277886  -0.047458  -0.043633   0.000039
    13  C    1.237215  -1.476066   0.734626  -3.483685  -1.611317  -0.004219
    14  H   -0.017899  -0.001036   0.002841  -0.036238  -0.003068  -0.000050
    15  Br   0.037365   0.020787   0.043938   0.003894   0.023389  -0.000234
               7          8          9         10         11         12
     1  C    0.067161   0.004705   0.035314  -0.128190   0.017093   0.315092
     2  C    0.231403  -0.009683  -0.017736   0.343313  -0.061689  -0.069448
     3  C    0.076930   0.074656   0.002842  -0.929796  -0.258147  -0.277886
     4  C   -0.032891   0.234434  -0.006264   0.293624  -0.035153  -0.047458
     5  C   -0.021494  -0.020704   0.301437   0.003938  -0.058291  -0.043633
     6  H   -0.001777   0.000003  -0.002379  -0.000658  -0.000020   0.000039
     7  H    0.301709   0.000009   0.000032  -0.025639  -0.001490   0.022015
     8  H    0.000009   0.299064   0.000139  -0.023748   0.023311  -0.000945
     9  H    0.000032   0.000139   0.333253   0.000475  -0.000005   0.000009
    10  N   -0.025639  -0.023748   0.000475   7.360143   0.194204   0.150285
    11  O   -0.001490   0.023311  -0.000005   0.194204   7.836085  -0.001257
    12  O    0.022015  -0.000945   0.000009   0.150285  -0.001257   7.880055
    13  C    0.017680   0.048108   0.008950  -0.131727   0.312776   0.041850
    14  H   -0.000034  -0.005862  -0.007200  -0.000759  -0.000169  -0.000031
    15  Br   0.000107   0.004869   0.003417   0.004029   0.001123   0.002446
              13         14         15
     1  C    1.237215  -0.017899   0.037365
     2  C   -1.476066  -0.001036   0.020787
     3  C    0.734626   0.002841   0.043938
     4  C   -3.483685  -0.036238   0.003894
     5  C   -1.611317  -0.003068   0.023389
     6  H   -0.004219  -0.000050  -0.000234
     7  H    0.017680  -0.000034   0.000107
     8  H    0.048108  -0.005862   0.004869
     9  H    0.008950  -0.007200   0.003417
    10  N   -0.131727  -0.000759   0.004029
    11  O    0.312776  -0.000169   0.001123
    12  O    0.041850  -0.000031   0.002446
    13  C   10.355554   0.353481   0.060737
    14  H    0.353481   0.395811  -0.049654
    15  Br   0.060737  -0.049654  34.579254
 Mulliken charges:
               1
     1  C   -0.559834
     2  C    0.481669
     3  C   -0.704304
     4  C    0.272237
     5  C   -0.028348
     6  H    0.331504
     7  H    0.366277
     8  H    0.371643
     9  H    0.347718
    10  N   -0.109494
    11  O    0.031629
    12  O    0.028867
    13  C   -0.463965
    14  H    0.369867
    15  Br   0.264533
 Sum of Mulliken charges =   1.00000
 Mulliken charges with hydrogens summed into heavy atoms:
               1
     1  C   -0.228330
     2  C    0.847946
     3  C   -0.704304
     4  C    0.643881
     5  C    0.319369
    10  N   -0.109494
    11  O    0.031629
    12  O    0.028867
    13  C   -0.094098
    15  Br   0.264533
 Electronic spatial extent (au):  <R**2>=           2796.9744
 Charge=              1.0000 electrons
 Dipole moment (field-independent basis, Debye):
    X=             -1.0660    Y=             -0.9581    Z=             -1.7052  Tot=              2.2275
 Quadrupole moment (field-independent basis, Debye-Ang):
   XX=            -71.5890   YY=            -51.4939   ZZ=            -60.8901
   XY=              1.5729   XZ=              0.3329   YZ=              3.0945
 Traceless Quadrupole moment (field-independent basis, Debye-Ang):
   XX=            -10.2646   YY=              9.8304   ZZ=              0.4342
   XY=              1.5729   XZ=              0.3329   YZ=              3.0945
 Octapole moment (field-independent basis, Debye-Ang**2):
  XXX=           -301.3411  YYY=             84.9942  ZZZ=             69.7071  XYY=            -77.0837
  XXY=             29.5845  XXZ=             26.5806  XZZ=            -79.2942  YZZ=             12.4111
  YYZ=             20.2148  XYZ=             -4.3668
 Hexadecapole moment (field-independent basis, Debye-Ang**3):
 XXXX=          -2285.6016 YYYY=           -671.3056 ZZZZ=           -331.5396 XXXY=            -67.3150
 XXXZ=            -37.1064 YYYX=            -57.8657 YYYZ=           -146.5367 ZZZX=            -17.0421
 ZZZY=           -124.4795 XXYY=           -456.2340 XXZZ=           -368.3583 YYZZ=           -154.8867
 XXYZ=            -53.2183 YYXZ=             -1.9018 ZZXY=             -6.2873
 N-N= 7.381038117241D+02 E-N=-8.630726036161D+03  KE= 3.005841212907D+03
 No NMR shielding tensors so no spin-rotation constants.
 Leave Link  601 at Wed May  1 15:26:28 2024, MaxMem=  1207959552 cpu:               7.4 elap:               7.4
 (Enter /software/gaussian/g16-c01/sse4/g16/l9999.exe)
 Unable to Open any file for archive entry.
 1\1\GINC-BHX0027\SP\RwB97XD\6-311+G(d)\C6H5Br1N1O2(1+)\BWEIGHT\01-May-
 2024\0\\#P wB97XD/6-311+G* NoSymm #P Field=Z+97\\TitleMe\\1,1\C,0,0.02
 95,1.3397,0.0682\C,0,1.4348,1.2867,0.0064\C,0,2.1118,0.0511,-0.0054\C,
 0,1.4451,-1.1372,0.0312\C,0,-0.6879,0.1682,0.11\H,0,-0.4713,2.2984,0.0
 781\H,0,2.0273,2.1965,-0.0322\H,0,1.9897,-2.0764,0.0232\H,0,-1.7716,0.
 1804,0.1582\N,0,3.5864,0.051,-0.0675\O,0,4.1471,-1.0597,-0.0881\O,0,4.
 145,1.1639,-0.0901\C,0,-0.0236,-1.1458,0.0835\H,0,-0.4367,-1.8725,0.78
 89\Br,0,-0.5359,-1.8697,-1.7408\\Version=ES64L-G16RevC.01\HF=-3010.538
 63\RMSD=7.489e-09\Dipole=-2.3259228,0.7711404,0.4752983\Quadrupole=-7.
 6314988,7.3086585,0.3228403,1.1694446,0.2475105,2.300664\PG=C01 [X(C6H
 5Br1N1O2)]\\@
 The archive entry for this job was punched.


 IF YOU PERCEIVE THAT THERE ARE FOUR POSSIBLE WAYS IN
 WHICH A PROCEDURE CAN GO WRONG AND CIRCUMVENT THESE, 
 THEN A FIFTH WAY WILL DEVELOP.

                              -- MURPHY'S TWELFTH LAW
 Job cpu time:       0 days  0 hours 18 minutes 26.7 seconds.
 Elapsed time:       0 days  0 hours 18 minutes 26.9 seconds.
 File lengths (MBytes):  RWF=     40 Int=      0 D2E=      0 Chk=     32 Scr=      1
 Normal termination of Gaussian 16 at Wed May  1 15:26:29 2024.
