 Entering Gaussian System, Link 0=g16
 Initial command:
 /software/gaussian/g16-c01/sse4/g16/l1.exe "/local_scratch/24657457/Gau-16952.inp" -scrdir="/local_scratch/24657457/"
 Entering Link 1 = /software/gaussian/g16-c01/sse4/g16/l1.exe PID=     16964.
  
 Copyright (c) 1988-2019, Gaussian, Inc.  All Rights Reserved.
  
 This is part of the Gaussian(R) 16 program.  It is based on
 the Gaussian(R) 09 system (copyright 2009, Gaussian, Inc.),
 the Gaussian(R) 03 system (copyright 2003, Gaussian, Inc.),
 the Gaussian(R) 98 system (copyright 1998, Gaussian, Inc.),
 the Gaussian(R) 94 system (copyright 1995, Gaussian, Inc.),
 the Gaussian 92(TM) system (copyright 1992, Gaussian, Inc.),
 the Gaussian 90(TM) system (copyright 1990, Gaussian, Inc.),
 the Gaussian 88(TM) system (copyright 1988, Gaussian, Inc.),
 the Gaussian 86(TM) system (copyright 1986, Carnegie Mellon
 University), and the Gaussian 82(TM) system (copyright 1983,
 Carnegie Mellon University). Gaussian is a federally registered
 trademark of Gaussian, Inc.
  
 This software contains proprietary and confidential information,
 including trade secrets, belonging to Gaussian, Inc.
  
 This software is provided under written license and may be
 used, copied, transmitted, or stored only in accord with that
 written license.
  
 The following legend is applicable only to US Government
 contracts under FAR:
  
                    RESTRICTED RIGHTS LEGEND
  
 Use, reproduction and disclosure by the US Government is
 subject to restrictions as set forth in subparagraphs (a)
 and (c) of the Commercial Computer Software - Restricted
 Rights clause in FAR 52.227-19.
  
 Gaussian, Inc.
 340 Quinnipiac St., Bldg. 40, Wallingford CT 06492
  
  
 ---------------------------------------------------------------
 Warning -- This program may not be used in any manner that
 competes with the business of Gaussian, Inc. or will provide
 assistance to any competitor of Gaussian, Inc.  The licensee
 of this program is prohibited from giving any competitor of
 Gaussian, Inc. access to this program.  By using this program,
 the user acknowledges that Gaussian, Inc. is engaged in the
 business of creating and licensing software in the field of
 computational chemistry and represents and warrants to the
 licensee that it is not a competitor of Gaussian, Inc. and that
 it will not use this program in any manner prohibited above.
 ---------------------------------------------------------------
  

 Cite this work as:
 Gaussian 16, Revision C.01,
 M. J. Frisch, G. W. Trucks, H. B. Schlegel, G. E. Scuseria, 
 M. A. Robb, J. R. Cheeseman, G. Scalmani, V. Barone, 
 G. A. Petersson, H. Nakatsuji, X. Li, M. Caricato, A. V. Marenich, 
 J. Bloino, B. G. Janesko, R. Gomperts, B. Mennucci, H. P. Hratchian, 
 J. V. Ortiz, A. F. Izmaylov, J. L. Sonnenberg, D. Williams-Young, 
 F. Ding, F. Lipparini, F. Egidi, J. Goings, B. Peng, A. Petrone, 
 T. Henderson, D. Ranasinghe, V. G. Zakrzewski, J. Gao, N. Rega, 
 G. Zheng, W. Liang, M. Hada, M. Ehara, K. Toyota, R. Fukuda, 
 J. Hasegawa, M. Ishida, T. Nakajima, Y. Honda, O. Kitao, H. Nakai, 
 T. Vreven, K. Throssell, J. A. Montgomery, Jr., J. E. Peralta, 
 F. Ogliaro, M. J. Bearpark, J. J. Heyd, E. N. Brothers, K. N. Kudin, 
 V. N. Staroverov, T. A. Keith, R. Kobayashi, J. Normand, 
 K. Raghavachari, A. P. Rendell, J. C. Burant, S. S. Iyengar, 
 J. Tomasi, M. Cossi, J. M. Millam, M. Klene, C. Adamo, R. Cammi, 
 J. W. Ochterski, R. L. Martin, K. Morokuma, O. Farkas, 
 J. B. Foresman, and D. J. Fox, Gaussian, Inc., Wallingford CT, 2019.
 
 ******************************************
 Gaussian 16:  ES64L-G16RevC.01  3-Jul-2019
                 1-May-2024 
 ******************************************
 %chk=geometry.chk
 %mem=9GB
 %nprocshared=12
 Will use up to   12 processors via shared memory.
 ----------------------------------------
 #P wB97XD/6-311+G* NoSymm #P Field=X+155
 ----------------------------------------
 1/38=1,172=1/1;
 2/12=2,15=1,17=6,18=5,40=1/2;
 3/5=4,6=6,7=11,11=2,14=1,15=155,25=1,30=1,74=-58/1,2,3;
 4//1;
 5/5=2,38=5/2;
 6/7=2,8=2,9=2,10=2,28=1/1;
 99/5=1,9=1/99;
 Leave Link    1 at Wed May  1 14:27:54 2024, MaxMem=  1207959552 cpu:               2.0 elap:               2.2
 (Enter /software/gaussian/g16-c01/sse4/g16/l101.exe)
 -------
 TitleMe
 -------
 Symbolic Z-matrix:
 Charge =  1 Multiplicity = 1
 C                     0.0295    1.3397    0.0682 
 C                     1.4348    1.2867    0.0064 
 C                     2.1118    0.0511   -0.0054 
 C                     1.4451   -1.1372    0.0312 
 C                    -0.6879    0.1682    0.11 
 H                    -0.4713    2.2984    0.0781 
 H                     2.0273    2.1965   -0.0322 
 H                     1.9897   -2.0764    0.0232 
 H                    -1.7716    0.1804    0.1582 
 N                     3.5864    0.051    -0.0675 
 O                     4.1471   -1.0597   -0.0881 
 O                     4.145     1.1639   -0.0901 
 C                    -0.0236   -1.1458    0.0835 
 H                    -0.4367   -1.8725    0.7889 
 Br                   -0.5359   -1.8697   -1.7408 
 
 ITRead=  0  0  0  0  0  0  0  0  0  0  0  0  0  0  0
 MicOpt= -1 -1 -1 -1 -1 -1 -1 -1 -1 -1 -1 -1 -1 -1 -1
 NAtoms=     15 NQM=       15 NQMF=       0 NMMI=      0 NMMIF=      0
                NMic=       0 NMicF=      0.
                    Isotopes and Nuclear Properties:
 (Nuclear quadrupole moments (NQMom) in fm**2, nuclear magnetic moments (NMagM)
  in nuclear magnetons)

  Atom         1           2           3           4           5           6           7           8           9          10
 IAtWgt=          12          12          12          12          12           1           1           1           1          14
 AtmWgt=  12.0000000  12.0000000  12.0000000  12.0000000  12.0000000   1.0078250   1.0078250   1.0078250   1.0078250  14.0030740
 NucSpn=           0           0           0           0           0           1           1           1           1           2
 AtZEff=  -0.0000000  -0.0000000  -0.0000000  -0.0000000  -0.0000000  -0.0000000  -0.0000000  -0.0000000  -0.0000000  -0.0000000
 NQMom=    0.0000000   0.0000000   0.0000000   0.0000000   0.0000000   0.0000000   0.0000000   0.0000000   0.0000000   2.0440000
 NMagM=    0.0000000   0.0000000   0.0000000   0.0000000   0.0000000   2.7928460   2.7928460   2.7928460   2.7928460   0.4037610
 AtZNuc=   6.0000000   6.0000000   6.0000000   6.0000000   6.0000000   1.0000000   1.0000000   1.0000000   1.0000000   7.0000000

  Atom        11          12          13          14          15
 IAtWgt=          16          16          12           1          79
 AtmWgt=  15.9949146  15.9949146  12.0000000   1.0078250  78.9183361
 NucSpn=           0           0           0           1           3
 AtZEff=  -0.0000000  -0.0000000  -0.0000000  -0.0000000  -0.0000000
 NQMom=    0.0000000   0.0000000   0.0000000   0.0000000  31.3000000
 NMagM=    0.0000000   0.0000000   0.0000000   2.7928460   2.1063990
 AtZNuc=   8.0000000   8.0000000   6.0000000   1.0000000  35.0000000
 Leave Link  101 at Wed May  1 14:27:56 2024, MaxMem=  1207959552 cpu:               1.4 elap:               1.4
 (Enter /software/gaussian/g16-c01/sse4/g16/l202.exe)
                          Input orientation:                          
 ---------------------------------------------------------------------
 Center     Atomic      Atomic             Coordinates (Angstroms)
 Number     Number       Type             X           Y           Z
 ---------------------------------------------------------------------
      1          6           0        0.029500    1.339700    0.068200
      2          6           0        1.434800    1.286700    0.006400
      3          6           0        2.111800    0.051100   -0.005400
      4          6           0        1.445100   -1.137200    0.031200
      5          6           0       -0.687900    0.168200    0.110000
      6          1           0       -0.471300    2.298400    0.078100
      7          1           0        2.027300    2.196500   -0.032200
      8          1           0        1.989700   -2.076400    0.023200
      9          1           0       -1.771600    0.180400    0.158200
     10          7           0        3.586400    0.051000   -0.067500
     11          8           0        4.147100   -1.059700   -0.088100
     12          8           0        4.145000    1.163900   -0.090100
     13          6           0       -0.023600   -1.145800    0.083500
     14          1           0       -0.436700   -1.872500    0.788900
     15         35           0       -0.535900   -1.869700   -1.740800
 ---------------------------------------------------------------------
                    Distance matrix (angstroms):
                    1          2          3          4          5
     1  C    0.000000
     2  C    1.407656   0.000000
     3  C    2.449874   1.408963   0.000000
     4  C    2.853126   2.424049   1.363043   0.000000
     5  C    1.374344   2.401589   2.804523   2.501993   0.000000
     6  H    1.081667   2.159142   3.424870   3.934226   2.141421
     7  H    2.176095   1.086408   2.147231   3.384750   3.392128
     8  H    3.938800   3.408612   2.131193   1.085702   3.495040
     9  H    2.143837   3.395283   3.888995   3.478413   1.084840
    10  N    3.785591   2.482297   1.475907   2.450862   4.279589
    11  O    4.768247   3.587631   2.320164   2.705743   4.992415
    12  O    4.122294   2.714696   2.319353   3.549540   4.938459
    13  C    2.486114   2.837240   2.449573   1.469656   1.472614
    14  H    3.324903   3.754379   3.290289   2.157764   2.165286
    15  Br   3.727252   4.110867   3.702891   2.756973   2.757100
                    6          7          8          9         10
     6  H    0.000000
     7  H    2.503108   0.000000
     8  H    5.019802   4.273425   0.000000
     9  H    2.486588   4.304945   4.388479   0.000000
    10  N    4.640790   2.652397   2.661486   5.364313   0.000000
    11  O    5.712624   3.885809   2.387560   6.052233   1.244373
    12  O    4.756638   2.356750   3.893289   6.002923   1.245428
    13  C    3.473180   3.923079   2.218790   2.195425   3.806210
    14  H    4.231175   4.827242   2.552506   2.528663   4.540772
    15  Br   4.548146   5.101303   3.087568   3.055498   4.845862
                   11         12         13         14         15
    11  O    0.000000
    12  O    2.223602   0.000000
    13  C    4.175117   4.768865   0.000000
    14  H    4.737193   5.566358   1.093770   0.000000
    15  Br   5.031700   5.817075   2.028436   2.531646   0.000000
 Symmetry turned off by external request.
 Stoichiometry    C6H5BrNO2(1+)
 Framework group  C1[X(C6H5BrNO2)]
 Deg. of freedom    39
 Full point group                 C1      NOp   1
 Rotational constants (GHZ):           1.8252210           0.5518633           0.4576002
 Leave Link  202 at Wed May  1 14:27:58 2024, MaxMem=  1207959552 cpu:               1.7 elap:               1.7
 (Enter /software/gaussian/g16-c01/sse4/g16/l301.exe)
 Standard basis: 6-311+G(d) (5D, 7F)
 Ernie: Thresh=  0.10000D-02 Tol=  0.10000D-05 Strict=F.
 The following finite field(s) will be applied:
 An electric field of              0.0155  0.0000  0.0000
   261 basis functions,   443 primitive gaussians,   273 cartesian basis functions
    49 alpha electrons       49 beta electrons
       nuclear repulsion energy       739.2122215416 Hartrees.
 IExCor= 4639 DFT=T Ex+Corr=wB97XD ExCW=0 ScaHFX=  1.000000
 ScaDFX=  1.000000  1.000000  1.000000  1.000000 ScalE2=  1.000000  1.000000
 IRadAn=      5 IRanWt=     -1 IRanGd=            0 ICorTp=0 IEmpDi=121
 HFx  wShort=  0.000000 wLong=  0.200000 cFull=  0.222036 cShort=  0.000000 cLong=  0.777964
 DFx  wShort=  0.000000 wLong=  0.200000 cFull=  0.000000 cShort=  0.000000 cLong=  1.000000
 NAtoms=   15 NActive=   15 NUniq=   15 SFac= 1.00D+00 NAtFMM=   60 NAOKFM=F Big=F
 Integral buffers will be    131072 words long.
 Raffenetti 2 integral format.
 Two-electron integral symmetry is turned off.
 R6Disp:  Grimme-D2 Dispersion energy=       -0.0077368520 Hartrees.
 Nuclear repulsion after empirical dispersion term =      739.2044846896 Hartrees.
 Leave Link  301 at Wed May  1 14:28:00 2024, MaxMem=  1207959552 cpu:               1.0 elap:               1.0
 (Enter /software/gaussian/g16-c01/sse4/g16/l302.exe)
 NPDir=0 NMtPBC=     1 NCelOv=     1 NCel=       1 NClECP=     1 NCelD=      1
         NCelK=      1 NCelE2=     1 NClLst=     1 CellRange=     0.0.
 One-electron integrals computed using PRISM.
 NBasis=   261 RedAO= T EigKep=  2.35D-06  NBF=   261
 NBsUse=   261 1.00D-06 EigRej= -1.00D+00 NBFU=   261
 Precomputing XC quadrature grid using
 IXCGrd= 4 IRadAn=           5 IRanWt=          -1 IRanGd=           0 AccXCQ= 0.00D+00.
 Generated NRdTot=       0 NPtTot=           0 NUsed=           0 NTot=          32
 NSgBfM=   273   273   273   273   273 MxSgAt=    15 MxSgA2=    15.
 Leave Link  302 at Wed May  1 14:28:21 2024, MaxMem=  1207959552 cpu:              20.7 elap:              20.7
 (Enter /software/gaussian/g16-c01/sse4/g16/l303.exe)
 DipDrv:  MaxL=1.
 The nuclear repulsion energy is now       742.1300657956 hartrees.
 Leave Link  303 at Wed May  1 14:28:24 2024, MaxMem=  1207959552 cpu:               3.1 elap:               3.1
 (Enter /software/gaussian/g16-c01/sse4/g16/l401.exe)
 ExpMin= 3.50D-02 ExpMax= 4.40D+05 ExpMxC= 1.51D+04 IAcc=3 IRadAn=         5 AccDes= 0.00D+00
 Harris functional with IExCor= 4639 and IRadAn=       5 diagonalized for initial guess.
 HarFok:  IExCor= 4639 AccDes= 0.00D+00 IRadAn=         5 IDoV= 1 UseB2=F ITyADJ=14
 ICtDFT=  3500011 ScaDFX=  1.000000  1.000000  1.000000  1.000000
 FoFCou: FMM=F IPFlag=           0 FMFlag=      100000 FMFlg1=           0
         NFxFlg=           0 DoJE=T BraDBF=F KetDBF=T FulRan=T
         wScrn=  0.000000 ICntrl=       500 IOpCl=  0 I1Cent=   200000004 NGrid=           0
         NMat0=    1 NMatS0=      1 NMatT0=    0 NMatD0=    1 NMtDS0=    0 NMtDT0=    0
 Symmetry not used in FoFCou.
 Harris En= -2970.62956291571    
 JPrj=0 DoOrth=F DoCkMO=F.
 Leave Link  401 at Wed May  1 14:28:54 2024, MaxMem=  1207959552 cpu:              28.9 elap:              28.9
 (Enter /software/gaussian/g16-c01/sse4/g16/l502.exe)
 Two-electron integral symmetry not used.
 Closed shell SCF:
 Using DIIS extrapolation, IDIIS=  1040.
 NGot=  1207959552 LenX=  1207804877 LenY=  1207729907
 Requested convergence on RMS density matrix=1.00D-08 within 128 cycles.
 Requested convergence on MAX density matrix=1.00D-06.
 Requested convergence on             energy=1.00D-06.
 No special actions if energy rises.
 Fock matrices will be formed incrementally for  20 cycles.

 Cycle   1  Pass 1  IDiag  1:
 FoFJK:  IHMeth= 1 ICntrl=       0 DoSepK=T KAlg= 0 I1Cent=           0 FoldK=F
 IRaf=         1 NMat=       1 IRICut=       1 DoRegI=T DoRafI=F ISym2E= 0 IDoP0=0 IntGTp=1.
 FoFCou: FMM=F IPFlag=           0 FMFlag=      100000 FMFlg1=           0
         NFxFlg=           0 DoJE=T BraDBF=F KetDBF=F FulRan=T
         wScrn=  0.000000 ICntrl=       500 IOpCl=  0 I1Cent=           0 NGrid=           0
         NMat0=    1 NMatS0=      1 NMatT0=    0 NMatD0=    1 NMtDS0=    0 NMtDT0=    0
 Symmetry not used in FoFCou.
 E= -3009.72617871909    
 DIIS: error= 3.20D-01 at cycle   1 NSaved=   1.
 NSaved= 1 IEnMin= 1 EnMin= -3009.72617871909     IErMin= 1 ErrMin= 3.20D-01
 ErrMax= 3.20D-01  0.00D+00 EMaxC= 1.00D-01 BMatC= 1.20D+01 BMatP= 1.20D+01
 IDIUse=3 WtCom= 0.00D+00 WtEn= 1.00D+00
 Coeff-Com:  0.100D+01
 Coeff-En:   0.100D+01
 Coeff:      0.100D+01
 Gap=     0.301 Goal=   None    Shift=    0.000
 GapD=    0.301 DampG=1.000 DampE=0.250 DampFc=0.2500 IDamp=-1.
 Damping current iteration by 2.50D-01
 RMSDP=6.34D-02 MaxDP=6.73D+00              OVMax= 2.63D-01

 Cycle   2  Pass 1  IDiag  1:
 RMSU=  4.61D-03    CP:  8.65D-01
 E= -3010.01527752104     Delta-E=       -0.289098801955 Rises=F Damp=T
 DIIS: error= 2.25D-01 at cycle   2 NSaved=   2.
 NSaved= 2 IEnMin= 2 EnMin= -3010.01527752104     IErMin= 2 ErrMin= 2.25D-01
 ErrMax= 2.25D-01  0.00D+00 EMaxC= 1.00D-01 BMatC= 5.46D+00 BMatP= 1.20D+01
 IDIUse=3 WtCom= 0.00D+00 WtEn= 1.00D+00
 Coeff-Com: -0.182D+01 0.282D+01
 Coeff-En:   0.000D+00 0.100D+01
 Coeff:      0.000D+00 0.100D+01
 Gap=     0.279 Goal=   None    Shift=    0.000
 RMSDP=4.84D-02 MaxDP=5.00D+00 DE=-2.89D-01 OVMax= 7.69D-02

 Cycle   3  Pass 1  IDiag  1:
 RMSU=  4.47D-03    CP:  4.48D-01  3.00D+00
 E= -3010.39895960492     Delta-E=       -0.383682083872 Rises=F Damp=F
 DIIS: error= 6.62D-02 at cycle   3 NSaved=   3.
 NSaved= 3 IEnMin= 3 EnMin= -3010.39895960492     IErMin= 3 ErrMin= 6.62D-02
 ErrMax= 6.62D-02  0.00D+00 EMaxC= 1.00D-01 BMatC= 7.51D-01 BMatP= 5.46D+00
 IDIUse=3 WtCom= 3.38D-01 WtEn= 6.62D-01
 Coeff-Com:  0.275D+01-0.362D+01 0.187D+01
 Coeff-En:   0.322D-01 0.000D+00 0.968D+00
 Coeff:      0.950D+00-0.122D+01 0.127D+01
 Gap=     0.264 Goal=   None    Shift=    0.000
 RMSDP=8.33D-03 MaxDP=5.32D-01 DE=-3.84D-01 OVMax= 7.96D-02

 Cycle   4  Pass 1  IDiag  1:
 RMSU=  5.88D-03    CP:  4.67D-01  2.55D+00  1.90D+00
 E= -3010.50576525434     Delta-E=       -0.106805649425 Rises=F Damp=F
 DIIS: error= 3.86D-02 at cycle   4 NSaved=   4.
 NSaved= 4 IEnMin= 4 EnMin= -3010.50576525434     IErMin= 4 ErrMin= 3.86D-02
 ErrMax= 3.86D-02  0.00D+00 EMaxC= 1.00D-01 BMatC= 2.36D-01 BMatP= 7.51D-01
 IDIUse=3 WtCom= 6.14D-01 WtEn= 3.86D-01
 Coeff-Com: -0.286D+00 0.395D+00 0.216D+00 0.676D+00
 Coeff-En:   0.000D+00 0.000D+00 0.204D+00 0.796D+00
 Coeff:     -0.176D+00 0.242D+00 0.211D+00 0.722D+00
 Gap=     0.259 Goal=   None    Shift=    0.000
 RMSDP=4.04D-03 MaxDP=3.79D-01 DE=-1.07D-01 OVMax= 3.30D-02

 Cycle   5  Pass 1  IDiag  1:
 RMSU=  1.55D-03    CP:  4.38D-01  2.91D+00  1.76D+00  9.10D-01
 E= -3010.55309136445     Delta-E=       -0.047326110113 Rises=F Damp=F
 DIIS: error= 6.70D-03 at cycle   5 NSaved=   5.
 NSaved= 5 IEnMin= 5 EnMin= -3010.55309136445     IErMin= 5 ErrMin= 6.70D-03
 ErrMax= 6.70D-03  0.00D+00 EMaxC= 1.00D-01 BMatC= 6.98D-03 BMatP= 2.36D-01
 IDIUse=3 WtCom= 9.33D-01 WtEn= 6.70D-02
 Coeff-Com: -0.141D+00 0.190D+00 0.239D-01 0.300D+00 0.627D+00
 Coeff-En:   0.000D+00 0.000D+00 0.000D+00 0.000D+00 0.100D+01
 Coeff:     -0.131D+00 0.178D+00 0.223D-01 0.279D+00 0.652D+00
 Gap=     0.248 Goal=   None    Shift=    0.000
 RMSDP=7.19D-04 MaxDP=5.34D-02 DE=-4.73D-02 OVMax= 1.08D-02

 Cycle   6  Pass 1  IDiag  1:
 RMSU=  4.97D-04    CP:  4.38D-01  2.85D+00  1.79D+00  9.16D-01  7.33D-01
 E= -3010.55454657070     Delta-E=       -0.001455206249 Rises=F Damp=F
 DIIS: error= 4.22D-04 at cycle   6 NSaved=   6.
 NSaved= 6 IEnMin= 6 EnMin= -3010.55454657070     IErMin= 6 ErrMin= 4.22D-04
 ErrMax= 4.22D-04  0.00D+00 EMaxC= 1.00D-01 BMatC= 6.62D-05 BMatP= 6.98D-03
 IDIUse=3 WtCom= 9.96D-01 WtEn= 4.22D-03
 Coeff-Com: -0.646D-01 0.864D-01-0.139D-01 0.900D-01 0.280D+00 0.622D+00
 Coeff-En:   0.000D+00 0.000D+00 0.000D+00 0.000D+00 0.000D+00 0.100D+01
 Coeff:     -0.643D-01 0.861D-01-0.139D-01 0.897D-01 0.279D+00 0.624D+00
 Gap=     0.249 Goal=   None    Shift=    0.000
 RMSDP=2.93D-04 MaxDP=1.70D-02 DE=-1.46D-03 OVMax= 3.20D-03

 Cycle   7  Pass 1  IDiag  1:
 RMSU=  1.11D-04    CP:  4.37D-01  2.86D+00  1.81D+00  9.31D-01  8.50D-01
                    CP:  7.63D-01
 E= -3010.55461056206     Delta-E=       -0.000063991359 Rises=F Damp=F
 DIIS: error= 3.64D-04 at cycle   7 NSaved=   7.
 NSaved= 7 IEnMin= 7 EnMin= -3010.55461056206     IErMin= 7 ErrMin= 3.64D-04
 ErrMax= 3.64D-04  0.00D+00 EMaxC= 1.00D-01 BMatC= 1.48D-05 BMatP= 6.62D-05
 IDIUse=3 WtCom= 9.96D-01 WtEn= 3.64D-03
 Coeff-Com: -0.182D-01 0.241D-01-0.117D-01 0.110D-01 0.646D-01 0.335D+00
 Coeff-Com:  0.595D+00
 Coeff-En:   0.000D+00 0.000D+00 0.000D+00 0.000D+00 0.000D+00 0.000D+00
 Coeff-En:   0.100D+01
 Coeff:     -0.182D-01 0.240D-01-0.117D-01 0.110D-01 0.644D-01 0.334D+00
 Coeff:      0.597D+00
 Gap=     0.249 Goal=   None    Shift=    0.000
 RMSDP=7.48D-05 MaxDP=3.53D-03 DE=-6.40D-05 OVMax= 1.53D-03

 Cycle   8  Pass 1  IDiag  1:
 RMSU=  4.64D-05    CP:  4.37D-01  2.86D+00  1.81D+00  9.37D-01  8.63D-01
                    CP:  8.01D-01  1.21D+00
 E= -3010.55462411119     Delta-E=       -0.000013549125 Rises=F Damp=F
 DIIS: error= 1.70D-04 at cycle   8 NSaved=   8.
 NSaved= 8 IEnMin= 8 EnMin= -3010.55462411119     IErMin= 8 ErrMin= 1.70D-04
 ErrMax= 1.70D-04  0.00D+00 EMaxC= 1.00D-01 BMatC= 3.71D-06 BMatP= 1.48D-05
 IDIUse=3 WtCom= 9.98D-01 WtEn= 1.70D-03
 Coeff-Com:  0.113D-01-0.154D-01-0.255D-02-0.230D-01-0.505D-01 0.104D-01
 Coeff-Com:  0.366D+00 0.704D+00
 Coeff-En:   0.000D+00 0.000D+00 0.000D+00 0.000D+00 0.000D+00 0.000D+00
 Coeff-En:   0.000D+00 0.100D+01
 Coeff:      0.113D-01-0.154D-01-0.254D-02-0.229D-01-0.504D-01 0.104D-01
 Coeff:      0.365D+00 0.704D+00
 Gap=     0.249 Goal=   None    Shift=    0.000
 RMSDP=5.37D-05 MaxDP=2.55D-03 DE=-1.35D-05 OVMax= 1.04D-03

 Cycle   9  Pass 1  IDiag  1:
 RMSU=  2.12D-05    CP:  4.38D-01  2.86D+00  1.82D+00  9.39D-01  8.68D-01
                    CP:  8.50D-01  1.46D+00  1.07D+00
 E= -3010.55462943618     Delta-E=       -0.000005324990 Rises=F Damp=F
 DIIS: error= 4.03D-05 at cycle   9 NSaved=   9.
 NSaved= 9 IEnMin= 9 EnMin= -3010.55462943618     IErMin= 9 ErrMin= 4.03D-05
 ErrMax= 4.03D-05  0.00D+00 EMaxC= 1.00D-01 BMatC= 4.08D-07 BMatP= 3.71D-06
 IDIUse=1 WtCom= 1.00D+00 WtEn= 0.00D+00
 Coeff-Com:  0.838D-02-0.112D-01 0.990D-03-0.118D-01-0.273D-01-0.424D-01
 Coeff-Com:  0.323D-01 0.267D+00 0.784D+00
 Coeff:      0.838D-02-0.112D-01 0.990D-03-0.118D-01-0.273D-01-0.424D-01
 Coeff:      0.323D-01 0.267D+00 0.784D+00
 Gap=     0.249 Goal=   None    Shift=    0.000
 RMSDP=2.12D-05 MaxDP=9.03D-04 DE=-5.32D-06 OVMax= 5.63D-04

 Cycle  10  Pass 1  IDiag  1:
 RMSU=  9.89D-06    CP:  4.38D-01  2.86D+00  1.82D+00  9.40D-01  8.73D-01
                    CP:  8.64D-01  1.55D+00  1.21D+00  1.18D+00
 E= -3010.55463030281     Delta-E=       -0.000000866634 Rises=F Damp=F
 DIIS: error= 2.32D-05 at cycle  10 NSaved=  10.
 NSaved=10 IEnMin=10 EnMin= -3010.55463030281     IErMin=10 ErrMin= 2.32D-05
 ErrMax= 2.32D-05  0.00D+00 EMaxC= 1.00D-01 BMatC= 9.02D-08 BMatP= 4.08D-07
 IDIUse=1 WtCom= 1.00D+00 WtEn= 0.00D+00
 Coeff-Com:  0.875D-03-0.115D-02 0.475D-03-0.670D-03 0.687D-03-0.900D-02
 Coeff-Com: -0.481D-01-0.321D-01 0.265D+00 0.824D+00
 Coeff:      0.875D-03-0.115D-02 0.475D-03-0.670D-03 0.687D-03-0.900D-02
 Coeff:     -0.481D-01-0.321D-01 0.265D+00 0.824D+00
 Gap=     0.249 Goal=   None    Shift=    0.000
 RMSDP=1.33D-05 MaxDP=8.99D-04 DE=-8.67D-07 OVMax= 3.06D-04

 Cycle  11  Pass 1  IDiag  1:
 RMSU=  4.70D-06    CP:  4.38D-01  2.86D+00  1.82D+00  9.40D-01  8.72D-01
                    CP:  8.76D-01  1.55D+00  1.23D+00  1.37D+00  1.25D+00
 E= -3010.55463049311     Delta-E=       -0.000000190296 Rises=F Damp=F
 DIIS: error= 6.54D-06 at cycle  11 NSaved=  11.
 NSaved=11 IEnMin=11 EnMin= -3010.55463049311     IErMin=11 ErrMin= 6.54D-06
 ErrMax= 6.54D-06  0.00D+00 EMaxC= 1.00D-01 BMatC= 7.66D-09 BMatP= 9.02D-08
 IDIUse=1 WtCom= 1.00D+00 WtEn= 0.00D+00
 Coeff-Com: -0.456D-03 0.610D-03-0.340D-05 0.111D-02 0.390D-02 0.910D-02
 Coeff-Com: -0.606D-03-0.382D-01-0.126D+00-0.220D-01 0.117D+01
 Coeff:     -0.456D-03 0.610D-03-0.340D-05 0.111D-02 0.390D-02 0.910D-02
 Coeff:     -0.606D-03-0.382D-01-0.126D+00-0.220D-01 0.117D+01
 Gap=     0.249 Goal=   None    Shift=    0.000
 RMSDP=9.02D-06 MaxDP=5.49D-04 DE=-1.90D-07 OVMax= 2.33D-04

 Cycle  12  Pass 1  IDiag  1:
 RMSU=  1.65D-06    CP:  4.38D-01  2.85D+00  1.82D+00  9.39D-01  8.71D-01
                    CP:  8.84D-01  1.54D+00  1.24D+00  1.48D+00  1.61D+00
                    CP:  1.40D+00
 E= -3010.55463054729     Delta-E=       -0.000000054180 Rises=F Damp=F
 DIIS: error= 2.27D-06 at cycle  12 NSaved=  12.
 NSaved=12 IEnMin=12 EnMin= -3010.55463054729     IErMin=12 ErrMin= 2.27D-06
 ErrMax= 2.27D-06  0.00D+00 EMaxC= 1.00D-01 BMatC= 3.25D-09 BMatP= 7.66D-09
 IDIUse=1 WtCom= 1.00D+00 WtEn= 0.00D+00
 Coeff-Com: -0.336D-03 0.446D-03-0.583D-04 0.617D-03 0.135D-02 0.529D-02
 Coeff-Com:  0.707D-02-0.142D-01-0.108D+00-0.178D+00 0.570D+00 0.715D+00
 Coeff:     -0.336D-03 0.446D-03-0.583D-04 0.617D-03 0.135D-02 0.529D-02
 Coeff:      0.707D-02-0.142D-01-0.108D+00-0.178D+00 0.570D+00 0.715D+00
 Gap=     0.249 Goal=   None    Shift=    0.000
 RMSDP=3.92D-06 MaxDP=2.02D-04 DE=-5.42D-08 OVMax= 1.07D-04

 Cycle  13  Pass 1  IDiag  1:
 RMSU=  8.33D-07    CP:  4.38D-01  2.85D+00  1.82D+00  9.39D-01  8.70D-01
                    CP:  8.88D-01  1.54D+00  1.24D+00  1.52D+00  1.74D+00
                    CP:  1.67D+00  1.21D+00
 E= -3010.55463055913     Delta-E=       -0.000000011842 Rises=F Damp=F
 DIIS: error= 8.75D-07 at cycle  13 NSaved=  13.
 NSaved=13 IEnMin=13 EnMin= -3010.55463055913     IErMin=13 ErrMin= 8.75D-07
 ErrMax= 8.75D-07  0.00D+00 EMaxC= 1.00D-01 BMatC= 3.97D-10 BMatP= 3.25D-09
 IDIUse=1 WtCom= 1.00D+00 WtEn= 0.00D+00
 Coeff-Com:  0.158D-04-0.207D-04-0.141D-04-0.193D-03-0.106D-02-0.222D-02
 Coeff-Com:  0.919D-04 0.931D-02 0.327D-01-0.835D-02-0.215D+00-0.158D-02
 Coeff-Com:  0.119D+01
 Coeff:      0.158D-04-0.207D-04-0.141D-04-0.193D-03-0.106D-02-0.222D-02
 Coeff:      0.919D-04 0.931D-02 0.327D-01-0.835D-02-0.215D+00-0.158D-02
 Coeff:      0.119D+01
 Gap=     0.249 Goal=   None    Shift=    0.000
 RMSDP=1.03D-06 MaxDP=3.47D-05 DE=-1.18D-08 OVMax= 5.92D-05

 Cycle  14  Pass 1  IDiag  1:
 RMSU=  4.41D-07    CP:  4.38D-01  2.85D+00  1.82D+00  9.39D-01  8.70D-01
                    CP:  8.89D-01  1.54D+00  1.24D+00  1.53D+00  1.77D+00
                    CP:  1.75D+00  1.46D+00  1.39D+00
 E= -3010.55463056197     Delta-E=       -0.000000002842 Rises=F Damp=F
 DIIS: error= 6.07D-07 at cycle  14 NSaved=  14.
 NSaved=14 IEnMin=14 EnMin= -3010.55463056197     IErMin=14 ErrMin= 6.07D-07
 ErrMax= 6.07D-07  0.00D+00 EMaxC= 1.00D-01 BMatC= 7.79D-11 BMatP= 3.97D-10
 IDIUse=1 WtCom= 1.00D+00 WtEn= 0.00D+00
 Coeff-Com:  0.339D-04-0.448D-04-0.835D-06-0.117D-03-0.395D-03-0.120D-02
 Coeff-Com: -0.104D-02 0.437D-02 0.244D-01 0.183D-01-0.145D+00-0.119D+00
 Coeff-Com:  0.360D+00 0.860D+00
 Coeff:      0.339D-04-0.448D-04-0.835D-06-0.117D-03-0.395D-03-0.120D-02
 Coeff:     -0.104D-02 0.437D-02 0.244D-01 0.183D-01-0.145D+00-0.119D+00
 Coeff:      0.360D+00 0.860D+00
 Gap=     0.249 Goal=   None    Shift=    0.000
 RMSDP=5.90D-07 MaxDP=3.31D-05 DE=-2.84D-09 OVMax= 2.34D-05

 Cycle  15  Pass 1  IDiag  1:
 RMSU=  1.59D-07    CP:  4.38D-01  2.85D+00  1.82D+00  9.39D-01  8.70D-01
                    CP:  8.89D-01  1.54D+00  1.24D+00  1.53D+00  1.78D+00
                    CP:  1.79D+00  1.53D+00  1.61D+00  1.26D+00
 E= -3010.55463056245     Delta-E=       -0.000000000481 Rises=F Damp=F
 DIIS: error= 2.00D-07 at cycle  15 NSaved=  15.
 NSaved=15 IEnMin=15 EnMin= -3010.55463056245     IErMin=15 ErrMin= 2.00D-07
 ErrMax= 2.00D-07  0.00D+00 EMaxC= 1.00D-01 BMatC= 2.33D-11 BMatP= 7.79D-11
 IDIUse=1 WtCom= 1.00D+00 WtEn= 0.00D+00
 Coeff-Com:  0.128D-04-0.172D-04 0.318D-05 0.890D-05 0.174D-03 0.250D-03
 Coeff-Com: -0.381D-03-0.117D-02-0.351D-03 0.763D-02 0.843D-02-0.447D-01
 Coeff-Com: -0.190D+00 0.356D+00 0.865D+00
 Coeff:      0.128D-04-0.172D-04 0.318D-05 0.890D-05 0.174D-03 0.250D-03
 Coeff:     -0.381D-03-0.117D-02-0.351D-03 0.763D-02 0.843D-02-0.447D-01
 Coeff:     -0.190D+00 0.356D+00 0.865D+00
 Gap=     0.249 Goal=   None    Shift=    0.000
 RMSDP=2.79D-07 MaxDP=1.08D-05 DE=-4.81D-10 OVMax= 1.03D-05

 Cycle  16  Pass 1  IDiag  1:
 RMSU=  7.34D-08    CP:  4.38D-01  2.85D+00  1.82D+00  9.39D-01  8.70D-01
                    CP:  8.89D-01  1.54D+00  1.24D+00  1.53D+00  1.79D+00
                    CP:  1.80D+00  1.54D+00  1.76D+00  1.50D+00  1.23D+00
 E= -3010.55463056252     Delta-E=       -0.000000000072 Rises=F Damp=F
 DIIS: error= 9.70D-08 at cycle  16 NSaved=  16.
 NSaved=16 IEnMin=16 EnMin= -3010.55463056252     IErMin=16 ErrMin= 9.70D-08
 ErrMax= 9.70D-08  0.00D+00 EMaxC= 1.00D-01 BMatC= 1.96D-12 BMatP= 2.33D-11
 IDIUse=1 WtCom= 1.00D+00 WtEn= 0.00D+00
 Coeff-Com: -0.197D-05 0.259D-05 0.109D-05 0.164D-04 0.808D-04 0.208D-03
 Coeff-Com:  0.196D-04-0.888D-03-0.324D-02-0.182D-03 0.218D-01 0.711D-02
 Coeff-Com: -0.952D-01-0.398D-01 0.154D+00 0.956D+00
 Coeff:     -0.197D-05 0.259D-05 0.109D-05 0.164D-04 0.808D-04 0.208D-03
 Coeff:      0.196D-04-0.888D-03-0.324D-02-0.182D-03 0.218D-01 0.711D-02
 Coeff:     -0.952D-01-0.398D-01 0.154D+00 0.956D+00
 Gap=     0.249 Goal=   None    Shift=    0.000
 RMSDP=8.66D-08 MaxDP=3.09D-06 DE=-7.19D-11 OVMax= 3.92D-06

 Cycle  17  Pass 1  IDiag  1:
 RMSU=  1.83D-08    CP:  4.38D-01  2.85D+00  1.82D+00  9.39D-01  8.70D-01
                    CP:  8.89D-01  1.54D+00  1.24D+00  1.53D+00  1.78D+00
                    CP:  1.81D+00  1.53D+00  1.80D+00  1.58D+00  1.44D+00
                    CP:  1.29D+00
 E= -3010.55463056257     Delta-E=       -0.000000000045 Rises=F Damp=F
 DIIS: error= 2.88D-08 at cycle  17 NSaved=  17.
 NSaved=17 IEnMin=17 EnMin= -3010.55463056257     IErMin=17 ErrMin= 2.88D-08
 ErrMax= 2.88D-08  0.00D+00 EMaxC= 1.00D-01 BMatC= 2.94D-13 BMatP= 1.96D-12
 IDIUse=1 WtCom= 1.00D+00 WtEn= 0.00D+00
 Coeff-Com: -0.644D-06 0.860D-06-0.351D-07-0.134D-05-0.209D-04-0.150D-04
 Coeff-Com:  0.818D-04 0.108D-03-0.283D-03-0.121D-02 0.950D-03 0.723D-02
 Coeff-Com:  0.149D-01-0.563D-01-0.112D+00 0.172D+00 0.975D+00
 Coeff:     -0.644D-06 0.860D-06-0.351D-07-0.134D-05-0.209D-04-0.150D-04
 Coeff:      0.818D-04 0.108D-03-0.283D-03-0.121D-02 0.950D-03 0.723D-02
 Coeff:      0.149D-01-0.563D-01-0.112D+00 0.172D+00 0.975D+00
 Gap=     0.249 Goal=   None    Shift=    0.000
 RMSDP=4.12D-08 MaxDP=2.05D-06 DE=-4.55D-11 OVMax= 1.55D-06

 Cycle  18  Pass 1  IDiag  1:
 RMSU=  8.84D-09    CP:  4.38D-01  2.85D+00  1.82D+00  9.39D-01  8.70D-01
                    CP:  8.89D-01  1.54D+00  1.24D+00  1.53D+00  1.78D+00
                    CP:  1.81D+00  1.53D+00  1.82D+00  1.59D+00  1.49D+00
                    CP:  1.52D+00  1.42D+00
 E= -3010.55463056259     Delta-E=       -0.000000000019 Rises=F Damp=F
 DIIS: error= 1.13D-08 at cycle  18 NSaved=  18.
 NSaved=18 IEnMin=18 EnMin= -3010.55463056259     IErMin=18 ErrMin= 1.13D-08
 ErrMax= 1.13D-08  0.00D+00 EMaxC= 1.00D-01 BMatC= 6.52D-14 BMatP= 2.94D-13
 IDIUse=1 WtCom= 1.00D+00 WtEn= 0.00D+00
 Coeff-Com:  0.430D-06-0.574D-06-0.104D-06-0.295D-05-0.173D-04-0.336D-04
 Coeff-Com:  0.182D-04 0.154D-03 0.388D-03-0.380D-03-0.280D-02 0.135D-02
 Coeff-Com:  0.205D-01-0.112D-01-0.589D-01-0.115D+00 0.254D+00 0.912D+00
 Coeff:      0.430D-06-0.574D-06-0.104D-06-0.295D-05-0.173D-04-0.336D-04
 Coeff:      0.182D-04 0.154D-03 0.388D-03-0.380D-03-0.280D-02 0.135D-02
 Coeff:      0.205D-01-0.112D-01-0.589D-01-0.115D+00 0.254D+00 0.912D+00
 Gap=     0.249 Goal=   None    Shift=    0.000
 RMSDP=1.76D-08 MaxDP=1.01D-06 DE=-1.86D-11 OVMax= 6.20D-07

 Cycle  19  Pass 1  IDiag  1:
 RMSU=  2.94D-09    CP:  4.38D-01  2.85D+00  1.82D+00  9.39D-01  8.70D-01
                    CP:  8.89D-01  1.54D+00  1.24D+00  1.53D+00  1.78D+00
                    CP:  1.81D+00  1.53D+00  1.83D+00  1.59D+00  1.51D+00
                    CP:  1.60D+00  1.70D+00  1.40D+00
 E= -3010.55463056254     Delta-E=        0.000000000046 Rises=F Damp=F
 DIIS: error= 4.92D-09 at cycle  19 NSaved=  19.
 NSaved=19 IEnMin=18 EnMin= -3010.55463056259     IErMin=19 ErrMin= 4.92D-09
 ErrMax= 4.92D-09  0.00D+00 EMaxC= 1.00D-01 BMatC= 8.22D-15 BMatP= 6.52D-14
 IDIUse=1 WtCom= 1.00D+00 WtEn= 0.00D+00
 Coeff-Com:  0.185D-06-0.246D-06-0.353D-08-0.142D-06 0.169D-05-0.108D-05
 Coeff-Com: -0.168D-04-0.771D-05 0.116D-03 0.222D-03-0.467D-03-0.133D-02
 Coeff-Com: -0.698D-03 0.606D-02 0.137D-01-0.223D-01-0.132D+00 0.540D-01
 Coeff-Com:  0.108D+01
 Coeff:      0.185D-06-0.246D-06-0.353D-08-0.142D-06 0.169D-05-0.108D-05
 Coeff:     -0.168D-04-0.771D-05 0.116D-03 0.222D-03-0.467D-03-0.133D-02
 Coeff:     -0.698D-03 0.606D-02 0.137D-01-0.223D-01-0.132D+00 0.540D-01
 Coeff:      0.108D+01
 Gap=     0.249 Goal=   None    Shift=    0.000
 RMSDP=7.25D-09 MaxDP=4.35D-07 DE= 4.59D-11 OVMax= 3.24D-07

 SCF Done:  E(RwB97XD) =  -3010.55463056     A.U. after   19 cycles
            NFock= 19  Conv=0.72D-08     -V/T= 2.0016
 KE= 3.005838514270D+03 PE=-8.634805234075D+03 EE= 1.876282023447D+03
 Leave Link  502 at Wed May  1 14:46:25 2024, MaxMem=  1207959552 cpu:            1051.1 elap:            1051.2
 (Enter /software/gaussian/g16-c01/sse4/g16/l601.exe)
 Copying SCF densities to generalized density rwf, IOpCl= 0 IROHF=0.

 **********************************************************************

            Population analysis using the SCF Density.

 **********************************************************************

 Alpha  occ. eigenvalues -- -483.32284 -62.87283 -56.66997 -56.66399 -56.66390
 Alpha  occ. eigenvalues --  -19.53649 -19.53565 -14.92904 -10.60838 -10.60042
 Alpha  occ. eigenvalues --  -10.59866 -10.59476 -10.58239 -10.54367  -9.03069
 Alpha  occ. eigenvalues --   -6.85803  -6.83848  -6.83817  -2.95694  -2.95180
 Alpha  occ. eigenvalues --   -2.95153  -2.93590  -2.93590  -1.57371  -1.40436
 Alpha  occ. eigenvalues --   -1.25254  -1.16942  -1.13879  -1.06340  -1.04790
 Alpha  occ. eigenvalues --   -0.97564  -0.94056  -0.90615  -0.87286  -0.85770
 Alpha  occ. eigenvalues --   -0.84436  -0.81417  -0.80034  -0.78018  -0.74377
 Alpha  occ. eigenvalues --   -0.70919  -0.69477  -0.65954  -0.64877  -0.64597
 Alpha  occ. eigenvalues --   -0.63627  -0.61812  -0.57009  -0.56353
 Alpha virt. eigenvalues --   -0.31428  -0.27543  -0.17622  -0.16017  -0.13142
 Alpha virt. eigenvalues --   -0.10283  -0.09635  -0.08213  -0.08031  -0.06008
 Alpha virt. eigenvalues --   -0.04606  -0.04353  -0.03771  -0.02408  -0.02125
 Alpha virt. eigenvalues --   -0.01499  -0.01188  -0.00475   0.00074   0.00853
 Alpha virt. eigenvalues --    0.01972   0.02107   0.02695   0.03058   0.03569
 Alpha virt. eigenvalues --    0.04167   0.04367   0.05337   0.06021   0.06795
 Alpha virt. eigenvalues --    0.07069   0.07856   0.08302   0.08967   0.09294
 Alpha virt. eigenvalues --    0.10056   0.10259   0.11002   0.11753   0.13152
 Alpha virt. eigenvalues --    0.13368   0.13645   0.14765   0.15024   0.15954
 Alpha virt. eigenvalues --    0.16883   0.17750   0.18625   0.18874   0.19833
 Alpha virt. eigenvalues --    0.20590   0.21281   0.23475   0.23785   0.27010
 Alpha virt. eigenvalues --    0.28498   0.29251   0.31652   0.31955   0.33414
 Alpha virt. eigenvalues --    0.34389   0.35547   0.36963   0.37500   0.39991
 Alpha virt. eigenvalues --    0.40375   0.41173   0.41417   0.42821   0.44412
 Alpha virt. eigenvalues --    0.44976   0.47555   0.48685   0.49225   0.51118
 Alpha virt. eigenvalues --    0.51500   0.52715   0.54413   0.55306   0.56399
 Alpha virt. eigenvalues --    0.59777   0.61234   0.62946   0.65032   0.65916
 Alpha virt. eigenvalues --    0.66767   0.68724   0.71213   0.71914   0.72463
 Alpha virt. eigenvalues --    0.73148   0.74329   0.76212   0.79068   0.81462
 Alpha virt. eigenvalues --    0.83748   0.84287   0.88266   0.89535   0.91257
 Alpha virt. eigenvalues --    0.92664   0.97038   1.00145   1.01469   1.03123
 Alpha virt. eigenvalues --    1.03593   1.04674   1.05840   1.06251   1.08634
 Alpha virt. eigenvalues --    1.14292   1.19759   1.22523   1.30681   1.33870
 Alpha virt. eigenvalues --    1.34547   1.35535   1.42976   1.50978   1.51592
 Alpha virt. eigenvalues --    1.52934   1.53931   1.58029   1.59109   1.64067
 Alpha virt. eigenvalues --    1.65415   1.67470   1.68397   1.71488   1.76399
 Alpha virt. eigenvalues --    1.79462   1.82726   1.83930   1.91311   1.93731
 Alpha virt. eigenvalues --    1.95385   1.97724   2.00248   2.04960   2.05837
 Alpha virt. eigenvalues --    2.07389   2.12392   2.16753   2.18932   2.27403
 Alpha virt. eigenvalues --    2.32775   2.36436   2.39682   2.41302   2.49787
 Alpha virt. eigenvalues --    2.54569   2.59970   2.62172   2.63999   2.66205
 Alpha virt. eigenvalues --    2.66892   2.69453   2.73472   2.73762   2.79577
 Alpha virt. eigenvalues --    2.91022   2.93488   2.94012   3.03326   3.05359
 Alpha virt. eigenvalues --    3.09155   3.12065   3.16405   3.17655   3.19320
 Alpha virt. eigenvalues --    3.21619   3.33861   3.45332   3.46716   3.48366
 Alpha virt. eigenvalues --    3.52761   3.62736   3.66443   3.79687   3.84589
 Alpha virt. eigenvalues --    4.08044   4.08262   4.15581   4.20887   4.36282
 Alpha virt. eigenvalues --    4.41642   4.52698   4.55552   4.85012   4.87603
 Alpha virt. eigenvalues --    4.96286   5.00452   5.55080   6.07671   6.63730
 Alpha virt. eigenvalues --    7.46745   7.48300   7.57999  23.19012  23.58854
 Alpha virt. eigenvalues --   23.68116  23.77089  23.93637  23.98770  35.25074
 Alpha virt. eigenvalues --   47.90175  49.77740  49.86549 289.79474 289.81138
 Alpha virt. eigenvalues --  289.935621020.90553
          Condensed to atoms (all electrons):
               1          2          3          4          5          6
     1  C    8.438555  -2.514379   0.779624  -1.422136  -0.922795   0.296513
     2  C   -2.514379  13.727077  -2.735397  -2.645538   1.397072  -0.013233
     3  C    0.779624  -2.735397  12.956829  -2.506388  -1.480320   0.014714
     4  C   -1.422136  -2.645538  -2.506388  13.297086   1.247002   0.010573
     5  C   -0.922795   1.397072  -1.480320   1.247002   7.539166   0.032772
     6  H    0.296513  -0.013233   0.014714   0.010573   0.032772   0.307122
     7  H    0.055733   0.254145   0.084495  -0.035132  -0.022312  -0.001836
     8  H    0.000070  -0.014648   0.055185   0.278101   0.000126   0.000002
     9  H    0.017739   0.000174  -0.001985  -0.003960   0.322848  -0.001590
    10  N   -0.087622   0.319614  -0.938393   0.241401   0.058413  -0.000416
    11  O    0.025804  -0.003458  -0.250248  -0.055290  -0.051349  -0.000013
    12  O    0.231693  -0.049835  -0.272224  -0.016696  -0.044249  -0.000052
    13  C    1.635740  -2.262893   0.968661  -2.674002  -2.121837  -0.010171
    14  H    0.006379  -0.021939   0.014166  -0.042371  -0.088228  -0.000061
    15  Br   0.072806  -0.000707   0.059003   0.128512   0.076306  -0.000368
               7          8          9         10         11         12
     1  C    0.055733   0.000070   0.017739  -0.087622   0.025804   0.231693
     2  C    0.254145  -0.014648   0.000174   0.319614  -0.003458  -0.049835
     3  C    0.084495   0.055185  -0.001985  -0.938393  -0.250248  -0.272224
     4  C   -0.035132   0.278101  -0.003960   0.241401  -0.055290  -0.016696
     5  C   -0.022312   0.000126   0.322848   0.058413  -0.051349  -0.044249
     6  H   -0.001836   0.000002  -0.001590  -0.000416  -0.000013  -0.000052
     7  H    0.329865   0.000030   0.000021  -0.028816  -0.001624   0.014751
     8  H    0.000030   0.324604   0.000136  -0.023556   0.015264  -0.000961
     9  H    0.000021   0.000136   0.268760   0.000464   0.000001   0.000005
    10  N   -0.028816  -0.023556   0.000464   7.143732   0.278813   0.248802
    11  O   -0.001624   0.015264   0.000001   0.278813   7.872919  -0.024205
    12  O    0.014751  -0.000961   0.000005   0.248802  -0.024205   7.904699
    13  C    0.013197   0.021972  -0.016400  -0.107173   0.230721   0.048077
    14  H   -0.000011  -0.005397  -0.004101  -0.001648  -0.000114  -0.000071
    15  Br  -0.000288  -0.002259   0.001118   0.000206   0.001270   0.001914
              13         14         15
     1  C    1.635740   0.006379   0.072806
     2  C   -2.262893  -0.021939  -0.000707
     3  C    0.968661   0.014166   0.059003
     4  C   -2.674002  -0.042371   0.128512
     5  C   -2.121837  -0.088228   0.076306
     6  H   -0.010171  -0.000061  -0.000368
     7  H    0.013197  -0.000011  -0.000288
     8  H    0.021972  -0.005397  -0.002259
     9  H   -0.016400  -0.004101   0.001118
    10  N   -0.107173  -0.001648   0.000206
    11  O    0.230721  -0.000114   0.001270
    12  O    0.048077  -0.000071   0.001914
    13  C   10.430445   0.429198  -0.145470
    14  H    0.429198   0.320086  -0.035726
    15  Br  -0.145470  -0.035726  34.580136
 Mulliken charges:
               1
     1  C   -0.613724
     2  C    0.563944
     3  C   -0.747724
     4  C    0.198839
     5  C    0.057384
     6  H    0.366042
     7  H    0.337782
     8  H    0.351330
     9  H    0.416769
    10  N   -0.103820
    11  O   -0.038492
    12  O   -0.041650
    13  C   -0.440067
    14  H    0.429839
    15  Br   0.263547
 Sum of Mulliken charges =   1.00000
 Mulliken charges with hydrogens summed into heavy atoms:
               1
     1  C   -0.247682
     2  C    0.901726
     3  C   -0.747724
     4  C    0.550169
     5  C    0.474153
    10  N   -0.103820
    11  O   -0.038492
    12  O   -0.041650
    13  C   -0.010227
    15  Br   0.263547
 Electronic spatial extent (au):  <R**2>=           2805.6806
 Charge=              1.0000 electrons
 Dipole moment (field-independent basis, Debye):
    X=             -5.5337    Y=             -1.1335    Z=             -0.4141  Tot=              5.6637
 Quadrupole moment (field-independent basis, Debye-Ang):
   XX=            -82.6520   YY=            -51.5198   ZZ=            -61.5113
   XY=              2.0013   XZ=              2.3150   YZ=              2.7684
 Traceless Quadrupole moment (field-independent basis, Debye-Ang):
   XX=            -17.4243   YY=             13.7079   ZZ=              3.7164
   XY=              2.0013   XZ=              2.3150   YZ=              2.7684
 Octapole moment (field-independent basis, Debye-Ang**2):
  XXX=           -365.2538  YYY=             83.7632  ZZZ=             74.3736  XYY=            -87.2228
  XXY=             27.9138  XXZ=             31.9227  XZZ=            -83.4118  YZZ=             13.4533
  YYZ=             22.8950  XYZ=             -5.5897
 Hexadecapole moment (field-independent basis, Debye-Ang**3):
 XXXX=          -2565.3300 YYYY=           -668.4390 ZZZZ=           -338.9521 XXXY=            -68.0140
 XXXZ=            -13.6825 YYYX=            -54.6995 YYYZ=           -148.1108 ZZZX=            -11.9876
 ZZZY=           -128.6843 XXYY=           -478.0016 XXZZ=           -374.9137 YYZZ=           -157.0766
 XXYZ=            -51.7497 YYXZ=              3.2657 ZZXY=             -4.0054
 N-N= 7.421300657956D+02 E-N=-8.634805232584D+03  KE= 3.005838514270D+03
 No NMR shielding tensors so no spin-rotation constants.
 Leave Link  601 at Wed May  1 14:46:33 2024, MaxMem=  1207959552 cpu:               7.6 elap:               7.6
 (Enter /software/gaussian/g16-c01/sse4/g16/l9999.exe)
 Unable to Open any file for archive entry.
 1\1\GINC-BHX0026\SP\RwB97XD\6-311+G(d)\C6H5Br1N1O2(1+)\BWEIGHT\01-May-
 2024\0\\#P wB97XD/6-311+G* NoSymm #P Field=X+155\\TitleMe\\1,1\C,0,0.0
 295,1.3397,0.0682\C,0,1.4348,1.2867,0.0064\C,0,2.1118,0.0511,-0.0054\C
 ,0,1.4451,-1.1372,0.0312\C,0,-0.6879,0.1682,0.11\H,0,-0.4713,2.2984,0.
 0781\H,0,2.0273,2.1965,-0.0322\H,0,1.9897,-2.0764,0.0232\H,0,-1.7716,0
 .1804,0.1582\N,0,3.5864,0.051,-0.0675\O,0,4.1471,-1.0597,-0.0881\O,0,4
 .145,1.1639,-0.0901\C,0,-0.0236,-1.1458,0.0835\H,0,-0.4367,-1.8725,0.7
 889\Br,0,-0.5359,-1.8697,-1.7408\\Version=ES64L-G16RevC.01\HF=-3010.55
 46306\RMSD=7.249e-09\Dipole=-4.0836504,0.702127,0.9832514\Quadrupole=-
 12.9545407,10.1914724,2.7630683,1.4879109,1.7211454,2.0582142\PG=C01 [
 X(C6H5Br1N1O2)]\\@
 The archive entry for this job was punched.


 THE ATTENTION SPAN OF A COMPUTER IS AS LONG
 AS ITS EXTENSION CORD.
 Job cpu time:       0 days  0 hours 18 minutes 38.4 seconds.
 Elapsed time:       0 days  0 hours 18 minutes 38.6 seconds.
 File lengths (MBytes):  RWF=     40 Int=      0 D2E=      0 Chk=     32 Scr=      1
 Normal termination of Gaussian 16 at Wed May  1 14:46:34 2024.
