 Entering Gaussian System, Link 0=g16
 Initial command:
 /software/gaussian/g16-c01/sse4/g16/l1.exe "/local_scratch/24657440/Gau-15570.inp" -scrdir="/local_scratch/24657440/"
 Entering Link 1 = /software/gaussian/g16-c01/sse4/g16/l1.exe PID=     15571.
  
 Copyright (c) 1988-2019, Gaussian, Inc.  All Rights Reserved.
  
 This is part of the Gaussian(R) 16 program.  It is based on
 the Gaussian(R) 09 system (copyright 2009, Gaussian, Inc.),
 the Gaussian(R) 03 system (copyright 2003, Gaussian, Inc.),
 the Gaussian(R) 98 system (copyright 1998, Gaussian, Inc.),
 the Gaussian(R) 94 system (copyright 1995, Gaussian, Inc.),
 the Gaussian 92(TM) system (copyright 1992, Gaussian, Inc.),
 the Gaussian 90(TM) system (copyright 1990, Gaussian, Inc.),
 the Gaussian 88(TM) system (copyright 1988, Gaussian, Inc.),
 the Gaussian 86(TM) system (copyright 1986, Carnegie Mellon
 University), and the Gaussian 82(TM) system (copyright 1983,
 Carnegie Mellon University). Gaussian is a federally registered
 trademark of Gaussian, Inc.
  
 This software contains proprietary and confidential information,
 including trade secrets, belonging to Gaussian, Inc.
  
 This software is provided under written license and may be
 used, copied, transmitted, or stored only in accord with that
 written license.
  
 The following legend is applicable only to US Government
 contracts under FAR:
  
                    RESTRICTED RIGHTS LEGEND
  
 Use, reproduction and disclosure by the US Government is
 subject to restrictions as set forth in subparagraphs (a)
 and (c) of the Commercial Computer Software - Restricted
 Rights clause in FAR 52.227-19.
  
 Gaussian, Inc.
 340 Quinnipiac St., Bldg. 40, Wallingford CT 06492
  
  
 ---------------------------------------------------------------
 Warning -- This program may not be used in any manner that
 competes with the business of Gaussian, Inc. or will provide
 assistance to any competitor of Gaussian, Inc.  The licensee
 of this program is prohibited from giving any competitor of
 Gaussian, Inc. access to this program.  By using this program,
 the user acknowledges that Gaussian, Inc. is engaged in the
 business of creating and licensing software in the field of
 computational chemistry and represents and warrants to the
 licensee that it is not a competitor of Gaussian, Inc. and that
 it will not use this program in any manner prohibited above.
 ---------------------------------------------------------------
  

 Cite this work as:
 Gaussian 16, Revision C.01,
 M. J. Frisch, G. W. Trucks, H. B. Schlegel, G. E. Scuseria, 
 M. A. Robb, J. R. Cheeseman, G. Scalmani, V. Barone, 
 G. A. Petersson, H. Nakatsuji, X. Li, M. Caricato, A. V. Marenich, 
 J. Bloino, B. G. Janesko, R. Gomperts, B. Mennucci, H. P. Hratchian, 
 J. V. Ortiz, A. F. Izmaylov, J. L. Sonnenberg, D. Williams-Young, 
 F. Ding, F. Lipparini, F. Egidi, J. Goings, B. Peng, A. Petrone, 
 T. Henderson, D. Ranasinghe, V. G. Zakrzewski, J. Gao, N. Rega, 
 G. Zheng, W. Liang, M. Hada, M. Ehara, K. Toyota, R. Fukuda, 
 J. Hasegawa, M. Ishida, T. Nakajima, Y. Honda, O. Kitao, H. Nakai, 
 T. Vreven, K. Throssell, J. A. Montgomery, Jr., J. E. Peralta, 
 F. Ogliaro, M. J. Bearpark, J. J. Heyd, E. N. Brothers, K. N. Kudin, 
 V. N. Staroverov, T. A. Keith, R. Kobayashi, J. Normand, 
 K. Raghavachari, A. P. Rendell, J. C. Burant, S. S. Iyengar, 
 J. Tomasi, M. Cossi, J. M. Millam, M. Klene, C. Adamo, R. Cammi, 
 J. W. Ochterski, R. L. Martin, K. Morokuma, O. Farkas, 
 J. B. Foresman, and D. J. Fox, Gaussian, Inc., Wallingford CT, 2019.
 
 ******************************************
 Gaussian 16:  ES64L-G16RevC.01  3-Jul-2019
                 1-May-2024 
 ******************************************
 %chk=geometry.chk
 %mem=9GB
 %nprocshared=12
 Will use up to   12 processors via shared memory.
 --------------------------------------
 #P wB97XD/6-311+G* NoSymm #P Field=X-9
 --------------------------------------
 1/38=1,172=1/1;
 2/12=2,15=1,17=6,18=5,40=1/2;
 3/5=4,6=6,7=11,11=2,14=1,15=-9,25=1,30=1,74=-58/1,2,3;
 4//1;
 5/5=2,38=5/2;
 6/7=2,8=2,9=2,10=2,28=1/1;
 99/5=1,9=1/99;
 Leave Link    1 at Wed May  1 14:27:44 2024, MaxMem=  1207959552 cpu:               1.5 elap:               1.5
 (Enter /software/gaussian/g16-c01/sse4/g16/l101.exe)
 -------
 TitleMe
 -------
 Symbolic Z-matrix:
 Charge =  1 Multiplicity = 1
 C                     0.0295    1.3397    0.0682 
 C                     1.4348    1.2867    0.0064 
 C                     2.1118    0.0511   -0.0054 
 C                     1.4451   -1.1372    0.0312 
 C                    -0.6879    0.1682    0.11 
 H                    -0.4713    2.2984    0.0781 
 H                     2.0273    2.1965   -0.0322 
 H                     1.9897   -2.0764    0.0232 
 H                    -1.7716    0.1804    0.1582 
 N                     3.5864    0.051    -0.0675 
 O                     4.1471   -1.0597   -0.0881 
 O                     4.145     1.1639   -0.0901 
 C                    -0.0236   -1.1458    0.0835 
 H                    -0.4367   -1.8725    0.7889 
 Br                   -0.5359   -1.8697   -1.7408 
 
 ITRead=  0  0  0  0  0  0  0  0  0  0  0  0  0  0  0
 MicOpt= -1 -1 -1 -1 -1 -1 -1 -1 -1 -1 -1 -1 -1 -1 -1
 NAtoms=     15 NQM=       15 NQMF=       0 NMMI=      0 NMMIF=      0
                NMic=       0 NMicF=      0.
                    Isotopes and Nuclear Properties:
 (Nuclear quadrupole moments (NQMom) in fm**2, nuclear magnetic moments (NMagM)
  in nuclear magnetons)

  Atom         1           2           3           4           5           6           7           8           9          10
 IAtWgt=          12          12          12          12          12           1           1           1           1          14
 AtmWgt=  12.0000000  12.0000000  12.0000000  12.0000000  12.0000000   1.0078250   1.0078250   1.0078250   1.0078250  14.0030740
 NucSpn=           0           0           0           0           0           1           1           1           1           2
 AtZEff=  -0.0000000  -0.0000000  -0.0000000  -0.0000000  -0.0000000  -0.0000000  -0.0000000  -0.0000000  -0.0000000  -0.0000000
 NQMom=    0.0000000   0.0000000   0.0000000   0.0000000   0.0000000   0.0000000   0.0000000   0.0000000   0.0000000   2.0440000
 NMagM=    0.0000000   0.0000000   0.0000000   0.0000000   0.0000000   2.7928460   2.7928460   2.7928460   2.7928460   0.4037610
 AtZNuc=   6.0000000   6.0000000   6.0000000   6.0000000   6.0000000   1.0000000   1.0000000   1.0000000   1.0000000   7.0000000

  Atom        11          12          13          14          15
 IAtWgt=          16          16          12           1          79
 AtmWgt=  15.9949146  15.9949146  12.0000000   1.0078250  78.9183361
 NucSpn=           0           0           0           1           3
 AtZEff=  -0.0000000  -0.0000000  -0.0000000  -0.0000000  -0.0000000
 NQMom=    0.0000000   0.0000000   0.0000000   0.0000000  31.3000000
 NMagM=    0.0000000   0.0000000   0.0000000   2.7928460   2.1063990
 AtZNuc=   8.0000000   8.0000000   6.0000000   1.0000000  35.0000000
 Leave Link  101 at Wed May  1 14:27:45 2024, MaxMem=  1207959552 cpu:               1.4 elap:               1.4
 (Enter /software/gaussian/g16-c01/sse4/g16/l202.exe)
                          Input orientation:                          
 ---------------------------------------------------------------------
 Center     Atomic      Atomic             Coordinates (Angstroms)
 Number     Number       Type             X           Y           Z
 ---------------------------------------------------------------------
      1          6           0        0.029500    1.339700    0.068200
      2          6           0        1.434800    1.286700    0.006400
      3          6           0        2.111800    0.051100   -0.005400
      4          6           0        1.445100   -1.137200    0.031200
      5          6           0       -0.687900    0.168200    0.110000
      6          1           0       -0.471300    2.298400    0.078100
      7          1           0        2.027300    2.196500   -0.032200
      8          1           0        1.989700   -2.076400    0.023200
      9          1           0       -1.771600    0.180400    0.158200
     10          7           0        3.586400    0.051000   -0.067500
     11          8           0        4.147100   -1.059700   -0.088100
     12          8           0        4.145000    1.163900   -0.090100
     13          6           0       -0.023600   -1.145800    0.083500
     14          1           0       -0.436700   -1.872500    0.788900
     15         35           0       -0.535900   -1.869700   -1.740800
 ---------------------------------------------------------------------
                    Distance matrix (angstroms):
                    1          2          3          4          5
     1  C    0.000000
     2  C    1.407656   0.000000
     3  C    2.449874   1.408963   0.000000
     4  C    2.853126   2.424049   1.363043   0.000000
     5  C    1.374344   2.401589   2.804523   2.501993   0.000000
     6  H    1.081667   2.159142   3.424870   3.934226   2.141421
     7  H    2.176095   1.086408   2.147231   3.384750   3.392128
     8  H    3.938800   3.408612   2.131193   1.085702   3.495040
     9  H    2.143837   3.395283   3.888995   3.478413   1.084840
    10  N    3.785591   2.482297   1.475907   2.450862   4.279589
    11  O    4.768247   3.587631   2.320164   2.705743   4.992415
    12  O    4.122294   2.714696   2.319353   3.549540   4.938459
    13  C    2.486114   2.837240   2.449573   1.469656   1.472614
    14  H    3.324903   3.754379   3.290289   2.157764   2.165286
    15  Br   3.727252   4.110867   3.702891   2.756973   2.757100
                    6          7          8          9         10
     6  H    0.000000
     7  H    2.503108   0.000000
     8  H    5.019802   4.273425   0.000000
     9  H    2.486588   4.304945   4.388479   0.000000
    10  N    4.640790   2.652397   2.661486   5.364313   0.000000
    11  O    5.712624   3.885809   2.387560   6.052233   1.244373
    12  O    4.756638   2.356750   3.893289   6.002923   1.245428
    13  C    3.473180   3.923079   2.218790   2.195425   3.806210
    14  H    4.231175   4.827242   2.552506   2.528663   4.540772
    15  Br   4.548146   5.101303   3.087568   3.055498   4.845862
                   11         12         13         14         15
    11  O    0.000000
    12  O    2.223602   0.000000
    13  C    4.175117   4.768865   0.000000
    14  H    4.737193   5.566358   1.093770   0.000000
    15  Br   5.031700   5.817075   2.028436   2.531646   0.000000
 Symmetry turned off by external request.
 Stoichiometry    C6H5BrNO2(1+)
 Framework group  C1[X(C6H5BrNO2)]
 Deg. of freedom    39
 Full point group                 C1      NOp   1
 Rotational constants (GHZ):           1.8252210           0.5518633           0.4576002
 Leave Link  202 at Wed May  1 14:27:47 2024, MaxMem=  1207959552 cpu:               1.1 elap:               1.1
 (Enter /software/gaussian/g16-c01/sse4/g16/l301.exe)
 Standard basis: 6-311+G(d) (5D, 7F)
 Ernie: Thresh=  0.10000D-02 Tol=  0.10000D-05 Strict=F.
 The following finite field(s) will be applied:
 An electric field of             -0.0009  0.0000  0.0000
   261 basis functions,   443 primitive gaussians,   273 cartesian basis functions
    49 alpha electrons       49 beta electrons
       nuclear repulsion energy       739.2122215416 Hartrees.
 IExCor= 4639 DFT=T Ex+Corr=wB97XD ExCW=0 ScaHFX=  1.000000
 ScaDFX=  1.000000  1.000000  1.000000  1.000000 ScalE2=  1.000000  1.000000
 IRadAn=      5 IRanWt=     -1 IRanGd=            0 ICorTp=0 IEmpDi=121
 HFx  wShort=  0.000000 wLong=  0.200000 cFull=  0.222036 cShort=  0.000000 cLong=  0.777964
 DFx  wShort=  0.000000 wLong=  0.200000 cFull=  0.000000 cShort=  0.000000 cLong=  1.000000
 NAtoms=   15 NActive=   15 NUniq=   15 SFac= 1.00D+00 NAtFMM=   60 NAOKFM=F Big=F
 Integral buffers will be    131072 words long.
 Raffenetti 2 integral format.
 Two-electron integral symmetry is turned off.
 R6Disp:  Grimme-D2 Dispersion energy=       -0.0077368520 Hartrees.
 Nuclear repulsion after empirical dispersion term =      739.2044846896 Hartrees.
 Leave Link  301 at Wed May  1 14:27:48 2024, MaxMem=  1207959552 cpu:               0.9 elap:               0.9
 (Enter /software/gaussian/g16-c01/sse4/g16/l302.exe)
 NPDir=0 NMtPBC=     1 NCelOv=     1 NCel=       1 NClECP=     1 NCelD=      1
         NCelK=      1 NCelE2=     1 NClLst=     1 CellRange=     0.0.
 One-electron integrals computed using PRISM.
 NBasis=   261 RedAO= T EigKep=  2.35D-06  NBF=   261
 NBsUse=   261 1.00D-06 EigRej= -1.00D+00 NBFU=   261
 Precomputing XC quadrature grid using
 IXCGrd= 4 IRadAn=           5 IRanWt=          -1 IRanGd=           0 AccXCQ= 0.00D+00.
 Generated NRdTot=       0 NPtTot=           0 NUsed=           0 NTot=          32
 NSgBfM=   273   273   273   273   273 MxSgAt=    15 MxSgA2=    15.
 Leave Link  302 at Wed May  1 14:28:09 2024, MaxMem=  1207959552 cpu:              21.0 elap:              21.0
 (Enter /software/gaussian/g16-c01/sse4/g16/l303.exe)
 DipDrv:  MaxL=1.
 The nuclear repulsion energy is now       739.0346122382 hartrees.
 Leave Link  303 at Wed May  1 14:28:12 2024, MaxMem=  1207959552 cpu:               3.3 elap:               3.3
 (Enter /software/gaussian/g16-c01/sse4/g16/l401.exe)
 ExpMin= 3.50D-02 ExpMax= 4.40D+05 ExpMxC= 1.51D+04 IAcc=3 IRadAn=         5 AccDes= 0.00D+00
 Harris functional with IExCor= 4639 and IRadAn=       5 diagonalized for initial guess.
 HarFok:  IExCor= 4639 AccDes= 0.00D+00 IRadAn=         5 IDoV= 1 UseB2=F ITyADJ=14
 ICtDFT=  3500011 ScaDFX=  1.000000  1.000000  1.000000  1.000000
 FoFCou: FMM=F IPFlag=           0 FMFlag=      100000 FMFlg1=           0
         NFxFlg=           0 DoJE=T BraDBF=F KetDBF=T FulRan=T
         wScrn=  0.000000 ICntrl=       500 IOpCl=  0 I1Cent=   200000004 NGrid=           0
         NMat0=    1 NMatS0=      1 NMatT0=    0 NMatD0=    1 NMtDS0=    0 NMtDT0=    0
 Symmetry not used in FoFCou.
 Harris En= -2970.59618653124    
 JPrj=0 DoOrth=F DoCkMO=F.
 Leave Link  401 at Wed May  1 14:28:42 2024, MaxMem=  1207959552 cpu:              29.7 elap:              29.7
 (Enter /software/gaussian/g16-c01/sse4/g16/l502.exe)
 Two-electron integral symmetry not used.
 Closed shell SCF:
 Using DIIS extrapolation, IDIIS=  1040.
 NGot=  1207959552 LenX=  1207804877 LenY=  1207729907
 Requested convergence on RMS density matrix=1.00D-08 within 128 cycles.
 Requested convergence on MAX density matrix=1.00D-06.
 Requested convergence on             energy=1.00D-06.
 No special actions if energy rises.
 Fock matrices will be formed incrementally for  20 cycles.

 Cycle   1  Pass 1  IDiag  1:
 FoFJK:  IHMeth= 1 ICntrl=       0 DoSepK=T KAlg= 0 I1Cent=           0 FoldK=F
 IRaf=         1 NMat=       1 IRICut=       1 DoRegI=T DoRafI=F ISym2E= 0 IDoP0=0 IntGTp=1.
 FoFCou: FMM=F IPFlag=           0 FMFlag=      100000 FMFlg1=           0
         NFxFlg=           0 DoJE=T BraDBF=F KetDBF=F FulRan=T
         wScrn=  0.000000 ICntrl=       500 IOpCl=  0 I1Cent=           0 NGrid=           0
         NMat0=    1 NMatS0=      1 NMatT0=    0 NMatD0=    1 NMtDS0=    0 NMtDT0=    0
 Symmetry not used in FoFCou.
 E= -3009.72325482845    
 DIIS: error= 3.20D-01 at cycle   1 NSaved=   1.
 NSaved= 1 IEnMin= 1 EnMin= -3009.72325482845     IErMin= 1 ErrMin= 3.20D-01
 ErrMax= 3.20D-01  0.00D+00 EMaxC= 1.00D-01 BMatC= 1.19D+01 BMatP= 1.19D+01
 IDIUse=3 WtCom= 0.00D+00 WtEn= 1.00D+00
 Coeff-Com:  0.100D+01
 Coeff-En:   0.100D+01
 Coeff:      0.100D+01
 Gap=     0.327 Goal=   None    Shift=    0.000
 GapD=    0.327 DampG=1.000 DampE=0.250 DampFc=0.2500 IDamp=-1.
 Damping current iteration by 2.50D-01
 RMSDP=4.00D-02 MaxDP=4.17D+00              OVMax= 2.54D-01

 Cycle   2  Pass 1  IDiag  1:
 RMSU=  3.97D-03    CP:  8.98D-01
 E= -3010.00633298689     Delta-E=       -0.283078158438 Rises=F Damp=T
 DIIS: error= 2.25D-01 at cycle   2 NSaved=   2.
 NSaved= 2 IEnMin= 2 EnMin= -3010.00633298689     IErMin= 2 ErrMin= 2.25D-01
 ErrMax= 2.25D-01  0.00D+00 EMaxC= 1.00D-01 BMatC= 5.45D+00 BMatP= 1.19D+01
 IDIUse=3 WtCom= 0.00D+00 WtEn= 1.00D+00
 Coeff-Com: -0.184D+01 0.284D+01
 Coeff-En:   0.000D+00 0.100D+01
 Coeff:      0.000D+00 0.100D+01
 Gap=     0.294 Goal=   None    Shift=    0.000
 RMSDP=3.13D-02 MaxDP=3.23D+00 DE=-2.83D-01 OVMax= 7.45D-02

 Cycle   3  Pass 1  IDiag  1:
 RMSU=  4.23D-03    CP:  5.68D-01  3.00D+00
 E= -3010.38605873594     Delta-E=       -0.379725749055 Rises=F Damp=F
 DIIS: error= 6.55D-02 at cycle   3 NSaved=   3.
 NSaved= 3 IEnMin= 3 EnMin= -3010.38605873594     IErMin= 3 ErrMin= 6.55D-02
 ErrMax= 6.55D-02  0.00D+00 EMaxC= 1.00D-01 BMatC= 7.29D-01 BMatP= 5.45D+00
 IDIUse=3 WtCom= 3.45D-01 WtEn= 6.55D-01
 Coeff-Com:  0.277D+01-0.365D+01 0.188D+01
 Coeff-En:   0.234D-01 0.000D+00 0.977D+00
 Coeff:      0.972D+00-0.126D+01 0.129D+01
 Gap=     0.261 Goal=   None    Shift=    0.000
 RMSDP=8.22D-03 MaxDP=4.39D-01 DE=-3.80D-01 OVMax= 6.64D-02

 Cycle   4  Pass 1  IDiag  1:
 RMSU=  4.55D-03    CP:  5.85D-01  2.15D+00  2.10D+00
 E= -3010.48904586329     Delta-E=       -0.102987127347 Rises=F Damp=F
 DIIS: error= 3.83D-02 at cycle   4 NSaved=   4.
 NSaved= 4 IEnMin= 4 EnMin= -3010.48904586329     IErMin= 4 ErrMin= 3.83D-02
 ErrMax= 3.83D-02  0.00D+00 EMaxC= 1.00D-01 BMatC= 2.30D-01 BMatP= 7.29D-01
 IDIUse=3 WtCom= 6.17D-01 WtEn= 3.83D-01
 Coeff-Com: -0.185D+00 0.259D+00 0.271D+00 0.655D+00
 Coeff-En:   0.000D+00 0.000D+00 0.195D+00 0.805D+00
 Coeff:     -0.114D+00 0.160D+00 0.242D+00 0.712D+00
 Gap=     0.259 Goal=   None    Shift=    0.000
 RMSDP=3.43D-03 MaxDP=2.88D-01 DE=-1.03D-01 OVMax= 2.73D-02

 Cycle   5  Pass 1  IDiag  1:
 RMSU=  1.16D-03    CP:  5.55D-01  2.55D+00  1.93D+00  8.89D-01
 E= -3010.53346880391     Delta-E=       -0.044422940627 Rises=F Damp=F
 DIIS: error= 6.88D-03 at cycle   5 NSaved=   5.
 NSaved= 5 IEnMin= 5 EnMin= -3010.53346880391     IErMin= 5 ErrMin= 6.88D-03
 ErrMax= 6.88D-03  0.00D+00 EMaxC= 1.00D-01 BMatC= 7.37D-03 BMatP= 2.30D-01
 IDIUse=3 WtCom= 9.31D-01 WtEn= 6.88D-02
 Coeff-Com: -0.136D+00 0.185D+00 0.386D-01 0.316D+00 0.597D+00
 Coeff-En:   0.000D+00 0.000D+00 0.000D+00 0.000D+00 0.100D+01
 Coeff:     -0.127D+00 0.172D+00 0.360D-01 0.294D+00 0.625D+00
 Gap=     0.257 Goal=   None    Shift=    0.000
 RMSDP=5.33D-04 MaxDP=3.20D-02 DE=-4.44D-02 OVMax= 1.03D-02

 Cycle   6  Pass 1  IDiag  1:
 RMSU=  4.24D-04    CP:  5.54D-01  2.54D+00  1.94D+00  8.82D-01  7.41D-01
 E= -3010.53495809043     Delta-E=       -0.001489286513 Rises=F Damp=F
 DIIS: error= 1.14D-03 at cycle   6 NSaved=   6.
 NSaved= 6 IEnMin= 6 EnMin= -3010.53495809043     IErMin= 6 ErrMin= 1.14D-03
 ErrMax= 1.14D-03  0.00D+00 EMaxC= 1.00D-01 BMatC= 1.47D-04 BMatP= 7.37D-03
 IDIUse=3 WtCom= 9.89D-01 WtEn= 1.14D-02
 Coeff-Com: -0.857D-01 0.115D+00-0.582D-02 0.140D+00 0.352D+00 0.485D+00
 Coeff-En:   0.000D+00 0.000D+00 0.000D+00 0.000D+00 0.000D+00 0.100D+01
 Coeff:     -0.847D-01 0.114D+00-0.575D-02 0.139D+00 0.348D+00 0.490D+00
 Gap=     0.256 Goal=   None    Shift=    0.000
 RMSDP=1.81D-04 MaxDP=1.21D-02 DE=-1.49D-03 OVMax= 5.64D-03

 Cycle   7  Pass 1  IDiag  1:
 RMSU=  1.08D-04    CP:  5.54D-01  2.52D+00  1.95D+00  8.89D-01  8.34D-01
                    CP:  8.88D-01
 E= -3010.53506470740     Delta-E=       -0.000106616970 Rises=F Damp=F
 DIIS: error= 5.47D-04 at cycle   7 NSaved=   7.
 NSaved= 7 IEnMin= 7 EnMin= -3010.53506470740     IErMin= 7 ErrMin= 5.47D-04
 ErrMax= 5.47D-04  0.00D+00 EMaxC= 1.00D-01 BMatC= 2.52D-05 BMatP= 1.47D-04
 IDIUse=3 WtCom= 9.95D-01 WtEn= 5.47D-03
 Coeff-Com: -0.353D-01 0.470D-01-0.137D-01 0.331D-01 0.105D+00 0.303D+00
 Coeff-Com:  0.560D+00
 Coeff-En:   0.000D+00 0.000D+00 0.000D+00 0.000D+00 0.000D+00 0.171D-01
 Coeff-En:   0.983D+00
 Coeff:     -0.351D-01 0.467D-01-0.136D-01 0.329D-01 0.105D+00 0.302D+00
 Coeff:      0.563D+00
 Gap=     0.256 Goal=   None    Shift=    0.000
 RMSDP=8.59D-05 MaxDP=6.06D-03 DE=-1.07D-04 OVMax= 2.84D-03

 Cycle   8  Pass 1  IDiag  1:
 RMSU=  5.17D-05    CP:  5.54D-01  2.51D+00  1.96D+00  8.94D-01  8.62D-01
                    CP:  9.51D-01  8.73D-01
 E= -3010.53508933798     Delta-E=       -0.000024630580 Rises=F Damp=F
 DIIS: error= 1.14D-04 at cycle   8 NSaved=   8.
 NSaved= 8 IEnMin= 8 EnMin= -3010.53508933798     IErMin= 8 ErrMin= 1.14D-04
 ErrMax= 1.14D-04  0.00D+00 EMaxC= 1.00D-01 BMatC= 2.56D-06 BMatP= 2.52D-05
 IDIUse=3 WtCom= 9.99D-01 WtEn= 1.14D-03
 Coeff-Com:  0.741D-02-0.101D-01-0.286D-02-0.181D-01-0.457D-01-0.314D-01
 Coeff-Com:  0.171D+00 0.929D+00
 Coeff-En:   0.000D+00 0.000D+00 0.000D+00 0.000D+00 0.000D+00 0.000D+00
 Coeff-En:   0.000D+00 0.100D+01
 Coeff:      0.740D-02-0.101D-01-0.286D-02-0.180D-01-0.457D-01-0.314D-01
 Coeff:      0.171D+00 0.930D+00
 Gap=     0.256 Goal=   None    Shift=    0.000
 RMSDP=6.15D-05 MaxDP=5.12D-03 DE=-2.46D-05 OVMax= 2.47D-03

 Cycle   9  Pass 1  IDiag  1:
 RMSU=  2.36D-05    CP:  5.54D-01  2.51D+00  1.96D+00  8.95D-01  8.70D-01
                    CP:  1.04D+00  1.09D+00  1.33D+00
 E= -3010.53509591725     Delta-E=       -0.000006579269 Rises=F Damp=F
 DIIS: error= 5.36D-05 at cycle   9 NSaved=   9.
 NSaved= 9 IEnMin= 9 EnMin= -3010.53509591725     IErMin= 9 ErrMin= 5.36D-05
 ErrMax= 5.36D-05  0.00D+00 EMaxC= 1.00D-01 BMatC= 2.83D-07 BMatP= 2.56D-06
 IDIUse=1 WtCom= 1.00D+00 WtEn= 0.00D+00
 Coeff-Com:  0.704D-02-0.944D-02 0.977D-03-0.101D-01-0.265D-01-0.546D-01
 Coeff-Com: -0.357D-01 0.277D+00 0.851D+00
 Coeff:      0.704D-02-0.944D-02 0.977D-03-0.101D-01-0.265D-01-0.546D-01
 Coeff:     -0.357D-01 0.277D+00 0.851D+00
 Gap=     0.256 Goal=   None    Shift=    0.000
 RMSDP=1.80D-05 MaxDP=1.17D-03 DE=-6.58D-06 OVMax= 1.14D-03

 Cycle  10  Pass 1  IDiag  1:
 RMSU=  7.68D-06    CP:  5.54D-01  2.51D+00  1.96D+00  8.95D-01  8.74D-01
                    CP:  1.07D+00  1.14D+00  1.46D+00  1.12D+00
 E= -3010.53509698625     Delta-E=       -0.000001069010 Rises=F Damp=F
 DIIS: error= 1.82D-05 at cycle  10 NSaved=  10.
 NSaved=10 IEnMin=10 EnMin= -3010.53509698625     IErMin=10 ErrMin= 1.82D-05
 ErrMax= 1.82D-05  0.00D+00 EMaxC= 1.00D-01 BMatC= 6.22D-08 BMatP= 2.83D-07
 IDIUse=1 WtCom= 1.00D+00 WtEn= 0.00D+00
 Coeff-Com:  0.274D-03-0.339D-03 0.400D-03 0.852D-04 0.186D-02-0.712D-02
 Coeff-Com: -0.343D-01-0.664D-01 0.235D+00 0.870D+00
 Coeff:      0.274D-03-0.339D-03 0.400D-03 0.852D-04 0.186D-02-0.712D-02
 Coeff:     -0.343D-01-0.664D-01 0.235D+00 0.870D+00
 Gap=     0.256 Goal=   None    Shift=    0.000
 RMSDP=9.33D-06 MaxDP=6.52D-04 DE=-1.07D-06 OVMax= 4.31D-04

 Cycle  11  Pass 1  IDiag  1:
 RMSU=  4.50D-06    CP:  5.54D-01  2.51D+00  1.96D+00  8.94D-01  8.74D-01
                    CP:  1.07D+00  1.15D+00  1.48D+00  1.26D+00  1.17D+00
 E= -3010.53509714707     Delta-E=       -0.000000160818 Rises=F Damp=F
 DIIS: error= 7.47D-06 at cycle  11 NSaved=  11.
 NSaved=11 IEnMin=11 EnMin= -3010.53509714707     IErMin=11 ErrMin= 7.47D-06
 ErrMax= 7.47D-06  0.00D+00 EMaxC= 1.00D-01 BMatC= 3.84D-09 BMatP= 6.22D-08
 IDIUse=1 WtCom= 1.00D+00 WtEn= 0.00D+00
 Coeff-Com: -0.349D-03 0.467D-03 0.274D-04 0.889D-03 0.283D-02 0.616D-02
 Coeff-Com:  0.562D-02-0.295D-01-0.116D+00-0.146D-01 0.114D+01
 Coeff:     -0.349D-03 0.467D-03 0.274D-04 0.889D-03 0.283D-02 0.616D-02
 Coeff:      0.562D-02-0.295D-01-0.116D+00-0.146D-01 0.114D+01
 Gap=     0.256 Goal=   None    Shift=    0.000
 RMSDP=3.47D-06 MaxDP=1.68D-04 DE=-1.61D-07 OVMax= 2.05D-04

 Cycle  12  Pass 1  IDiag  1:
 RMSU=  1.18D-06    CP:  5.54D-01  2.51D+00  1.96D+00  8.94D-01  8.73D-01
                    CP:  1.08D+00  1.15D+00  1.48D+00  1.30D+00  1.38D+00
                    CP:  1.31D+00
 E= -3010.53509717061     Delta-E=       -0.000000023540 Rises=F Damp=F
 DIIS: error= 1.81D-06 at cycle  12 NSaved=  12.
 NSaved=12 IEnMin=12 EnMin= -3010.53509717061     IErMin=12 ErrMin= 1.81D-06
 ErrMax= 1.81D-06  0.00D+00 EMaxC= 1.00D-01 BMatC= 1.02D-09 BMatP= 3.84D-09
 IDIUse=1 WtCom= 1.00D+00 WtEn= 0.00D+00
 Coeff-Com: -0.169D-03 0.225D-03-0.179D-04 0.352D-03 0.738D-03 0.278D-02
 Coeff-Com:  0.573D-02-0.451D-02-0.709D-01-0.993D-01 0.484D+00 0.681D+00
 Coeff:     -0.169D-03 0.225D-03-0.179D-04 0.352D-03 0.738D-03 0.278D-02
 Coeff:      0.573D-02-0.451D-02-0.709D-01-0.993D-01 0.484D+00 0.681D+00
 Gap=     0.256 Goal=   None    Shift=    0.000
 RMSDP=1.08D-06 MaxDP=8.10D-05 DE=-2.35D-08 OVMax= 3.76D-05

 Cycle  13  Pass 1  IDiag  1:
 RMSU=  3.46D-07    CP:  5.54D-01  2.51D+00  1.96D+00  8.94D-01  8.73D-01
                    CP:  1.08D+00  1.15D+00  1.48D+00  1.31D+00  1.40D+00
                    CP:  1.43D+00  8.26D-01
 E= -3010.53509717269     Delta-E=       -0.000000002076 Rises=F Damp=F
 DIIS: error= 6.99D-07 at cycle  13 NSaved=  13.
 NSaved=13 IEnMin=13 EnMin= -3010.53509717269     IErMin=13 ErrMin= 6.99D-07
 ErrMax= 6.99D-07  0.00D+00 EMaxC= 1.00D-01 BMatC= 1.28D-10 BMatP= 1.02D-09
 IDIUse=1 WtCom= 1.00D+00 WtEn= 0.00D+00
 Coeff-Com: -0.214D-04 0.287D-04-0.862D-05-0.351D-04-0.381D-03-0.702D-03
 Coeff-Com: -0.111D-03 0.328D-02 0.502D-02-0.141D-01-0.734D-01 0.181D+00
 Coeff-Com:  0.899D+00
 Coeff:     -0.214D-04 0.287D-04-0.862D-05-0.351D-04-0.381D-03-0.702D-03
 Coeff:     -0.111D-03 0.328D-02 0.502D-02-0.141D-01-0.734D-01 0.181D+00
 Coeff:      0.899D+00
 Gap=     0.256 Goal=   None    Shift=    0.000
 RMSDP=3.45D-07 MaxDP=1.60D-05 DE=-2.08D-09 OVMax= 9.72D-06

 Cycle  14  Pass 1  IDiag  1:
 RMSU=  1.80D-07    CP:  5.54D-01  2.51D+00  1.96D+00  8.94D-01  8.73D-01
                    CP:  1.08D+00  1.16D+00  1.49D+00  1.31D+00  1.40D+00
                    CP:  1.46D+00  1.01D+00  1.17D+00
 E= -3010.53509717299     Delta-E=       -0.000000000302 Rises=F Damp=F
 DIIS: error= 2.26D-07 at cycle  14 NSaved=  14.
 NSaved=14 IEnMin=14 EnMin= -3010.53509717299     IErMin=14 ErrMin= 2.26D-07
 ErrMax= 2.26D-07  0.00D+00 EMaxC= 1.00D-01 BMatC= 1.31D-11 BMatP= 1.28D-10
 IDIUse=1 WtCom= 1.00D+00 WtEn= 0.00D+00
 Coeff-Com:  0.268D-05-0.336D-05-0.344D-05-0.421D-04-0.190D-03-0.525D-03
 Coeff-Com: -0.606D-03 0.180D-02 0.937D-02 0.585D-02-0.854D-01 0.422D-02
 Coeff-Com:  0.253D+00 0.813D+00
 Coeff:      0.268D-05-0.336D-05-0.344D-05-0.421D-04-0.190D-03-0.525D-03
 Coeff:     -0.606D-03 0.180D-02 0.937D-02 0.585D-02-0.854D-01 0.422D-02
 Coeff:      0.253D+00 0.813D+00
 Gap=     0.256 Goal=   None    Shift=    0.000
 RMSDP=9.42D-08 MaxDP=3.72D-06 DE=-3.02D-10 OVMax= 4.47D-06

 Cycle  15  Pass 1  IDiag  1:
 RMSU=  4.98D-08    CP:  5.54D-01  2.51D+00  1.96D+00  8.94D-01  8.73D-01
                    CP:  1.08D+00  1.16D+00  1.49D+00  1.31D+00  1.40D+00
                    CP:  1.47D+00  1.06D+00  1.23D+00  1.18D+00
 E= -3010.53509717303     Delta-E=       -0.000000000036 Rises=F Damp=F
 DIIS: error= 1.09D-07 at cycle  15 NSaved=  15.
 NSaved=15 IEnMin=15 EnMin= -3010.53509717303     IErMin=15 ErrMin= 1.09D-07
 ErrMax= 1.09D-07  0.00D+00 EMaxC= 1.00D-01 BMatC= 3.71D-12 BMatP= 1.31D-11
 IDIUse=1 WtCom= 1.00D+00 WtEn= 0.00D+00
 Coeff-Com:  0.612D-05-0.819D-05 0.684D-06-0.396D-05 0.326D-04 0.754D-05
 Coeff-Com: -0.111D-03-0.148D-03 0.104D-02 0.449D-02-0.888D-02-0.170D-01
 Coeff-Com: -0.142D+00 0.268D+00 0.894D+00
 Coeff:      0.612D-05-0.819D-05 0.684D-06-0.396D-05 0.326D-04 0.754D-05
 Coeff:     -0.111D-03-0.148D-03 0.104D-02 0.449D-02-0.888D-02-0.170D-01
 Coeff:     -0.142D+00 0.268D+00 0.894D+00
 Gap=     0.256 Goal=   None    Shift=    0.000
 RMSDP=6.78D-08 MaxDP=5.36D-06 DE=-3.59D-11 OVMax= 2.95D-06

 Cycle  16  Pass 1  IDiag  1:
 RMSU=  2.47D-08    CP:  5.54D-01  2.51D+00  1.96D+00  8.94D-01  8.73D-01
                    CP:  1.08D+00  1.16D+00  1.49D+00  1.31D+00  1.40D+00
                    CP:  1.47D+00  1.08D+00  1.24D+00  1.38D+00  1.42D+00
 E= -3010.53509717304     Delta-E=       -0.000000000010 Rises=F Damp=F
 DIIS: error= 4.79D-08 at cycle  16 NSaved=  16.
 NSaved=16 IEnMin=16 EnMin= -3010.53509717304     IErMin=16 ErrMin= 4.79D-08
 ErrMax= 4.79D-08  0.00D+00 EMaxC= 1.00D-01 BMatC= 8.14D-13 BMatP= 3.71D-12
 IDIUse=1 WtCom= 1.00D+00 WtEn= 0.00D+00
 Coeff-Com:  0.133D-05-0.181D-05 0.905D-06 0.677D-05 0.460D-04 0.997D-04
 Coeff-Com:  0.644D-04-0.397D-03-0.148D-02 0.820D-03 0.116D-01 0.242D-03
 Coeff-Com: -0.105D+00-0.567D-01 0.259D+00 0.892D+00
 Coeff:      0.133D-05-0.181D-05 0.905D-06 0.677D-05 0.460D-04 0.997D-04
 Coeff:      0.644D-04-0.397D-03-0.148D-02 0.820D-03 0.116D-01 0.242D-03
 Coeff:     -0.105D+00-0.567D-01 0.259D+00 0.892D+00
 Gap=     0.256 Goal=   None    Shift=    0.000
 RMSDP=4.26D-08 MaxDP=2.99D-06 DE=-1.00D-11 OVMax= 1.61D-06

 Cycle  17  Pass 1  IDiag  1:
 RMSU=  9.48D-09    CP:  5.54D-01  2.51D+00  1.96D+00  8.94D-01  8.73D-01
                    CP:  1.08D+00  1.16D+00  1.49D+00  1.31D+00  1.40D+00
                    CP:  1.47D+00  1.10D+00  1.22D+00  1.48D+00  1.83D+00
                    CP:  1.29D+00
 E= -3010.53509717307     Delta-E=       -0.000000000028 Rises=F Damp=F
 DIIS: error= 2.91D-08 at cycle  17 NSaved=  17.
 NSaved=17 IEnMin=17 EnMin= -3010.53509717307     IErMin=17 ErrMin= 2.91D-08
 ErrMax= 2.91D-08  0.00D+00 EMaxC= 1.00D-01 BMatC= 1.56D-13 BMatP= 8.14D-13
 IDIUse=1 WtCom= 1.00D+00 WtEn= 0.00D+00
 Coeff-Com: -0.461D-06 0.613D-06 0.161D-06 0.138D-05-0.109D-06 0.146D-04
 Coeff-Com:  0.353D-04-0.792D-05-0.528D-03-0.637D-03 0.359D-02 0.667D-02
 Coeff-Com:  0.425D-02-0.754D-01-0.174D+00 0.180D+00 0.106D+01
 Coeff:     -0.461D-06 0.613D-06 0.161D-06 0.138D-05-0.109D-06 0.146D-04
 Coeff:      0.353D-04-0.792D-05-0.528D-03-0.637D-03 0.359D-02 0.667D-02
 Coeff:      0.425D-02-0.754D-01-0.174D+00 0.180D+00 0.106D+01
 Gap=     0.256 Goal=   None    Shift=    0.000
 RMSDP=2.76D-08 MaxDP=2.38D-06 DE=-2.82D-11 OVMax= 1.14D-06

 Cycle  18  Pass 1  IDiag  1:
 RMSU=  5.64D-09    CP:  5.54D-01  2.51D+00  1.96D+00  8.94D-01  8.73D-01
                    CP:  1.08D+00  1.16D+00  1.48D+00  1.31D+00  1.40D+00
                    CP:  1.47D+00  1.11D+00  1.21D+00  1.54D+00  2.03D+00
                    CP:  1.68D+00  1.38D+00
 E= -3010.53509717305     Delta-E=        0.000000000016 Rises=F Damp=F
 DIIS: error= 8.20D-09 at cycle  18 NSaved=  18.
 NSaved=18 IEnMin=17 EnMin= -3010.53509717307     IErMin=18 ErrMin= 8.20D-09
 ErrMax= 8.20D-09  0.00D+00 EMaxC= 1.00D-01 BMatC= 3.88D-14 BMatP= 1.56D-13
 IDIUse=1 WtCom= 1.00D+00 WtEn= 0.00D+00
 Coeff-Com: -0.857D-07 0.117D-06-0.128D-06-0.159D-05-0.112D-04-0.184D-04
 Coeff-Com: -0.354D-05 0.107D-03 0.152D-03-0.443D-03-0.189D-02 0.288D-02
 Coeff-Com:  0.265D-01-0.320D-02-0.110D+00-0.196D+00 0.345D+00 0.937D+00
 Coeff:     -0.857D-07 0.117D-06-0.128D-06-0.159D-05-0.112D-04-0.184D-04
 Coeff:     -0.354D-05 0.107D-03 0.152D-03-0.443D-03-0.189D-02 0.288D-02
 Coeff:      0.265D-01-0.320D-02-0.110D+00-0.196D+00 0.345D+00 0.937D+00
 Gap=     0.256 Goal=   None    Shift=    0.000
 RMSDP=1.08D-08 MaxDP=5.11D-07 DE= 1.64D-11 OVMax= 4.43D-07

 Cycle  19  Pass 1  IDiag  1:
 RMSU=  1.75D-09    CP:  5.54D-01  2.51D+00  1.96D+00  8.94D-01  8.73D-01
                    CP:  1.08D+00  1.16D+00  1.48D+00  1.31D+00  1.40D+00
                    CP:  1.46D+00  1.12D+00  1.20D+00  1.55D+00  2.13D+00
                    CP:  1.79D+00  1.73D+00  1.26D+00
 E= -3010.53509717301     Delta-E=        0.000000000044 Rises=F Damp=F
 DIIS: error= 3.66D-09 at cycle  19 NSaved=  19.
 NSaved=19 IEnMin=17 EnMin= -3010.53509717307     IErMin=19 ErrMin= 3.66D-09
 ErrMax= 3.66D-09  0.00D+00 EMaxC= 1.00D-01 BMatC= 1.65D-15 BMatP= 3.88D-14
 IDIUse=1 WtCom= 1.00D+00 WtEn= 0.00D+00
 Large coefficients: NSaved= 19 BigCof=    0.00 CofMax=   10.00 Det=-8.60D-15
 Inversion failed.  Reducing to 18 matrices.
 Large coefficients: NSaved= 18 BigCof=    0.00 CofMax=   10.00 Det=-8.55D-15
 Inversion failed.  Reducing to 17 matrices.
 Large coefficients: NSaved= 17 BigCof=    0.00 CofMax=   10.00 Det=-8.55D-15
 Inversion failed.  Reducing to 16 matrices.
 Large coefficients: NSaved= 16 BigCof=    0.00 CofMax=   10.00 Det=-8.77D-15
 Inversion failed.  Reducing to 15 matrices.
 Coeff-Com:  0.579D-07 0.961D-07-0.204D-05-0.169D-05 0.179D-04 0.299D-05
 Coeff-Com: -0.110D-03-0.200D-03 0.125D-02 0.431D-02 0.232D-02-0.400D-01
 Coeff-Com: -0.197D-01 0.106D+00 0.946D+00
 Coeff:      0.579D-07 0.961D-07-0.204D-05-0.169D-05 0.179D-04 0.299D-05
 Coeff:     -0.110D-03-0.200D-03 0.125D-02 0.431D-02 0.232D-02-0.400D-01
 Coeff:     -0.197D-01 0.106D+00 0.946D+00
 Gap=     0.256 Goal=   None    Shift=    0.000
 RMSDP=2.34D-09 MaxDP=1.80D-07 DE= 4.37D-11 OVMax= 6.84D-08

 SCF Done:  E(RwB97XD) =  -3010.53509717     A.U. after   19 cycles
            NFock= 19  Conv=0.23D-08     -V/T= 2.0016
 KE= 3.005854705995D+03 PE=-8.631978700794D+03 EE= 1.876554285388D+03
 Leave Link  502 at Wed May  1 14:46:24 2024, MaxMem=  1207959552 cpu:            1060.8 elap:            1061.0
 (Enter /software/gaussian/g16-c01/sse4/g16/l601.exe)
 Copying SCF densities to generalized density rwf, IOpCl= 0 IROHF=0.

 **********************************************************************

            Population analysis using the SCF Density.

 **********************************************************************

 Alpha  occ. eigenvalues -- -483.31020 -62.86048 -56.65737 -56.65170 -56.65168
 Alpha  occ. eigenvalues --  -19.45200 -19.45128 -14.84715 -10.58023 -10.57142
 Alpha  occ. eigenvalues --  -10.56747 -10.56590 -10.56427 -10.52642  -9.01857
 Alpha  occ. eigenvalues --   -6.84522  -6.82668  -6.82654  -2.94430  -2.93937
 Alpha  occ. eigenvalues --   -2.93924  -2.92441  -2.92441  -1.48967  -1.31936
 Alpha  occ. eigenvalues --   -1.22271  -1.13687  -1.11390  -1.04118  -1.00567
 Alpha  occ. eigenvalues --   -0.95101  -0.90548  -0.84805  -0.80280  -0.80173
 Alpha  occ. eigenvalues --   -0.79365  -0.77933  -0.75589  -0.75414  -0.71940
 Alpha  occ. eigenvalues --   -0.69010  -0.67192  -0.63319  -0.59811  -0.56557
 Alpha  occ. eigenvalues --   -0.56104  -0.55453  -0.55002  -0.54864
 Alpha virt. eigenvalues --   -0.29287  -0.20758  -0.15339  -0.12940  -0.08536
 Alpha virt. eigenvalues --   -0.05956  -0.05430  -0.04464  -0.04445  -0.02844
 Alpha virt. eigenvalues --   -0.02182  -0.02044  -0.01230  -0.00823   0.00538
 Alpha virt. eigenvalues --    0.01177   0.01851   0.02075   0.02905   0.03014
 Alpha virt. eigenvalues --    0.04713   0.05162   0.05477   0.06287   0.07114
 Alpha virt. eigenvalues --    0.07367   0.07636   0.07909   0.09118   0.09570
 Alpha virt. eigenvalues --    0.10811   0.11425   0.11564   0.12152   0.12971
 Alpha virt. eigenvalues --    0.13049   0.13540   0.14044   0.15463   0.16499
 Alpha virt. eigenvalues --    0.16788   0.17485   0.18163   0.18886   0.19314
 Alpha virt. eigenvalues --    0.19556   0.21456   0.22021   0.22135   0.24891
 Alpha virt. eigenvalues --    0.25977   0.28433   0.28535   0.29504   0.31499
 Alpha virt. eigenvalues --    0.33234   0.34213   0.34379   0.35373   0.36453
 Alpha virt. eigenvalues --    0.37396   0.38454   0.39409   0.40850   0.41937
 Alpha virt. eigenvalues --    0.42835   0.44032   0.44684   0.46662   0.47770
 Alpha virt. eigenvalues --    0.48177   0.50378   0.51177   0.52359   0.53963
 Alpha virt. eigenvalues --    0.54590   0.55444   0.56910   0.57241   0.59781
 Alpha virt. eigenvalues --    0.61417   0.62583   0.64312   0.67010   0.68874
 Alpha virt. eigenvalues --    0.70449   0.72517   0.72765   0.73527   0.74538
 Alpha virt. eigenvalues --    0.74785   0.79777   0.80294   0.83319   0.85463
 Alpha virt. eigenvalues --    0.86656   0.88478   0.92177   0.93404   0.99048
 Alpha virt. eigenvalues --    1.00243   1.01437   1.05012   1.05731   1.06887
 Alpha virt. eigenvalues --    1.09537   1.11447   1.12595   1.13049   1.14880
 Alpha virt. eigenvalues --    1.22673   1.24937   1.27164   1.33254   1.36799
 Alpha virt. eigenvalues --    1.37167   1.38294   1.45418   1.54719   1.57456
 Alpha virt. eigenvalues --    1.58937   1.59176   1.60976   1.62803   1.66587
 Alpha virt. eigenvalues --    1.69545   1.70001   1.73813   1.75838   1.79344
 Alpha virt. eigenvalues --    1.81355   1.85788   1.87736   1.93599   1.95725
 Alpha virt. eigenvalues --    1.98178   2.03320   2.04208   2.07073   2.08316
 Alpha virt. eigenvalues --    2.09892   2.15021   2.20699   2.23086   2.29611
 Alpha virt. eigenvalues --    2.37994   2.41580   2.42867   2.43843   2.52771
 Alpha virt. eigenvalues --    2.56949   2.63352   2.66400   2.68532   2.72305
 Alpha virt. eigenvalues --    2.73918   2.77076   2.77777   2.81547   2.82150
 Alpha virt. eigenvalues --    2.93768   2.96622   3.01272   3.05841   3.09281
 Alpha virt. eigenvalues --    3.13325   3.15258   3.19358   3.24210   3.24642
 Alpha virt. eigenvalues --    3.28010   3.39576   3.47901   3.51653   3.54945
 Alpha virt. eigenvalues --    3.57337   3.70551   3.74748   3.82459   3.87464
 Alpha virt. eigenvalues --    4.09077   4.09311   4.16820   4.22031   4.42858
 Alpha virt. eigenvalues --    4.45012   4.57732   4.60449   4.93866   4.96538
 Alpha virt. eigenvalues --    5.05184   5.09351   5.63472   6.16432   6.64791
 Alpha virt. eigenvalues --    7.47752   7.49327   7.59114  23.21581  23.61574
 Alpha virt. eigenvalues --   23.69805  23.79755  23.96312  24.01709  35.33241
 Alpha virt. eigenvalues --   47.91383  49.86226  49.95037 289.80715 289.82383
 Alpha virt. eigenvalues --  289.948261020.91809
          Condensed to atoms (all electrons):
               1          2          3          4          5          6
     1  C    8.881814  -2.320231   0.205858  -1.595928  -0.616069   0.309508
     2  C   -2.320231  12.755646  -1.757243  -2.544893   0.699262  -0.013387
     3  C    0.205858  -1.757243  13.084949  -3.199037  -1.250609   0.023821
     4  C   -1.595928  -2.544893  -3.199037  14.822664   1.251156   0.010204
     5  C   -0.616069   0.699262  -1.250609   1.251156   7.375228   0.013409
     6  H    0.309508  -0.013387   0.023821   0.010204   0.013409   0.337667
     7  H    0.069648   0.229219   0.076919  -0.033043  -0.019570  -0.001808
     8  H    0.004154  -0.010723   0.074013   0.244053  -0.019870   0.000001
     9  H    0.032849  -0.014947   0.004175  -0.006991   0.307300  -0.002380
    10  N   -0.149791   0.346086  -0.919117   0.326922   0.015501  -0.000630
    11  O    0.012899  -0.073988  -0.262183  -0.010085  -0.056804  -0.000024
    12  O    0.331097  -0.036692  -0.280203  -0.092770  -0.042911   0.000019
    13  C    1.379721  -1.777588   0.865553  -3.441611  -1.693137  -0.007982
    14  H   -0.011626  -0.001374   0.003419  -0.065942  -0.016662  -0.000051
    15  Br   0.041019   0.007213   0.043431   0.044478   0.052393  -0.000390
               7          8          9         10         11         12
     1  C    0.069648   0.004154   0.032849  -0.149791   0.012899   0.331097
     2  C    0.229219  -0.010723  -0.014947   0.346086  -0.073988  -0.036692
     3  C    0.076919   0.074013   0.004175  -0.919117  -0.262183  -0.280203
     4  C   -0.033043   0.244053  -0.006991   0.326922  -0.010085  -0.092770
     5  C   -0.019570  -0.019870   0.307300   0.015501  -0.056804  -0.042911
     6  H   -0.001808   0.000001  -0.002380  -0.000630  -0.000024   0.000019
     7  H    0.299901  -0.000003   0.000014  -0.025702  -0.001493   0.022819
     8  H   -0.000003   0.293146   0.000102  -0.023734   0.023141  -0.000876
     9  H    0.000014   0.000102   0.330212   0.000383   0.000006   0.000006
    10  N   -0.025702  -0.023734   0.000383   7.366782   0.183156   0.147903
    11  O   -0.001493   0.023141   0.000006   0.183156   7.836899   0.001985
    12  O    0.022819  -0.000876   0.000006   0.147903   0.001985   7.873888
    13  C    0.015292   0.042760   0.007168  -0.164809   0.311418   0.041802
    14  H   -0.000018  -0.004029  -0.005600  -0.000084  -0.000279  -0.000072
    15  Br  -0.000070   0.002816   0.000963   0.004576   0.000235   0.002027
              13         14         15
     1  C    1.379721  -0.011626   0.041019
     2  C   -1.777588  -0.001374   0.007213
     3  C    0.865553   0.003419   0.043431
     4  C   -3.441611  -0.065942   0.044478
     5  C   -1.693137  -0.016662   0.052393
     6  H   -0.007982  -0.000051  -0.000390
     7  H    0.015292  -0.000018  -0.000070
     8  H    0.042760  -0.004029   0.002816
     9  H    0.007168  -0.005600   0.000963
    10  N   -0.164809  -0.000084   0.004576
    11  O    0.311418  -0.000279   0.000235
    12  O    0.041802  -0.000072   0.002027
    13  C   10.516099   0.397340  -0.020731
    14  H    0.397340   0.343963  -0.041466
    15  Br  -0.020731  -0.041466  34.693234
 Mulliken charges:
               1
     1  C   -0.574923
     2  C    0.513641
     3  C   -0.713746
     4  C    0.290823
     5  C    0.001384
     6  H    0.332024
     7  H    0.367897
     8  H    0.375050
     9  H    0.346741
    10  N   -0.107444
    11  O    0.035116
    12  O    0.031979
    13  C   -0.471296
    14  H    0.402481
    15  Br   0.170273
 Sum of Mulliken charges =   1.00000
 Mulliken charges with hydrogens summed into heavy atoms:
               1
     1  C   -0.242899
     2  C    0.881538
     3  C   -0.713746
     4  C    0.665873
     5  C    0.348124
    10  N   -0.107444
    11  O    0.035116
    12  O    0.031979
    13  C   -0.068815
    15  Br   0.170273
 Electronic spatial extent (au):  <R**2>=           2797.9817
 Charge=              1.0000 electrons
 Dipole moment (field-independent basis, Debye):
    X=             -0.5603    Y=             -0.5563    Z=              0.0019  Tot=              0.7896
 Quadrupole moment (field-independent basis, Debye-Ang):
   XX=            -70.6238   YY=            -52.0187   ZZ=            -62.6853
   XY=              1.2563   XZ=              1.0421   YZ=              1.5997
 Traceless Quadrupole moment (field-independent basis, Debye-Ang):
   XX=             -8.8478   YY=              9.7572   ZZ=             -0.9094
   XY=              1.2563   XZ=              1.0421   YZ=              1.5997
 Octapole moment (field-independent basis, Debye-Ang**2):
  XXX=           -295.8446  YYY=             87.8037  ZZZ=             77.4638  XYY=            -75.4881
  XXY=             30.1590  XXZ=             32.2450  XZZ=            -77.8561  YZZ=             16.3551
  YYZ=             25.4883  XYZ=             -3.2591
 Hexadecapole moment (field-independent basis, Debye-Ang**3):
 XXXX=          -2263.5658 YYYY=           -677.0036 ZZZZ=           -347.9423 XXXY=            -68.4182
 XXXZ=            -22.0082 YYYX=            -59.9041 YYYZ=           -155.6409 ZZZX=            -18.5257
 ZZZY=           -135.6939 XXYY=           -454.9430 XXZZ=           -370.0816 YYZZ=           -163.4312
 XXYZ=            -54.6979 YYXZ=             -2.3308 ZZXY=             -8.7501
 N-N= 7.390346122382D+02 E-N=-8.631978700376D+03  KE= 3.005854705995D+03
 No NMR shielding tensors so no spin-rotation constants.
 Leave Link  601 at Wed May  1 14:46:31 2024, MaxMem=  1207959552 cpu:               7.0 elap:               7.0
 (Enter /software/gaussian/g16-c01/sse4/g16/l9999.exe)
 Unable to Open any file for archive entry.
 1\1\GINC-BHX0015\SP\RwB97XD\6-311+G(d)\C6H5Br1N1O2(1+)\BWEIGHT\01-May-
 2024\0\\#P wB97XD/6-311+G* NoSymm #P Field=X-9\\TitleMe\\1,1\C,0,0.029
 5,1.3397,0.0682\C,0,1.4348,1.2867,0.0064\C,0,2.1118,0.0511,-0.0054\C,0
 ,1.4451,-1.1372,0.0312\C,0,-0.6879,0.1682,0.11\H,0,-0.4713,2.2984,0.07
 81\H,0,2.0273,2.1965,-0.0322\H,0,1.9897,-2.0764,0.0232\H,0,-1.7716,0.1
 804,0.1582\N,0,3.5864,0.051,-0.0675\O,0,4.1471,-1.0597,-0.0881\O,0,4.1
 45,1.1639,-0.0901\C,0,-0.0236,-1.1458,0.0835\H,0,-0.4367,-1.8725,0.788
 9\Br,0,-0.5359,-1.8697,-1.7408\\Version=ES64L-G16RevC.01\HF=-3010.5350
 972\RMSD=2.336e-09\Dipole=-2.126991,0.9292184,1.1469322\Quadrupole=-6.
 5781581,7.254247,-0.676089,0.9340249,0.7748122,1.1893257\PG=C01 [X(C6H
 5Br1N1O2)]\\@
 The archive entry for this job was punched.


 I CLAIM NOT TO HAVE CONTROLLED EVENTS,
 BUT CONFESS PLAINLY THAT EVENTS HAVE CONTROLLED ME.

                                         A. LINCOLN
 Job cpu time:       0 days  0 hours 18 minutes 47.5 seconds.
 Elapsed time:       0 days  0 hours 18 minutes 47.7 seconds.
 File lengths (MBytes):  RWF=     40 Int=      0 D2E=      0 Chk=     32 Scr=      1
 Normal termination of Gaussian 16 at Wed May  1 14:46:31 2024.
