 Entering Gaussian System, Link 0=g16
 Initial command:
 /software/gaussian/g16-c01/sse4/g16/l1.exe "/local_scratch/24657418/Gau-27906.inp" -scrdir="/local_scratch/24657418/"
 Entering Link 1 = /software/gaussian/g16-c01/sse4/g16/l1.exe PID=     27918.
  
 Copyright (c) 1988-2019, Gaussian, Inc.  All Rights Reserved.
  
 This is part of the Gaussian(R) 16 program.  It is based on
 the Gaussian(R) 09 system (copyright 2009, Gaussian, Inc.),
 the Gaussian(R) 03 system (copyright 2003, Gaussian, Inc.),
 the Gaussian(R) 98 system (copyright 1998, Gaussian, Inc.),
 the Gaussian(R) 94 system (copyright 1995, Gaussian, Inc.),
 the Gaussian 92(TM) system (copyright 1992, Gaussian, Inc.),
 the Gaussian 90(TM) system (copyright 1990, Gaussian, Inc.),
 the Gaussian 88(TM) system (copyright 1988, Gaussian, Inc.),
 the Gaussian 86(TM) system (copyright 1986, Carnegie Mellon
 University), and the Gaussian 82(TM) system (copyright 1983,
 Carnegie Mellon University). Gaussian is a federally registered
 trademark of Gaussian, Inc.
  
 This software contains proprietary and confidential information,
 including trade secrets, belonging to Gaussian, Inc.
  
 This software is provided under written license and may be
 used, copied, transmitted, or stored only in accord with that
 written license.
  
 The following legend is applicable only to US Government
 contracts under FAR:
  
                    RESTRICTED RIGHTS LEGEND
  
 Use, reproduction and disclosure by the US Government is
 subject to restrictions as set forth in subparagraphs (a)
 and (c) of the Commercial Computer Software - Restricted
 Rights clause in FAR 52.227-19.
  
 Gaussian, Inc.
 340 Quinnipiac St., Bldg. 40, Wallingford CT 06492
  
  
 ---------------------------------------------------------------
 Warning -- This program may not be used in any manner that
 competes with the business of Gaussian, Inc. or will provide
 assistance to any competitor of Gaussian, Inc.  The licensee
 of this program is prohibited from giving any competitor of
 Gaussian, Inc. access to this program.  By using this program,
 the user acknowledges that Gaussian, Inc. is engaged in the
 business of creating and licensing software in the field of
 computational chemistry and represents and warrants to the
 licensee that it is not a competitor of Gaussian, Inc. and that
 it will not use this program in any manner prohibited above.
 ---------------------------------------------------------------
  

 Cite this work as:
 Gaussian 16, Revision C.01,
 M. J. Frisch, G. W. Trucks, H. B. Schlegel, G. E. Scuseria, 
 M. A. Robb, J. R. Cheeseman, G. Scalmani, V. Barone, 
 G. A. Petersson, H. Nakatsuji, X. Li, M. Caricato, A. V. Marenich, 
 J. Bloino, B. G. Janesko, R. Gomperts, B. Mennucci, H. P. Hratchian, 
 J. V. Ortiz, A. F. Izmaylov, J. L. Sonnenberg, D. Williams-Young, 
 F. Ding, F. Lipparini, F. Egidi, J. Goings, B. Peng, A. Petrone, 
 T. Henderson, D. Ranasinghe, V. G. Zakrzewski, J. Gao, N. Rega, 
 G. Zheng, W. Liang, M. Hada, M. Ehara, K. Toyota, R. Fukuda, 
 J. Hasegawa, M. Ishida, T. Nakajima, Y. Honda, O. Kitao, H. Nakai, 
 T. Vreven, K. Throssell, J. A. Montgomery, Jr., J. E. Peralta, 
 F. Ogliaro, M. J. Bearpark, J. J. Heyd, E. N. Brothers, K. N. Kudin, 
 V. N. Staroverov, T. A. Keith, R. Kobayashi, J. Normand, 
 K. Raghavachari, A. P. Rendell, J. C. Burant, S. S. Iyengar, 
 J. Tomasi, M. Cossi, J. M. Millam, M. Klene, C. Adamo, R. Cammi, 
 J. W. Ochterski, R. L. Martin, K. Morokuma, O. Farkas, 
 J. B. Foresman, and D. J. Fox, Gaussian, Inc., Wallingford CT, 2019.
 
 ******************************************
 Gaussian 16:  ES64L-G16RevC.01  3-Jul-2019
                 1-May-2024 
 ******************************************
 %chk=geometry.chk
 %mem=9GB
 %nprocshared=12
 Will use up to   12 processors via shared memory.
 ----------------------------------------
 #P wB97XD/6-311+G* NoSymm #P Field=X-223
 ----------------------------------------
 1/38=1,172=1/1;
 2/12=2,15=1,17=6,18=5,40=1/2;
 3/5=4,6=6,7=11,11=2,14=1,15=-223,25=1,30=1,74=-58/1,2,3;
 4//1;
 5/5=2,38=5/2;
 6/7=2,8=2,9=2,10=2,28=1/1;
 99/5=1,9=1/99;
 Leave Link    1 at Wed May  1 14:27:44 2024, MaxMem=  1207959552 cpu:               1.4 elap:               1.4
 (Enter /software/gaussian/g16-c01/sse4/g16/l101.exe)
 -------
 TitleMe
 -------
 Symbolic Z-matrix:
 Charge =  1 Multiplicity = 1
 C                     0.0295    1.3397    0.0682 
 C                     1.4348    1.2867    0.0064 
 C                     2.1118    0.0511   -0.0054 
 C                     1.4451   -1.1372    0.0312 
 C                    -0.6879    0.1682    0.11 
 H                    -0.4713    2.2984    0.0781 
 H                     2.0273    2.1965   -0.0322 
 H                     1.9897   -2.0764    0.0232 
 H                    -1.7716    0.1804    0.1582 
 N                     3.5864    0.051    -0.0675 
 O                     4.1471   -1.0597   -0.0881 
 O                     4.145     1.1639   -0.0901 
 C                    -0.0236   -1.1458    0.0835 
 H                    -0.4367   -1.8725    0.7889 
 Br                   -0.5359   -1.8697   -1.7408 
 
 ITRead=  0  0  0  0  0  0  0  0  0  0  0  0  0  0  0
 MicOpt= -1 -1 -1 -1 -1 -1 -1 -1 -1 -1 -1 -1 -1 -1 -1
 NAtoms=     15 NQM=       15 NQMF=       0 NMMI=      0 NMMIF=      0
                NMic=       0 NMicF=      0.
                    Isotopes and Nuclear Properties:
 (Nuclear quadrupole moments (NQMom) in fm**2, nuclear magnetic moments (NMagM)
  in nuclear magnetons)

  Atom         1           2           3           4           5           6           7           8           9          10
 IAtWgt=          12          12          12          12          12           1           1           1           1          14
 AtmWgt=  12.0000000  12.0000000  12.0000000  12.0000000  12.0000000   1.0078250   1.0078250   1.0078250   1.0078250  14.0030740
 NucSpn=           0           0           0           0           0           1           1           1           1           2
 AtZEff=  -0.0000000  -0.0000000  -0.0000000  -0.0000000  -0.0000000  -0.0000000  -0.0000000  -0.0000000  -0.0000000  -0.0000000
 NQMom=    0.0000000   0.0000000   0.0000000   0.0000000   0.0000000   0.0000000   0.0000000   0.0000000   0.0000000   2.0440000
 NMagM=    0.0000000   0.0000000   0.0000000   0.0000000   0.0000000   2.7928460   2.7928460   2.7928460   2.7928460   0.4037610
 AtZNuc=   6.0000000   6.0000000   6.0000000   6.0000000   6.0000000   1.0000000   1.0000000   1.0000000   1.0000000   7.0000000

  Atom        11          12          13          14          15
 IAtWgt=          16          16          12           1          79
 AtmWgt=  15.9949146  15.9949146  12.0000000   1.0078250  78.9183361
 NucSpn=           0           0           0           1           3
 AtZEff=  -0.0000000  -0.0000000  -0.0000000  -0.0000000  -0.0000000
 NQMom=    0.0000000   0.0000000   0.0000000   0.0000000  31.3000000
 NMagM=    0.0000000   0.0000000   0.0000000   2.7928460   2.1063990
 AtZNuc=   8.0000000   8.0000000   6.0000000   1.0000000  35.0000000
 Leave Link  101 at Wed May  1 14:27:45 2024, MaxMem=  1207959552 cpu:               1.4 elap:               1.4
 (Enter /software/gaussian/g16-c01/sse4/g16/l202.exe)
                          Input orientation:                          
 ---------------------------------------------------------------------
 Center     Atomic      Atomic             Coordinates (Angstroms)
 Number     Number       Type             X           Y           Z
 ---------------------------------------------------------------------
      1          6           0        0.029500    1.339700    0.068200
      2          6           0        1.434800    1.286700    0.006400
      3          6           0        2.111800    0.051100   -0.005400
      4          6           0        1.445100   -1.137200    0.031200
      5          6           0       -0.687900    0.168200    0.110000
      6          1           0       -0.471300    2.298400    0.078100
      7          1           0        2.027300    2.196500   -0.032200
      8          1           0        1.989700   -2.076400    0.023200
      9          1           0       -1.771600    0.180400    0.158200
     10          7           0        3.586400    0.051000   -0.067500
     11          8           0        4.147100   -1.059700   -0.088100
     12          8           0        4.145000    1.163900   -0.090100
     13          6           0       -0.023600   -1.145800    0.083500
     14          1           0       -0.436700   -1.872500    0.788900
     15         35           0       -0.535900   -1.869700   -1.740800
 ---------------------------------------------------------------------
                    Distance matrix (angstroms):
                    1          2          3          4          5
     1  C    0.000000
     2  C    1.407656   0.000000
     3  C    2.449874   1.408963   0.000000
     4  C    2.853126   2.424049   1.363043   0.000000
     5  C    1.374344   2.401589   2.804523   2.501993   0.000000
     6  H    1.081667   2.159142   3.424870   3.934226   2.141421
     7  H    2.176095   1.086408   2.147231   3.384750   3.392128
     8  H    3.938800   3.408612   2.131193   1.085702   3.495040
     9  H    2.143837   3.395283   3.888995   3.478413   1.084840
    10  N    3.785591   2.482297   1.475907   2.450862   4.279589
    11  O    4.768247   3.587631   2.320164   2.705743   4.992415
    12  O    4.122294   2.714696   2.319353   3.549540   4.938459
    13  C    2.486114   2.837240   2.449573   1.469656   1.472614
    14  H    3.324903   3.754379   3.290289   2.157764   2.165286
    15  Br   3.727252   4.110867   3.702891   2.756973   2.757100
                    6          7          8          9         10
     6  H    0.000000
     7  H    2.503108   0.000000
     8  H    5.019802   4.273425   0.000000
     9  H    2.486588   4.304945   4.388479   0.000000
    10  N    4.640790   2.652397   2.661486   5.364313   0.000000
    11  O    5.712624   3.885809   2.387560   6.052233   1.244373
    12  O    4.756638   2.356750   3.893289   6.002923   1.245428
    13  C    3.473180   3.923079   2.218790   2.195425   3.806210
    14  H    4.231175   4.827242   2.552506   2.528663   4.540772
    15  Br   4.548146   5.101303   3.087568   3.055498   4.845862
                   11         12         13         14         15
    11  O    0.000000
    12  O    2.223602   0.000000
    13  C    4.175117   4.768865   0.000000
    14  H    4.737193   5.566358   1.093770   0.000000
    15  Br   5.031700   5.817075   2.028436   2.531646   0.000000
 Symmetry turned off by external request.
 Stoichiometry    C6H5BrNO2(1+)
 Framework group  C1[X(C6H5BrNO2)]
 Deg. of freedom    39
 Full point group                 C1      NOp   1
 Rotational constants (GHZ):           1.8252210           0.5518633           0.4576002
 Leave Link  202 at Wed May  1 14:27:47 2024, MaxMem=  1207959552 cpu:               1.2 elap:               1.2
 (Enter /software/gaussian/g16-c01/sse4/g16/l301.exe)
 Standard basis: 6-311+G(d) (5D, 7F)
 Ernie: Thresh=  0.10000D-02 Tol=  0.10000D-05 Strict=F.
 The following finite field(s) will be applied:
 An electric field of             -0.0223  0.0000  0.0000
   261 basis functions,   443 primitive gaussians,   273 cartesian basis functions
    49 alpha electrons       49 beta electrons
       nuclear repulsion energy       739.2122215416 Hartrees.
 IExCor= 4639 DFT=T Ex+Corr=wB97XD ExCW=0 ScaHFX=  1.000000
 ScaDFX=  1.000000  1.000000  1.000000  1.000000 ScalE2=  1.000000  1.000000
 IRadAn=      5 IRanWt=     -1 IRanGd=            0 ICorTp=0 IEmpDi=121
 HFx  wShort=  0.000000 wLong=  0.200000 cFull=  0.222036 cShort=  0.000000 cLong=  0.777964
 DFx  wShort=  0.000000 wLong=  0.200000 cFull=  0.000000 cShort=  0.000000 cLong=  1.000000
 NAtoms=   15 NActive=   15 NUniq=   15 SFac= 1.00D+00 NAtFMM=   60 NAOKFM=F Big=F
 Integral buffers will be    131072 words long.
 Raffenetti 2 integral format.
 Two-electron integral symmetry is turned off.
 R6Disp:  Grimme-D2 Dispersion energy=       -0.0077368520 Hartrees.
 Nuclear repulsion after empirical dispersion term =      739.2044846896 Hartrees.
 Leave Link  301 at Wed May  1 14:27:48 2024, MaxMem=  1207959552 cpu:               1.0 elap:               1.0
 (Enter /software/gaussian/g16-c01/sse4/g16/l302.exe)
 NPDir=0 NMtPBC=     1 NCelOv=     1 NCel=       1 NClECP=     1 NCelD=      1
         NCelK=      1 NCelE2=     1 NClLst=     1 CellRange=     0.0.
 One-electron integrals computed using PRISM.
 NBasis=   261 RedAO= T EigKep=  2.35D-06  NBF=   261
 NBsUse=   261 1.00D-06 EigRej= -1.00D+00 NBFU=   261
 Precomputing XC quadrature grid using
 IXCGrd= 4 IRadAn=           5 IRanWt=          -1 IRanGd=           0 AccXCQ= 0.00D+00.
 Generated NRdTot=       0 NPtTot=           0 NUsed=           0 NTot=          32
 NSgBfM=   273   273   273   273   273 MxSgAt=    15 MxSgA2=    15.
 Leave Link  302 at Wed May  1 14:28:09 2024, MaxMem=  1207959552 cpu:              21.6 elap:              21.6
 (Enter /software/gaussian/g16-c01/sse4/g16/l303.exe)
 DipDrv:  MaxL=1.
 The nuclear repulsion energy is now       734.9954228403 hartrees.
 Leave Link  303 at Wed May  1 14:28:13 2024, MaxMem=  1207959552 cpu:               3.4 elap:               3.4
 (Enter /software/gaussian/g16-c01/sse4/g16/l401.exe)
 ExpMin= 3.50D-02 ExpMax= 4.40D+05 ExpMxC= 1.51D+04 IAcc=3 IRadAn=         5 AccDes= 0.00D+00
 Harris functional with IExCor= 4639 and IRadAn=       5 diagonalized for initial guess.
 HarFok:  IExCor= 4639 AccDes= 0.00D+00 IRadAn=         5 IDoV= 1 UseB2=F ITyADJ=14
 ICtDFT=  3500011 ScaDFX=  1.000000  1.000000  1.000000  1.000000
 FoFCou: FMM=F IPFlag=           0 FMFlag=      100000 FMFlg1=           0
         NFxFlg=           0 DoJE=T BraDBF=F KetDBF=T FulRan=T
         wScrn=  0.000000 ICntrl=       500 IOpCl=  0 I1Cent=   200000004 NGrid=           0
         NMat0=    1 NMatS0=      1 NMatT0=    0 NMatD0=    1 NMtDS0=    0 NMtDT0=    0
 Symmetry not used in FoFCou.
 Harris En= -2971.27773722313    
 JPrj=0 DoOrth=F DoCkMO=F.
 Leave Link  401 at Wed May  1 14:28:43 2024, MaxMem=  1207959552 cpu:              30.6 elap:              30.6
 (Enter /software/gaussian/g16-c01/sse4/g16/l502.exe)
 Two-electron integral symmetry not used.
 Closed shell SCF:
 Using DIIS extrapolation, IDIIS=  1040.
 NGot=  1207959552 LenX=  1207804877 LenY=  1207729907
 Requested convergence on RMS density matrix=1.00D-08 within 128 cycles.
 Requested convergence on MAX density matrix=1.00D-06.
 Requested convergence on             energy=1.00D-06.
 No special actions if energy rises.
 Fock matrices will be formed incrementally for  20 cycles.

 Cycle   1  Pass 1  IDiag  1:
 FoFJK:  IHMeth= 1 ICntrl=       0 DoSepK=T KAlg= 0 I1Cent=           0 FoldK=F
 IRaf=         1 NMat=       1 IRICut=       1 DoRegI=T DoRafI=F ISym2E= 0 IDoP0=0 IntGTp=1.
 FoFCou: FMM=F IPFlag=           0 FMFlag=      100000 FMFlg1=           0
         NFxFlg=           0 DoJE=T BraDBF=F KetDBF=F FulRan=T
         wScrn=  0.000000 ICntrl=       500 IOpCl=  0 I1Cent=           0 NGrid=           0
         NMat0=    1 NMatS0=      1 NMatT0=    0 NMatD0=    1 NMtDS0=    0 NMtDT0=    0
 Symmetry not used in FoFCou.
 E= -3001.32803383805    
 DIIS: error= 3.19D-01 at cycle   1 NSaved=   1.
 NSaved= 1 IEnMin= 1 EnMin= -3001.32803383805     IErMin= 1 ErrMin= 3.19D-01
 ErrMax= 3.19D-01  0.00D+00 EMaxC= 1.00D-01 BMatC= 1.44D+01 BMatP= 1.44D+01
 IDIUse=3 WtCom= 0.00D+00 WtEn= 1.00D+00
 Coeff-Com:  0.100D+01
 Coeff-En:   0.100D+01
 Coeff:      0.100D+01
 Gap=     0.139 Goal=   None    Shift=    0.000
 GapD=    0.139 DampG=1.000 DampE=0.250 DampFc=0.2500 IDamp=-1.
 Damping current iteration by 2.50D-01
 RMSDP=1.12D+01 MaxDP=1.13D+03              OVMax= 9.97D-01

 Cycle   2  Pass 1  IDiag  1:
 RMSU=  1.93D-01    CP:  7.56D-01
 E= -3002.28404196262     Delta-E=       -0.956008124570 Rises=F Damp=T
 DIIS: error= 2.23D-01 at cycle   2 NSaved=   2.
 NSaved= 2 IEnMin= 2 EnMin= -3002.28404196262     IErMin= 2 ErrMin= 2.23D-01
 ErrMax= 2.23D-01  0.00D+00 EMaxC= 1.00D-01 BMatC= 6.32D+00 BMatP= 1.44D+01
 IDIUse=3 WtCom= 0.00D+00 WtEn= 1.00D+00
 Coeff-Com: -0.329D+00 0.133D+01
 Coeff-En:   0.445D+00 0.555D+00
 Coeff:      0.445D+00 0.555D+00
 Gap=     0.439 Goal=   None    Shift=    0.000
 RMSDP=8.60D+00 MaxDP=8.51D+02 DE=-9.56D-01 OVMax= 9.81D-01

 Cycle   3  Pass 1  IDiag  1:
 RMSU=  6.13D-02    CP:  3.78D-03  2.47D-01
 E= -2998.80424014338     Delta-E=        3.479801819242 Rises=F Damp=F
 DIIS: error= 1.42D-01 at cycle   3 NSaved=   3.
 NSaved= 3 IEnMin= 2 EnMin= -3002.28404196262     IErMin= 3 ErrMin= 1.42D-01
 ErrMax= 1.42D-01  0.00D+00 EMaxC= 1.00D-01 BMatC= 8.16D+00 BMatP= 6.32D+00
 IDIUse=2 WtCom= 0.00D+00 WtEn= 1.00D+00
 EnCoef did   100 forward-backward iterations
 Coeff-En:   0.539D+00 0.818D-02 0.452D+00
 Coeff:      0.539D+00 0.818D-02 0.452D+00
 Gap=    -0.202 Goal=   None    Shift=    0.000
 RMSDP=2.83D-02 MaxDP=1.69D+00 DE= 3.48D+00 OVMax= 7.88D-01

 Cycle   4  Pass 1  IDiag  1:
 RMSU=  2.64D-02    CP:  3.99D-03  2.05D-01  9.06D-01
 E= -3009.70235003204     Delta-E=      -10.898109888665 Rises=F Damp=F
 DIIS: error= 6.00D-02 at cycle   4 NSaved=   4.
 NSaved= 4 IEnMin= 4 EnMin= -3009.70235003204     IErMin= 4 ErrMin= 6.00D-02
 ErrMax= 6.00D-02  0.00D+00 EMaxC= 1.00D-01 BMatC= 1.15D+00 BMatP= 6.32D+00
 IDIUse=3 WtCom= 4.00D-01 WtEn= 6.00D-01
 Coeff-Com:  0.140D+00 0.508D-01 0.761D-01 0.733D+00
 Coeff-En:   0.487D-01 0.000D+00 0.000D+00 0.951D+00
 Coeff:      0.854D-01 0.203D-01 0.305D-01 0.864D+00
 Gap=     0.377 Goal=   None    Shift=    0.000
 RMSDP=4.08D-02 MaxDP=2.76D+00 DE=-1.09D+01 OVMax= 6.75D-01

 Cycle   5  Pass 1  IDiag  1:
 RMSU=  3.79D-02    CP:  3.80D-03  1.82D-01  6.73D-01  9.40D-01
 E= -3008.80189561268     Delta-E=        0.900454419363 Rises=F Damp=F
 DIIS: error= 6.84D-02 at cycle   5 NSaved=   5.
 NSaved= 5 IEnMin= 4 EnMin= -3009.70235003204     IErMin= 4 ErrMin= 6.00D-02
 ErrMax= 6.84D-02  0.00D+00 EMaxC= 1.00D-01 BMatC= 1.67D+00 BMatP= 1.15D+00
 IDIUse=2 WtCom= 0.00D+00 WtEn= 1.00D+00
 Coeff-En:   0.000D+00 0.000D+00 0.000D+00 0.667D+00 0.333D+00
 Coeff:      0.000D+00 0.000D+00 0.000D+00 0.667D+00 0.333D+00
 Gap=     0.078 Goal=   None    Shift=    0.000
 RMSDP=3.18D-02 MaxDP=2.41D+00 DE= 9.00D-01 OVMax= 7.26D-01

 Cycle   6  Pass 1  IDiag  1:
 RMSU=  1.86D-02    CP:  4.39D-03  1.39D-01  5.27D-01  6.01D-01  4.80D-01
 E= -3009.65199569750     Delta-E=       -0.850100084820 Rises=F Damp=F
 DIIS: error= 4.51D-02 at cycle   6 NSaved=   6.
 NSaved= 6 IEnMin= 4 EnMin= -3009.70235003204     IErMin= 6 ErrMin= 4.51D-02
 ErrMax= 4.51D-02  0.00D+00 EMaxC= 1.00D-01 BMatC= 6.26D-01 BMatP= 1.15D+00
 IDIUse=3 WtCom= 5.49D-01 WtEn= 4.51D-01
 EnCoef did     2 forward-backward iterations
 Coeff-Com: -0.333D-01 0.831D-01 0.302D-01 0.372D+00 0.207D+00 0.340D+00
 Coeff-En:   0.000D+00 0.000D+00 0.000D+00 0.500D+00 0.156D+00 0.344D+00
 Coeff:     -0.183D-01 0.457D-01 0.166D-01 0.430D+00 0.184D+00 0.342D+00
 Gap=     0.055 Goal=   None    Shift=    0.000
 RMSDP=2.07D-02 MaxDP=1.25D+00 DE=-8.50D-01 OVMax= 8.09D-01

 Cycle   7  Pass 1  IDiag  1:
 RMSU=  1.30D-02    CP:  3.46D-03  1.42D-01  5.75D-01  7.08D-01  4.06D-01
                    CP:  4.08D-01
 E= -3010.46183580200     Delta-E=       -0.809840104500 Rises=F Damp=F
 DIIS: error= 2.09D-02 at cycle   7 NSaved=   7.
 NSaved= 7 IEnMin= 7 EnMin= -3010.46183580200     IErMin= 7 ErrMin= 2.09D-02
 ErrMax= 2.09D-02  0.00D+00 EMaxC= 1.00D-01 BMatC= 1.17D-01 BMatP= 6.26D-01
 IDIUse=3 WtCom= 7.91D-01 WtEn= 2.09D-01
 Coeff-Com: -0.344D-01 0.446D-01 0.482D-02 0.154D+00 0.594D-01 0.278D+00
 Coeff-Com:  0.493D+00
 Coeff-En:   0.000D+00 0.000D+00 0.000D+00 0.000D+00 0.000D+00 0.769D-01
 Coeff-En:   0.923D+00
 Coeff:     -0.272D-01 0.353D-01 0.381D-02 0.122D+00 0.470D-01 0.236D+00
 Coeff:      0.583D+00
 Gap=     0.111 Goal=   None    Shift=    0.000
 RMSDP=7.89D-03 MaxDP=3.41D-01 DE=-8.10D-01 OVMax= 1.39D-01

 Cycle   8  Pass 1  IDiag  1:
 RMSU=  6.57D-03    CP:  3.74D-03  1.45D-01  5.47D-01  7.49D-01  4.12D-01
                    CP:  4.77D-01  8.66D-01
 E= -3010.54289814365     Delta-E=       -0.081062341646 Rises=F Damp=F
 DIIS: error= 1.17D-02 at cycle   8 NSaved=   8.
 NSaved= 8 IEnMin= 8 EnMin= -3010.54289814365     IErMin= 8 ErrMin= 1.17D-02
 ErrMax= 1.17D-02  0.00D+00 EMaxC= 1.00D-01 BMatC= 1.32D-02 BMatP= 1.17D-01
 IDIUse=3 WtCom= 8.83D-01 WtEn= 1.17D-01
 Coeff-Com: -0.331D-02 0.180D-02-0.619D-02 0.134D-01 0.571D-02 0.451D-01
 Coeff-Com:  0.249D+00 0.694D+00
 Coeff-En:   0.000D+00 0.000D+00 0.000D+00 0.000D+00 0.000D+00 0.000D+00
 Coeff-En:   0.000D+00 0.100D+01
 Coeff:     -0.292D-02 0.159D-02-0.547D-02 0.118D-01 0.504D-02 0.398D-01
 Coeff:      0.220D+00 0.730D+00
 Gap=     0.173 Goal=   None    Shift=    0.000
 RMSDP=2.77D-03 MaxDP=1.43D-01 DE=-8.11D-02 OVMax= 6.70D-02

 Cycle   9  Pass 1  IDiag  1:
 RMSU=  2.33D-03    CP:  3.65D-03  1.43D-01  5.35D-01  7.40D-01  4.09D-01
                    CP:  4.63D-01  8.89D-01  8.87D-01
 E= -3010.54717299409     Delta-E=       -0.004274850443 Rises=F Damp=F
 DIIS: error= 1.23D-02 at cycle   9 NSaved=   9.
 NSaved= 9 IEnMin= 9 EnMin= -3010.54717299409     IErMin= 8 ErrMin= 1.17D-02
 ErrMax= 1.23D-02  0.00D+00 EMaxC= 1.00D-01 BMatC= 1.06D-02 BMatP= 1.32D-02
 IDIUse=3 WtCom= 8.83D-01 WtEn= 1.17D-01
 Coeff-Com:  0.382D-02-0.476D-02-0.308D-02-0.834D-02-0.916D-02 0.856D-02
 Coeff-Com:  0.790D-01 0.506D+00 0.428D+00
 Coeff-En:   0.000D+00 0.000D+00 0.000D+00 0.000D+00 0.000D+00 0.000D+00
 Coeff-En:   0.000D+00 0.384D+00 0.616D+00
 Coeff:      0.337D-02-0.420D-02-0.272D-02-0.736D-02-0.809D-02 0.755D-02
 Coeff:      0.697D-01 0.492D+00 0.450D+00
 Gap=     0.184 Goal=   None    Shift=    0.000
 RMSDP=1.36D-03 MaxDP=9.91D-02 DE=-4.27D-03 OVMax= 3.73D-02

 Cycle  10  Pass 1  IDiag  1:
 RMSU=  1.15D-03    CP:  3.62D-03  1.43D-01  5.33D-01  7.37D-01  4.00D-01
                    CP:  4.57D-01  8.60D-01  9.23D-01  9.15D-01
 E= -3010.55542014119     Delta-E=       -0.008247147104 Rises=F Damp=F
 DIIS: error= 1.73D-03 at cycle  10 NSaved=  10.
 NSaved=10 IEnMin=10 EnMin= -3010.55542014119     IErMin=10 ErrMin= 1.73D-03
 ErrMax= 1.73D-03  0.00D+00 EMaxC= 1.00D-01 BMatC= 6.64D-04 BMatP= 1.06D-02
 IDIUse=3 WtCom= 9.83D-01 WtEn= 1.73D-02
 Coeff-Com:  0.139D-02-0.194D-02-0.165D-02-0.315D-03-0.444D-02 0.495D-02
 Coeff-Com: -0.471D-01-0.681D-01 0.143D+00 0.974D+00
 Coeff-En:   0.000D+00 0.000D+00 0.000D+00 0.000D+00 0.000D+00 0.000D+00
 Coeff-En:   0.000D+00 0.000D+00 0.000D+00 0.100D+01
 Coeff:      0.137D-02-0.190D-02-0.162D-02-0.310D-03-0.436D-02 0.486D-02
 Coeff:     -0.463D-01-0.669D-01 0.141D+00 0.974D+00
 Gap=     0.176 Goal=   None    Shift=    0.000
 RMSDP=8.03D-04 MaxDP=2.92D-02 DE=-8.25D-03 OVMax= 2.40D-02

 Cycle  11  Pass 1  IDiag  1:
 RMSU=  4.27D-04    CP:  3.63D-03  1.43D-01  5.29D-01  7.39D-01  4.03D-01
                    CP:  4.58D-01  8.60D-01  9.25D-01  1.18D+00  1.02D+00
 E= -3010.55692916456     Delta-E=       -0.001509023367 Rises=F Damp=F
 DIIS: error= 7.81D-04 at cycle  11 NSaved=  11.
 NSaved=11 IEnMin=11 EnMin= -3010.55692916456     IErMin=11 ErrMin= 7.81D-04
 ErrMax= 7.81D-04  0.00D+00 EMaxC= 1.00D-01 BMatC= 1.33D-04 BMatP= 6.64D-04
 IDIUse=3 WtCom= 9.92D-01 WtEn= 7.81D-03
 Coeff-Com:  0.935D-03-0.121D-02-0.431D-03 0.152D-02-0.179D-02 0.146D-02
 Coeff-Com: -0.361D-01-0.102D+00-0.375D-01 0.222D+00 0.953D+00
 Coeff-En:   0.000D+00 0.000D+00 0.000D+00 0.000D+00 0.000D+00 0.000D+00
 Coeff-En:   0.000D+00 0.000D+00 0.000D+00 0.000D+00 0.100D+01
 Coeff:      0.928D-03-0.120D-02-0.428D-03 0.151D-02-0.178D-02 0.144D-02
 Coeff:     -0.358D-01-0.101D+00-0.372D-01 0.220D+00 0.954D+00
 Gap=     0.175 Goal=   None    Shift=    0.000
 RMSDP=6.38D-04 MaxDP=3.70D-02 DE=-1.51D-03 OVMax= 1.73D-02

 Cycle  12  Pass 1  IDiag  1:
 RMSU=  2.03D-04    CP:  3.61D-03  1.43D-01  5.26D-01  7.43D-01  4.01D-01
                    CP:  4.55D-01  8.46D-01  9.17D-01  1.36D+00  1.18D+00
                    CP:  1.63D+00
 E= -3010.55745754344     Delta-E=       -0.000528378879 Rises=F Damp=F
 DIIS: error= 3.12D-04 at cycle  12 NSaved=  12.
 NSaved=12 IEnMin=12 EnMin= -3010.55745754344     IErMin=12 ErrMin= 3.12D-04
 ErrMax= 3.12D-04  0.00D+00 EMaxC= 1.00D-01 BMatC= 2.30D-05 BMatP= 1.33D-04
 IDIUse=3 WtCom= 9.97D-01 WtEn= 3.12D-03
 Coeff-Com:  0.291D-03-0.259D-03-0.247D-04 0.804D-03 0.761D-03-0.157D-02
 Coeff-Com:  0.150D-02 0.486D-02-0.430D-01-0.248D+00 0.216D+00 0.107D+01
 Coeff-En:   0.000D+00 0.000D+00 0.000D+00 0.000D+00 0.000D+00 0.000D+00
 Coeff-En:   0.000D+00 0.000D+00 0.000D+00 0.000D+00 0.000D+00 0.100D+01
 Coeff:      0.290D-03-0.258D-03-0.246D-04 0.802D-03 0.759D-03-0.157D-02
 Coeff:      0.149D-02 0.484D-02-0.429D-01-0.248D+00 0.216D+00 0.107D+01
 Gap=     0.174 Goal=   None    Shift=    0.000
 RMSDP=4.45D-04 MaxDP=1.54D-02 DE=-5.28D-04 OVMax= 1.59D-02

 Cycle  13  Pass 1  IDiag  1:
 RMSU=  9.70D-05    CP:  3.61D-03  1.43D-01  5.25D-01  7.46D-01  4.03D-01
                    CP:  4.55D-01  8.38D-01  9.11D-01  1.47D+00  1.22D+00
                    CP:  2.24D+00  1.59D+00
 E= -3010.55766987630     Delta-E=       -0.000212332864 Rises=F Damp=F
 DIIS: error= 1.75D-04 at cycle  13 NSaved=  13.
 NSaved=13 IEnMin=13 EnMin= -3010.55766987630     IErMin=13 ErrMin= 1.75D-04
 ErrMax= 1.75D-04  0.00D+00 EMaxC= 1.00D-01 BMatC= 4.87D-06 BMatP= 2.30D-05
 IDIUse=3 WtCom= 9.98D-01 WtEn= 1.75D-03
 Coeff-Com:  0.203D-04-0.541D-04 0.547D-04-0.426D-03 0.270D-03-0.123D-02
 Coeff-Com:  0.586D-02 0.115D-01 0.516D-02-0.231D-01-0.104D+00 0.295D-01
 Coeff-Com:  0.108D+01
 Coeff-En:   0.000D+00 0.000D+00 0.000D+00 0.000D+00 0.000D+00 0.000D+00
 Coeff-En:   0.000D+00 0.000D+00 0.000D+00 0.000D+00 0.000D+00 0.000D+00
 Coeff-En:   0.100D+01
 Coeff:      0.203D-04-0.540D-04 0.546D-04-0.425D-03 0.269D-03-0.123D-02
 Coeff:      0.585D-02 0.114D-01 0.515D-02-0.231D-01-0.103D+00 0.294D-01
 Coeff:      0.108D+01
 Gap=     0.174 Goal=   None    Shift=    0.000
 RMSDP=2.11D-04 MaxDP=9.74D-03 DE=-2.12D-04 OVMax= 9.69D-03

 Cycle  14  Pass 1  IDiag  1:
 RMSU=  5.06D-05    CP:  3.61D-03  1.42D-01  5.25D-01  7.47D-01  4.04D-01
                    CP:  4.54D-01  8.35D-01  8.99D-01  1.52D+00  1.25D+00
                    CP:  2.44D+00  1.93D+00  1.84D+00
 E= -3010.55773424334     Delta-E=       -0.000064367035 Rises=F Damp=F
 DIIS: error= 1.11D-04 at cycle  14 NSaved=  14.
 NSaved=14 IEnMin=14 EnMin= -3010.55773424334     IErMin=14 ErrMin= 1.11D-04
 ErrMax= 1.11D-04  0.00D+00 EMaxC= 1.00D-01 BMatC= 2.76D-06 BMatP= 4.87D-06
 IDIUse=3 WtCom= 9.99D-01 WtEn= 1.11D-03
 Coeff-Com:  0.557D-04-0.969D-04 0.220D-04-0.284D-03-0.299D-04-0.978D-03
 Coeff-Com:  0.140D-02-0.177D-02 0.149D-01 0.829D-01-0.820D-01-0.348D+00
 Coeff-Com:  0.271D+00 0.106D+01
 Coeff-En:   0.000D+00 0.000D+00 0.000D+00 0.000D+00 0.000D+00 0.000D+00
 Coeff-En:   0.000D+00 0.000D+00 0.000D+00 0.000D+00 0.000D+00 0.000D+00
 Coeff-En:   0.000D+00 0.100D+01
 Coeff:      0.556D-04-0.968D-04 0.220D-04-0.284D-03-0.299D-04-0.977D-03
 Coeff:      0.140D-02-0.177D-02 0.148D-01 0.828D-01-0.819D-01-0.348D+00
 Coeff:      0.270D+00 0.106D+01
 Gap=     0.174 Goal=   None    Shift=    0.000
 RMSDP=1.67D-04 MaxDP=6.62D-03 DE=-6.44D-05 OVMax= 9.14D-03

 Cycle  15  Pass 1  IDiag  1:
 RMSU=  2.49D-05    CP:  3.61D-03  1.42D-01  5.25D-01  7.47D-01  4.04D-01
                    CP:  4.53D-01  8.34D-01  8.89D-01  1.56D+00  1.26D+00
                    CP:  2.61D+00  2.12D+00  2.70D+00  1.73D+00
 E= -3010.55777259471     Delta-E=       -0.000038351372 Rises=F Damp=F
 DIIS: error= 8.45D-05 at cycle  15 NSaved=  15.
 NSaved=15 IEnMin=15 EnMin= -3010.55777259471     IErMin=15 ErrMin= 8.45D-05
 ErrMax= 8.45D-05  0.00D+00 EMaxC= 1.00D-01 BMatC= 9.62D-07 BMatP= 2.76D-06
 IDIUse=1 WtCom= 1.00D+00 WtEn= 0.00D+00
 Coeff-Com:  0.360D-04-0.467D-04 0.544D-05 0.164D-03-0.582D-04-0.334D-03
 Coeff-Com: -0.134D-02-0.684D-02 0.162D-02 0.374D-01 0.113D-01-0.149D+00
 Coeff-Com: -0.426D+00 0.360D+00 0.117D+01
 Coeff:      0.360D-04-0.467D-04 0.544D-05 0.164D-03-0.582D-04-0.334D-03
 Coeff:     -0.134D-02-0.684D-02 0.162D-02 0.374D-01 0.113D-01-0.149D+00
 Coeff:     -0.426D+00 0.360D+00 0.117D+01
 Gap=     0.174 Goal=   None    Shift=    0.000
 RMSDP=1.91D-04 MaxDP=8.97D-03 DE=-3.84D-05 OVMax= 1.03D-02

 Cycle  16  Pass 1  IDiag  1:
 RMSU=  5.49D-05    CP:  3.61D-03  1.42D-01  5.25D-01  7.48D-01  4.04D-01
                    CP:  4.53D-01  8.31D-01  8.79D-01  1.60D+00  1.30D+00
                    CP:  2.78D+00  2.39D+00  3.00D+00  2.60D+00  1.72D+00
 E= -3010.55779440869     Delta-E=       -0.000021813984 Rises=F Damp=F
 DIIS: error= 3.28D-05 at cycle  16 NSaved=  16.
 NSaved=16 IEnMin=16 EnMin= -3010.55779440869     IErMin=16 ErrMin= 3.28D-05
 ErrMax= 3.28D-05  0.00D+00 EMaxC= 1.00D-01 BMatC= 2.66D-07 BMatP= 9.62D-07
 IDIUse=1 WtCom= 1.00D+00 WtEn= 0.00D+00
 Coeff-Com:  0.608D-05 0.161D-05-0.289D-05 0.702D-04-0.555D-04-0.109D-03
 Coeff-Com: -0.258D-03-0.679D-03-0.307D-02-0.123D-01 0.257D-01 0.551D-01
 Coeff-Com: -0.161D+00-0.240D+00 0.283D+00 0.105D+01
 Coeff:      0.608D-05 0.161D-05-0.289D-05 0.702D-04-0.555D-04-0.109D-03
 Coeff:     -0.258D-03-0.679D-03-0.307D-02-0.123D-01 0.257D-01 0.551D-01
 Coeff:     -0.161D+00-0.240D+00 0.283D+00 0.105D+01
 Gap=     0.174 Goal=   None    Shift=    0.000
 RMSDP=8.14D-05 MaxDP=3.45D-03 DE=-2.18D-05 OVMax= 4.62D-03

 Cycle  17  Pass 1  IDiag  1:
 RMSU=  1.31D-05    CP:  3.61D-03  1.42D-01  5.25D-01  7.48D-01  4.04D-01
                    CP:  4.53D-01  8.30D-01  8.73D-01  1.62D+00  1.31D+00
                    CP:  2.87D+00  2.47D+00  3.00D+00  3.00D+00  2.25D+00
                    CP:  1.64D+00
 E= -3010.55779830640     Delta-E=       -0.000003897706 Rises=F Damp=F
 DIIS: error= 1.40D-05 at cycle  17 NSaved=  17.
 NSaved=17 IEnMin=17 EnMin= -3010.55779830640     IErMin=17 ErrMin= 1.40D-05
 ErrMax= 1.40D-05  0.00D+00 EMaxC= 1.00D-01 BMatC= 5.56D-08 BMatP= 2.66D-07
 IDIUse=1 WtCom= 1.00D+00 WtEn= 0.00D+00
 Coeff-Com:  0.610D-05-0.276D-05-0.315D-05-0.293D-04-0.105D-04-0.642D-04
 Coeff-Com:  0.298D-03 0.131D-02-0.164D-02-0.124D-01 0.858D-02 0.556D-01
 Coeff-Com:  0.516D-01-0.203D+00-0.167D+00 0.374D+00 0.892D+00
 Coeff:      0.610D-05-0.276D-05-0.315D-05-0.293D-04-0.105D-04-0.642D-04
 Coeff:      0.298D-03 0.131D-02-0.164D-02-0.124D-01 0.858D-02 0.556D-01
 Coeff:      0.516D-01-0.203D+00-0.167D+00 0.374D+00 0.892D+00
 Gap=     0.174 Goal=   None    Shift=    0.000
 RMSDP=3.00D-05 MaxDP=1.43D-03 DE=-3.90D-06 OVMax= 1.68D-03

 Cycle  18  Pass 1  IDiag  1:
 RMSU=  7.41D-06    CP:  3.61D-03  1.42D-01  5.25D-01  7.48D-01  4.04D-01
                    CP:  4.53D-01  8.30D-01  8.71D-01  1.62D+00  1.31D+00
                    CP:  2.90D+00  2.50D+00  3.00D+00  3.00D+00  2.46D+00
                    CP:  1.88D+00  1.43D+00
 E= -3010.55779885198     Delta-E=       -0.000000545582 Rises=F Damp=F
 DIIS: error= 4.83D-06 at cycle  18 NSaved=  18.
 NSaved=18 IEnMin=18 EnMin= -3010.55779885198     IErMin=18 ErrMin= 4.83D-06
 ErrMax= 4.83D-06  0.00D+00 EMaxC= 1.00D-01 BMatC= 5.78D-09 BMatP= 5.56D-08
 IDIUse=1 WtCom= 1.00D+00 WtEn= 0.00D+00
 Coeff-Com:  0.452D-05-0.809D-05-0.143D-05-0.335D-04 0.961D-05-0.182D-04
 Coeff-Com:  0.688D-04 0.292D-03 0.264D-03 0.835D-03-0.359D-02-0.452D-02
 Coeff-Com:  0.373D-01-0.128D-02-0.478D-01-0.147D+00 0.146D+00 0.102D+01
 Coeff:      0.452D-05-0.809D-05-0.143D-05-0.335D-04 0.961D-05-0.182D-04
 Coeff:      0.688D-04 0.292D-03 0.264D-03 0.835D-03-0.359D-02-0.452D-02
 Coeff:      0.373D-01-0.128D-02-0.478D-01-0.147D+00 0.146D+00 0.102D+01
 Gap=     0.174 Goal=   None    Shift=    0.000
 RMSDP=1.22D-05 MaxDP=7.14D-04 DE=-5.46D-07 OVMax= 5.76D-04

 Cycle  19  Pass 1  IDiag  1:
 RMSU=  1.93D-06    CP:  3.61D-03  1.42D-01  5.25D-01  7.48D-01  4.04D-01
                    CP:  4.53D-01  8.30D-01  8.71D-01  1.63D+00  1.31D+00
                    CP:  2.91D+00  2.52D+00  3.00D+00  3.00D+00  2.51D+00
                    CP:  1.96D+00  1.67D+00  1.29D+00
 E= -3010.55779892315     Delta-E=       -0.000000071170 Rises=F Damp=F
 DIIS: error= 2.04D-06 at cycle  19 NSaved=  19.
 NSaved=19 IEnMin=19 EnMin= -3010.55779892315     IErMin=19 ErrMin= 2.04D-06
 ErrMax= 2.04D-06  0.00D+00 EMaxC= 1.00D-01 BMatC= 2.07D-09 BMatP= 5.78D-09
 IDIUse=1 WtCom= 1.00D+00 WtEn= 0.00D+00
 Coeff-Com:  0.541D-05-0.980D-05-0.656D-06-0.110D-04 0.746D-05 0.327D-05
 Coeff-Com: -0.520D-04-0.535D-04 0.365D-03 0.195D-02-0.233D-02-0.897D-02
 Coeff-Com:  0.102D-01 0.187D-01 0.909D-02-0.998D-01-0.862D-01 0.321D+00
 Coeff-Com:  0.836D+00
 Coeff:      0.541D-05-0.980D-05-0.656D-06-0.110D-04 0.746D-05 0.327D-05
 Coeff:     -0.520D-04-0.535D-04 0.365D-03 0.195D-02-0.233D-02-0.897D-02
 Coeff:      0.102D-01 0.187D-01 0.909D-02-0.998D-01-0.862D-01 0.321D+00
 Coeff:      0.836D+00
 Gap=     0.174 Goal=   None    Shift=    0.000
 RMSDP=4.14D-06 MaxDP=2.89D-04 DE=-7.12D-08 OVMax= 1.50D-04

 Cycle  20  Pass 1  IDiag  1:
 RMSU=  6.66D-07    CP:  3.61D-03  1.42D-01  5.25D-01  7.48D-01  4.04D-01
                    CP:  4.53D-01  8.30D-01  8.71D-01  1.63D+00  1.31D+00
                    CP:  2.92D+00  2.52D+00  3.00D+00  3.00D+00  2.52D+00
                    CP:  1.99D+00  1.77D+00  1.41D+00  1.42D+00
 E= -3010.55779893519     Delta-E=       -0.000000012042 Rises=F Damp=F
 DIIS: error= 1.87D-06 at cycle  20 NSaved=  20.
 NSaved=20 IEnMin=20 EnMin= -3010.55779893519     IErMin=20 ErrMin= 1.87D-06
 ErrMax= 1.87D-06  0.00D+00 EMaxC= 1.00D-01 BMatC= 9.43D-10 BMatP= 2.07D-09
 IDIUse=1 WtCom= 1.00D+00 WtEn= 0.00D+00
 Coeff-Com:  0.320D-05-0.428D-05-0.868D-06 0.472D-05 0.131D-05 0.534D-05
 Coeff-Com: -0.551D-04-0.930D-04 0.242D-04 0.762D-04 0.302D-03-0.246D-02
 Coeff-Com: -0.816D-02 0.243D-02 0.249D-01 0.261D-01-0.764D-01-0.228D+00
 Coeff-Com:  0.135D+00 0.113D+01
 Coeff:      0.320D-05-0.428D-05-0.868D-06 0.472D-05 0.131D-05 0.534D-05
 Coeff:     -0.551D-04-0.930D-04 0.242D-04 0.762D-04 0.302D-03-0.246D-02
 Coeff:     -0.816D-02 0.243D-02 0.249D-01 0.261D-01-0.764D-01-0.228D+00
 Coeff:      0.135D+00 0.113D+01
 Gap=     0.174 Goal=   None    Shift=    0.000
 RMSDP=3.34D-06 MaxDP=2.37D-04 DE=-1.20D-08 OVMax= 8.93D-05

 Cycle  21  Pass 1  IDiag  1:
 Restarting incremental Fock formation.
 E= -3010.55779894056     Delta-E=       -0.000000005368 Rises=F Damp=F
 DIIS: error= 1.10D-06 at cycle  21 NSaved=  20.
 NSaved=20 IEnMin=20 EnMin= -3010.55779894056     IErMin=20 ErrMin= 1.10D-06
 ErrMax= 1.10D-06  0.00D+00 EMaxC= 1.00D-01 BMatC= 2.03D-10 BMatP= 9.43D-10
 IDIUse=1 WtCom= 1.00D+00 WtEn= 0.00D+00
 Coeff-Com:  0.103D-05-0.705D-06 0.267D-05-0.168D-05 0.452D-05 0.137D-04
 Coeff-Com:  0.565D-04-0.691D-04-0.643D-03 0.684D-03 0.189D-02 0.501D-03
 Coeff-Com: -0.621D-02-0.606D-02 0.283D-01 0.213D-01-0.868D-01-0.302D+00
 Coeff-Com:  0.296D+00 0.105D+01
 Coeff:      0.103D-05-0.705D-06 0.267D-05-0.168D-05 0.452D-05 0.137D-04
 Coeff:      0.565D-04-0.691D-04-0.643D-03 0.684D-03 0.189D-02 0.501D-03
 Coeff:     -0.621D-02-0.606D-02 0.283D-01 0.213D-01-0.868D-01-0.302D+00
 Coeff:      0.296D+00 0.105D+01
 Gap=     0.174 Goal=   None    Shift=    0.000
 RMSDP=1.60D-06 MaxDP=1.15D-04 DE=-5.37D-09 OVMax= 5.13D-05

 Cycle  22  Pass 1  IDiag  1:
 RMSU=  1.22D-06    CP:  1.00D+00
 E= -3010.55779894219     Delta-E=       -0.000000001631 Rises=F Damp=F
 DIIS: error= 6.21D-07 at cycle  22 NSaved=  20.
 NSaved=20 IEnMin=20 EnMin= -3010.55779894219     IErMin=20 ErrMin= 6.21D-07
 ErrMax= 6.21D-07  0.00D+00 EMaxC= 1.00D-01 BMatC= 5.88D-11 BMatP= 2.03D-10
 IDIUse=1 WtCom= 1.00D+00 WtEn= 0.00D+00
 Coeff-Com: -0.180D-06-0.159D-05-0.603D-06 0.112D-05 0.108D-04 0.406D-04
 Coeff-Com: -0.589D-05-0.704D-04-0.586D-04 0.299D-03 0.221D-02-0.591D-03
 Coeff-Com: -0.670D-02-0.244D-02 0.198D-01 0.476D-01-0.599D-01-0.243D+00
 Coeff-Com: -0.217D-01 0.126D+01
 Coeff:     -0.180D-06-0.159D-05-0.603D-06 0.112D-05 0.108D-04 0.406D-04
 Coeff:     -0.589D-05-0.704D-04-0.586D-04 0.299D-03 0.221D-02-0.591D-03
 Coeff:     -0.670D-02-0.244D-02 0.198D-01 0.476D-01-0.599D-01-0.243D+00
 Coeff:     -0.217D-01 0.126D+01
 Gap=     0.174 Goal=   None    Shift=    0.000
 RMSDP=1.10D-06 MaxDP=7.68D-05 DE=-1.63D-09 OVMax= 3.70D-05

 Cycle  23  Pass 1  IDiag  1:
 RMSU=  3.02D-07    CP:  1.00D+00  1.70D+00
 E= -3010.55779894269     Delta-E=       -0.000000000500 Rises=F Damp=F
 DIIS: error= 2.88D-07 at cycle  23 NSaved=  20.
 NSaved=20 IEnMin=20 EnMin= -3010.55779894269     IErMin=20 ErrMin= 2.88D-07
 ErrMax= 2.88D-07  0.00D+00 EMaxC= 1.00D-01 BMatC= 9.93D-12 BMatP= 5.88D-11
 IDIUse=1 WtCom= 1.00D+00 WtEn= 0.00D+00
 Coeff-Com: -0.544D-06 0.325D-06-0.332D-06-0.545D-07 0.628D-05 0.457D-05
 Coeff-Com:  0.401D-04-0.115D-03-0.705D-04 0.864D-03 0.168D-03-0.172D-02
 Coeff-Com: -0.341D-02 0.464D-02 0.242D-01 0.272D-01-0.106D+00-0.185D+00
 Coeff-Com:  0.218D+00 0.102D+01
 Coeff:     -0.544D-06 0.325D-06-0.332D-06-0.545D-07 0.628D-05 0.457D-05
 Coeff:      0.401D-04-0.115D-03-0.705D-04 0.864D-03 0.168D-03-0.172D-02
 Coeff:     -0.341D-02 0.464D-02 0.242D-01 0.272D-01-0.106D+00-0.185D+00
 Coeff:      0.218D+00 0.102D+01
 Gap=     0.174 Goal=   None    Shift=    0.000
 RMSDP=4.39D-07 MaxDP=2.89D-05 DE=-5.00D-10 OVMax= 1.75D-05

 Cycle  24  Pass 1  IDiag  1:
 RMSU=  1.16D-07    CP:  1.00D+00  1.98D+00  1.47D+00
 E= -3010.55779894284     Delta-E=       -0.000000000148 Rises=F Damp=F
 DIIS: error= 1.53D-07 at cycle  24 NSaved=  20.
 NSaved=20 IEnMin=20 EnMin= -3010.55779894284     IErMin=20 ErrMin= 1.53D-07
 ErrMax= 1.53D-07  0.00D+00 EMaxC= 1.00D-01 BMatC= 1.58D-12 BMatP= 9.93D-12
 IDIUse=1 WtCom= 1.00D+00 WtEn= 0.00D+00
 Coeff-Com: -0.211D-06-0.197D-06-0.218D-05-0.552D-05 0.247D-05 0.181D-04
 Coeff-Com: -0.261D-05-0.285D-04-0.266D-03 0.545D-04 0.106D-02-0.112D-03
 Coeff-Com: -0.373D-02-0.716D-02 0.182D-01 0.476D-01-0.152D-01-0.280D+00
 Coeff-Com:  0.128D+00 0.111D+01
 Coeff:     -0.211D-06-0.197D-06-0.218D-05-0.552D-05 0.247D-05 0.181D-04
 Coeff:     -0.261D-05-0.285D-04-0.266D-03 0.545D-04 0.106D-02-0.112D-03
 Coeff:     -0.373D-02-0.716D-02 0.182D-01 0.476D-01-0.152D-01-0.280D+00
 Coeff:      0.128D+00 0.111D+01
 Gap=     0.174 Goal=   None    Shift=    0.000
 RMSDP=1.56D-07 MaxDP=1.14D-05 DE=-1.48D-10 OVMax= 8.37D-06

 Cycle  25  Pass 1  IDiag  1:
 RMSU=  6.25D-08    CP:  1.00D+00  2.06D+00  1.57D+00  1.52D+00
 E= -3010.55779894283     Delta-E=        0.000000000010 Rises=F Damp=F
 DIIS: error= 6.50D-08 at cycle  25 NSaved=  20.
 NSaved=20 IEnMin=19 EnMin= -3010.55779894284     IErMin=20 ErrMin= 6.50D-08
 ErrMax= 6.50D-08  0.00D+00 EMaxC= 1.00D-01 BMatC= 5.89D-13 BMatP= 1.58D-12
 IDIUse=1 WtCom= 1.00D+00 WtEn= 0.00D+00
 Coeff-Com:  0.272D-06 0.168D-05 0.655D-06-0.455D-05-0.178D-04 0.204D-04
 Coeff-Com:  0.768D-04-0.213D-03-0.740D-04 0.297D-03 0.603D-03-0.846D-03
 Coeff-Com: -0.503D-02-0.433D-02 0.196D-01 0.400D-01-0.542D-01-0.197D+00
 Coeff-Com:  0.357D-01 0.117D+01
 Coeff:      0.272D-06 0.168D-05 0.655D-06-0.455D-05-0.178D-04 0.204D-04
 Coeff:      0.768D-04-0.213D-03-0.740D-04 0.297D-03 0.603D-03-0.846D-03
 Coeff:     -0.503D-02-0.433D-02 0.196D-01 0.400D-01-0.542D-01-0.197D+00
 Coeff:      0.357D-01 0.117D+01
 Gap=     0.174 Goal=   None    Shift=    0.000
 RMSDP=9.66D-08 MaxDP=7.83D-06 DE= 1.05D-11 OVMax= 3.99D-06

 Cycle  26  Pass 1  IDiag  1:
 RMSU=  4.22D-08    CP:  1.00D+00  2.10D+00  1.54D+00  1.87D+00  1.77D+00
 E= -3010.55779894282     Delta-E=        0.000000000011 Rises=F Damp=F
 DIIS: error= 3.78D-08 at cycle  26 NSaved=  20.
 NSaved=20 IEnMin=18 EnMin= -3010.55779894284     IErMin=20 ErrMin= 3.78D-08
 ErrMax= 3.78D-08  0.00D+00 EMaxC= 1.00D-01 BMatC= 1.57D-13 BMatP= 5.89D-13
 IDIUse=1 WtCom= 1.00D+00 WtEn= 0.00D+00
 Coeff-Com:  0.151D-05 0.345D-05-0.195D-05-0.978D-05-0.128D-04 0.513D-04
 Coeff-Com:  0.119D-03 0.539D-05-0.434D-03-0.357D-03 0.118D-02 0.310D-02
 Coeff-Com: -0.158D-02-0.190D-01 0.105D-02 0.710D-01-0.111D-01-0.329D+00
 Coeff-Com:  0.126D+00 0.116D+01
 Coeff:      0.151D-05 0.345D-05-0.195D-05-0.978D-05-0.128D-04 0.513D-04
 Coeff:      0.119D-03 0.539D-05-0.434D-03-0.357D-03 0.118D-02 0.310D-02
 Coeff:     -0.158D-02-0.190D-01 0.105D-02 0.710D-01-0.111D-01-0.329D+00
 Coeff:      0.126D+00 0.116D+01
 Gap=     0.174 Goal=   None    Shift=    0.000
 RMSDP=4.87D-08 MaxDP=3.82D-06 DE= 1.14D-11 OVMax= 2.36D-06

 Cycle  27  Pass 1  IDiag  1:
 RMSU=  1.58D-08    CP:  1.00D+00  2.12D+00  1.50D+00  2.02D+00  2.19D+00
                    CP:  1.33D+00
 E= -3010.55779894283     Delta-E=       -0.000000000015 Rises=F Damp=F
 DIIS: error= 1.63D-08 at cycle  27 NSaved=  20.
 NSaved=20 IEnMin=17 EnMin= -3010.55779894284     IErMin=20 ErrMin= 1.63D-08
 ErrMax= 1.63D-08  0.00D+00 EMaxC= 1.00D-01 BMatC= 4.04D-14 BMatP= 1.57D-13
 IDIUse=1 WtCom= 1.00D+00 WtEn= 0.00D+00
 Coeff-Com: -0.929D-07-0.481D-06 0.743D-06-0.381D-05 0.996D-06 0.971D-06
 Coeff-Com:  0.487D-04-0.628D-04-0.439D-04 0.412D-03 0.999D-03 0.681D-03
 Coeff-Com: -0.105D-01-0.456D-02 0.316D-01 0.286D-01-0.143D+00-0.165D+00
 Coeff-Com:  0.334D+00 0.927D+00
 Coeff:     -0.929D-07-0.481D-06 0.743D-06-0.381D-05 0.996D-06 0.971D-06
 Coeff:      0.487D-04-0.628D-04-0.439D-04 0.412D-03 0.999D-03 0.681D-03
 Coeff:     -0.105D-01-0.456D-02 0.316D-01 0.286D-01-0.143D+00-0.165D+00
 Coeff:      0.334D+00 0.927D+00
 Gap=     0.174 Goal=   None    Shift=    0.000
 RMSDP=2.74D-08 MaxDP=2.16D-06 DE=-1.55D-11 OVMax= 1.51D-06

 Cycle  28  Pass 1  IDiag  1:
 RMSU=  7.20D-09    CP:  1.00D+00  2.13D+00  1.52D+00  2.06D+00  2.33D+00
                    CP:  1.33D+00  1.57D+00
 E= -3010.55779894287     Delta-E=       -0.000000000033 Rises=F Damp=F
 DIIS: error= 5.92D-09 at cycle  28 NSaved=  20.
 NSaved=20 IEnMin=20 EnMin= -3010.55779894287     IErMin=20 ErrMin= 5.92D-09
 ErrMax= 5.92D-09  0.00D+00 EMaxC= 1.00D-01 BMatC= 8.42D-15 BMatP= 4.04D-14
 IDIUse=1 WtCom= 1.00D+00 WtEn= 0.00D+00
 Coeff-Com: -0.101D-06-0.173D-05 0.223D-05 0.885D-05-0.427D-05-0.320D-04
 Coeff-Com: -0.153D-04 0.151D-03 0.722D-04-0.368D-03-0.183D-03 0.148D-03
 Coeff-Com:  0.275D-03-0.648D-02 0.145D-01 0.264D-01-0.883D-01-0.122D+00
 Coeff-Com:  0.229D+00 0.947D+00
 Coeff:     -0.101D-06-0.173D-05 0.223D-05 0.885D-05-0.427D-05-0.320D-04
 Coeff:     -0.153D-04 0.151D-03 0.722D-04-0.368D-03-0.183D-03 0.148D-03
 Coeff:      0.275D-03-0.648D-02 0.145D-01 0.264D-01-0.883D-01-0.122D+00
 Coeff:      0.229D+00 0.947D+00
 Gap=     0.174 Goal=   None    Shift=    0.000
 RMSDP=1.04D-08 MaxDP=9.02D-07 DE=-3.27D-11 OVMax= 4.38D-07

 Cycle  29  Pass 1  IDiag  1:
 RMSU=  2.72D-09    CP:  1.00D+00  2.14D+00  1.52D+00  2.06D+00  2.39D+00
                    CP:  1.36D+00  1.80D+00  1.05D+00
 E= -3010.55779894284     Delta-E=        0.000000000023 Rises=F Damp=F
 DIIS: error= 2.41D-09 at cycle  29 NSaved=  20.
 NSaved=20 IEnMin=19 EnMin= -3010.55779894287     IErMin=20 ErrMin= 2.41D-09
 ErrMax= 2.41D-09  0.00D+00 EMaxC= 1.00D-01 BMatC= 1.59D-15 BMatP= 8.42D-15
 IDIUse=1 WtCom= 1.00D+00 WtEn= 0.00D+00
 Large coefficients: NSaved= 20 BigCof=    0.00 CofMax=   10.00 Det=-2.45D-15
 Inversion failed.  Reducing to 19 matrices.
 Large coefficients: NSaved= 19 BigCof=    0.00 CofMax=   10.00 Det=-3.12D-15
 Inversion failed.  Reducing to 18 matrices.
 Large coefficients: NSaved= 18 BigCof=    0.00 CofMax=   10.00 Det=-3.17D-15
 Inversion failed.  Reducing to 17 matrices.
 Large coefficients: NSaved= 17 BigCof=    0.00 CofMax=   10.00 Det=-3.41D-15
 Inversion failed.  Reducing to 16 matrices.
 Large coefficients: NSaved= 16 BigCof=    0.00 CofMax=   10.00 Det=-3.42D-15
 Inversion failed.  Reducing to 15 matrices.
 Coeff-Com:  0.811D-05-0.181D-04-0.827D-04-0.778D-04 0.971D-04 0.183D-02
 Coeff-Com:  0.556D-04-0.387D-02-0.421D-03 0.189D-01 0.155D-01-0.636D-01
 Coeff-Com: -0.134D+00 0.917D-01 0.107D+01
 Coeff:      0.811D-05-0.181D-04-0.827D-04-0.778D-04 0.971D-04 0.183D-02
 Coeff:      0.556D-04-0.387D-02-0.421D-03 0.189D-01 0.155D-01-0.636D-01
 Coeff:     -0.134D+00 0.917D-01 0.107D+01
 Gap=     0.174 Goal=   None    Shift=    0.000
 RMSDP=3.24D-09 MaxDP=1.67D-07 DE= 2.27D-11 OVMax= 1.98D-07

 SCF Done:  E(RwB97XD) =  -3010.55779894     A.U. after   29 cycles
            NFock= 29  Conv=0.32D-08     -V/T= 2.0016
 KE= 3.005853756455D+03 PE=-8.628010139478D+03 EE= 1.876603161239D+03
 Leave Link  502 at Wed May  1 14:56:56 2024, MaxMem=  1207959552 cpu:            1692.3 elap:            1692.4
 (Enter /software/gaussian/g16-c01/sse4/g16/l601.exe)
 Copying SCF densities to generalized density rwf, IOpCl= 0 IROHF=0.

 **********************************************************************

            Population analysis using the SCF Density.

 **********************************************************************

 Alpha  occ. eigenvalues -- -483.29849 -62.84902 -56.64549 -56.64043 -56.64037
 Alpha  occ. eigenvalues --  -19.35029 -19.34972 -14.74501 -10.56407 -10.54242
 Alpha  occ. eigenvalues --  -10.53197 -10.52280 -10.51557 -10.50883  -9.00728
 Alpha  occ. eigenvalues --   -6.83279  -6.81609  -6.81585  -2.93213  -2.92770
 Alpha  occ. eigenvalues --   -2.92749  -2.91413  -2.91412  -1.38638  -1.21503
 Alpha  occ. eigenvalues --   -1.19158  -1.10522  -1.07976  -1.02136  -0.95124
 Alpha  occ. eigenvalues --   -0.91972  -0.86425  -0.80907  -0.76624  -0.75562
 Alpha  occ. eigenvalues --   -0.73133  -0.71677  -0.70278  -0.68310  -0.65837
 Alpha  occ. eigenvalues --   -0.65528  -0.62988  -0.60358  -0.57361  -0.55525
 Alpha  occ. eigenvalues --   -0.52722  -0.45672  -0.44123  -0.44082
 Alpha virt. eigenvalues --   -0.26645  -0.16128  -0.14965  -0.13449  -0.11392
 Alpha virt. eigenvalues --   -0.09369  -0.07938  -0.06722  -0.04031  -0.03593
 Alpha virt. eigenvalues --   -0.02614  -0.01240  -0.00269   0.00227   0.01063
 Alpha virt. eigenvalues --    0.02389   0.03196   0.03324   0.04080   0.04659
 Alpha virt. eigenvalues --    0.05768   0.07404   0.08293   0.08461   0.09517
 Alpha virt. eigenvalues --    0.10201   0.10750   0.12055   0.12267   0.13210
 Alpha virt. eigenvalues --    0.14764   0.15438   0.15748   0.16702   0.17580
 Alpha virt. eigenvalues --    0.18505   0.19625   0.20088   0.21740   0.22988
 Alpha virt. eigenvalues --    0.23522   0.24263   0.26152   0.26359   0.28177
 Alpha virt. eigenvalues --    0.29619   0.30614   0.30870   0.31541   0.32101
 Alpha virt. eigenvalues --    0.33216   0.33597   0.35418   0.36077   0.37334
 Alpha virt. eigenvalues --    0.38110   0.39255   0.40093   0.41320   0.42226
 Alpha virt. eigenvalues --    0.43463   0.44392   0.44974   0.46595   0.47536
 Alpha virt. eigenvalues --    0.49342   0.49430   0.50494   0.50806   0.52238
 Alpha virt. eigenvalues --    0.53731   0.54063   0.54769   0.56232   0.57751
 Alpha virt. eigenvalues --    0.59496   0.60263   0.61043   0.62920   0.64541
 Alpha virt. eigenvalues --    0.65516   0.66782   0.67309   0.69132   0.70052
 Alpha virt. eigenvalues --    0.72948   0.74525   0.75995   0.76715   0.78435
 Alpha virt. eigenvalues --    0.81544   0.84438   0.86904   0.88633   0.89216
 Alpha virt. eigenvalues --    0.90176   0.94388   0.97447   1.00606   1.05769
 Alpha virt. eigenvalues --    1.06296   1.08813   1.09505   1.11382   1.13423
 Alpha virt. eigenvalues --    1.15702   1.19030   1.23191   1.24112   1.26983
 Alpha virt. eigenvalues --    1.30813   1.33082   1.34746   1.37210   1.40538
 Alpha virt. eigenvalues --    1.41183   1.41593   1.48657   1.59000   1.61742
 Alpha virt. eigenvalues --    1.63052   1.63305   1.67514   1.69239   1.70389
 Alpha virt. eigenvalues --    1.74108   1.76721   1.77253   1.82141   1.83434
 Alpha virt. eigenvalues --    1.84755   1.91788   1.92533   1.94839   1.97523
 Alpha virt. eigenvalues --    2.03350   2.07447   2.08508   2.11250   2.12529
 Alpha virt. eigenvalues --    2.13847   2.18480   2.24171   2.28784   2.33058
 Alpha virt. eigenvalues --    2.41749   2.47358   2.48678   2.50170   2.56034
 Alpha virt. eigenvalues --    2.60239   2.67236   2.70177   2.72569   2.78914
 Alpha virt. eigenvalues --    2.82798   2.84297   2.86287   2.87171   2.92264
 Alpha virt. eigenvalues --    2.96759   3.00319   3.08615   3.11697   3.13763
 Alpha virt. eigenvalues --    3.16692   3.19613   3.23518   3.28305   3.34063
 Alpha virt. eigenvalues --    3.38755   3.45534   3.51078   3.57255   3.61383
 Alpha virt. eigenvalues --    3.66595   3.80535   3.85151   3.86108   3.91366
 Alpha virt. eigenvalues --    4.09998   4.10242   4.18034   4.23149   4.44065
 Alpha virt. eigenvalues --    4.55836   4.61065   4.69679   5.04744   5.07525
 Alpha virt. eigenvalues --    5.16157   5.20311   5.73856   6.27235   6.65772
 Alpha virt. eigenvalues --    7.48669   7.50244   7.60191  23.24724  23.64853
 Alpha virt. eigenvalues --   23.71848  23.83442  23.99040  24.05874  35.43436
 Alpha virt. eigenvalues --   47.92505  49.96461  50.05274 289.81863 289.83531
 Alpha virt. eigenvalues --  289.960081020.92972
          Condensed to atoms (all electrons):
               1          2          3          4          5          6
     1  C   11.196920  -3.956104   0.305231  -2.486158  -1.245244   0.295287
     2  C   -3.956104  15.565513  -2.731185  -1.227278   0.447713   0.035749
     3  C    0.305231  -2.731185  14.939823  -4.848878  -1.413334   0.029530
     4  C   -2.486158  -1.227278  -4.848878  19.026072   0.965894   0.015190
     5  C   -1.245244   0.447713  -1.413334   0.965894   9.874007  -0.029385
     6  H    0.295287   0.035749   0.029530   0.015190  -0.029385   0.384366
     7  H    0.122455   0.161414   0.074480  -0.042251  -0.015313  -0.001702
     8  H    0.014299  -0.032855   0.107740   0.138986  -0.038925  -0.000004
     9  H    0.091563  -0.070921   0.027948  -0.029947   0.201988  -0.004037
    10  N   -0.311211   0.497103  -1.026662   0.485821  -0.012509  -0.000715
    11  O   -0.008807  -0.176425  -0.250281   0.054266  -0.085127  -0.000030
    12  O    0.490641  -0.036665  -0.246102  -0.244861  -0.046091   0.000126
    13  C    2.020997  -2.958058   1.713718  -6.102192  -2.582893  -0.010512
    14  H   -0.044704   0.030095  -0.022129  -0.094028   0.125723  -0.000018
    15  Br   0.022215   0.065247  -0.055759   0.063963  -0.108672  -0.000169
               7          8          9         10         11         12
     1  C    0.122455   0.014299   0.091563  -0.311211  -0.008807   0.490641
     2  C    0.161414  -0.032855  -0.070921   0.497103  -0.176425  -0.036665
     3  C    0.074480   0.107740   0.027948  -1.026662  -0.250281  -0.246102
     4  C   -0.042251   0.138986  -0.029947   0.485821   0.054266  -0.244861
     5  C   -0.015313  -0.038925   0.201988  -0.012509  -0.085127  -0.046091
     6  H   -0.001702  -0.000004  -0.004037  -0.000715  -0.000030   0.000126
     7  H    0.270685   0.000021   0.000054  -0.030143  -0.001673   0.036005
     8  H    0.000021   0.264935   0.000115  -0.026705   0.033791  -0.000554
     9  H    0.000054   0.000115   0.444919   0.000149   0.000021   0.000016
    10  N   -0.030143  -0.026705   0.000149   7.872203  -0.007741  -0.036062
    11  O   -0.001673   0.033791   0.000021  -0.007741   7.844515   0.022983
    12  O    0.036005  -0.000554   0.000016  -0.036062   0.022983   7.877534
    13  C    0.022659   0.126832   0.101719  -0.292665   0.431379   0.038741
    14  H   -0.000030  -0.002439  -0.008590   0.001817  -0.000520  -0.000092
    15  Br   0.000145   0.009648   0.002738   0.012365  -0.000364   0.002240
              13         14         15
     1  C    2.020997  -0.044704   0.022215
     2  C   -2.958058   0.030095   0.065247
     3  C    1.713718  -0.022129  -0.055759
     4  C   -6.102192  -0.094028   0.063963
     5  C   -2.582893   0.125723  -0.108672
     6  H   -0.010512  -0.000018  -0.000169
     7  H    0.022659  -0.000030   0.000145
     8  H    0.126832  -0.002439   0.009648
     9  H    0.101719  -0.008590   0.002738
    10  N   -0.292665   0.001817   0.012365
    11  O    0.431379  -0.000520  -0.000364
    12  O    0.038741  -0.000092   0.002240
    13  C   13.531357   0.319570   0.122835
    14  H    0.319570   0.383415  -0.055354
    15  Br   0.122835  -0.055354  34.863432
 Mulliken charges:
               1
     1  C   -0.507381
     2  C    0.386656
     3  C   -0.604141
     4  C    0.325402
     5  C   -0.037832
     6  H    0.286325
     7  H    0.403194
     8  H    0.405117
     9  H    0.242266
    10  N   -0.125045
    11  O    0.144012
    12  O    0.142141
    13  C   -0.483488
    14  H    0.367284
    15  Br   0.055490
 Sum of Mulliken charges =   1.00000
 Mulliken charges with hydrogens summed into heavy atoms:
               1
     1  C   -0.221056
     2  C    0.789850
     3  C   -0.604141
     4  C    0.730519
     5  C    0.204434
    10  N   -0.125045
    11  O    0.144012
    12  O    0.142141
    13  C   -0.116204
    15  Br   0.055490
 Electronic spatial extent (au):  <R**2>=           2788.3822
 Charge=              1.0000 electrons
 Dipole moment (field-independent basis, Debye):
    X=              6.1638    Y=              0.1657    Z=              0.5226  Tot=              6.1882
 Quadrupole moment (field-independent basis, Debye-Ang):
   XX=            -54.9991   YY=            -52.9348   ZZ=            -64.4821
   XY=              0.0446   XZ=             -0.7026   YZ=              0.0951
 Traceless Quadrupole moment (field-independent basis, Debye-Ang):
   XX=              2.4729   YY=              4.5372   ZZ=             -7.0101
   XY=              0.0446   XZ=             -0.7026   YZ=              0.0951
 Octapole moment (field-independent basis, Debye-Ang**2):
  XXX=           -202.5021  YYY=             93.4234  ZZZ=             81.8259  XYY=            -60.0092
  XXY=             33.4405  XXZ=             32.9493  XZZ=            -70.5396  YZZ=             20.2194
  YYZ=             28.9720  XYZ=             -0.0601
 Hexadecapole moment (field-independent basis, Debye-Ang**3):
 XXXX=          -1876.8179 YYYY=           -692.2492 ZZZZ=           -362.2726 XXXY=            -70.0934
 XXXZ=            -33.9643 YYYX=            -68.4081 YYYZ=           -166.1101 ZZZX=            -27.7970
 ZZZY=           -145.5698 XXYY=           -427.4096 XXZZ=           -366.4118 YYZZ=           -172.9141
 XXYZ=            -59.3416 YYXZ=            -10.1340 ZZXY=            -15.5794
 N-N= 7.349954228403D+02 E-N=-8.628010139723D+03  KE= 3.005853756455D+03
 No NMR shielding tensors so no spin-rotation constants.
 Leave Link  601 at Wed May  1 14:57:03 2024, MaxMem=  1207959552 cpu:               7.3 elap:               7.3
 (Enter /software/gaussian/g16-c01/sse4/g16/l9999.exe)
 Unable to Open any file for archive entry.
 1\1\GINC-BHX0004\SP\RwB97XD\6-311+G(d)\C6H5Br1N1O2(1+)\BWEIGHT\01-May-
 2024\0\\#P wB97XD/6-311+G* NoSymm #P Field=X-223\\TitleMe\\1,1\C,0,0.0
 295,1.3397,0.0682\C,0,1.4348,1.2867,0.0064\C,0,2.1118,0.0511,-0.0054\C
 ,0,1.4451,-1.1372,0.0312\C,0,-0.6879,0.1682,0.11\H,0,-0.4713,2.2984,0.
 0781\H,0,2.0273,2.1965,-0.0322\H,0,1.9897,-2.0764,0.0232\H,0,-1.7716,0
 .1804,0.1582\N,0,3.5864,0.051,-0.0675\O,0,4.1471,-1.0597,-0.0881\O,0,4
 .145,1.1639,-0.0901\C,0,-0.0236,-1.1458,0.0835\H,0,-0.4367,-1.8725,0.7
 889\Br,0,-0.5359,-1.8697,-1.7408\\Version=ES64L-G16RevC.01\HF=-3010.55
 77989\RMSD=3.240e-09\Dipole=0.5185008,1.213269,1.3517924\Quadrupole=1.
 8385402,3.3733003,-5.2118405,0.0331872,-0.5223833,0.0707048\PG=C01 [X(
 C6H5Br1N1O2)]\\@
 The archive entry for this job was punched.


 A HARD FALL SHOULD MEAN A HIGH BOUNCE 
 IF ONE IS MADE OF THE RIGHT MATERIAL.

                -- THE CHEMIST ANALYST, MARCH 1950
 Job cpu time:       0 days  0 hours 29 minutes 21.2 seconds.
 Elapsed time:       0 days  0 hours 29 minutes 21.2 seconds.
 File lengths (MBytes):  RWF=     40 Int=      0 D2E=      0 Chk=     32 Scr=      1
 Normal termination of Gaussian 16 at Wed May  1 14:57:04 2024.
