
Running Job 1 of 1 QCHEM.in
qchem QCHEM.in_15967.0 /local_scratch/16768007/QCLOCALSCR/save/ 0
/gpfs/fs2/scratch/phuo_lab/Program/Qchem/exe/qcprog.exe_s QCHEM.in_15967.0 /local_scratch/16768007/QCLOCALSCR/save/
                  Welcome to Q-Chem
     A Quantum Leap Into The Future Of Chemistry


 Q-Chem 6.0, Q-Chem, Inc., Pleasanton, CA (2022)

 License issued to: SRG Frank Huo, University of Rochester

 E. Epifanovsky,  A. T. B. Gilbert,  Xintian Feng,  Joonho Lee,  Yuezhi Mao,  
 N. Mardirossian,  P. Pokhilko,  A. White,  M. Wormit,  M. P. Coons,  
 A. L. Dempwolff,  Zhengting Gan,  D. Hait,  P. R. Horn,  L. D. Jacobson,  
 I. Kaliman,  J. Kussmann,  A. W. Lange,  Ka Un Lao,  D. S. Levine,  Jie Liu,  
 S. C. McKenzie,  A. F. Morrison,  K. Nanda,  F. Plasser,  D. R. Rehn,  
 M. L. Vidal,  Zhi-Qiang You,  Ying Zhu,  B. Alam,  B. Albrecht,  
 A. Aldossary,  E. Alguire,  J. H. Andersen,  V. Athavale,  D. Barton,  
 K. Begam,  A. Behn,  N. Bellonzi,  Y. A. Bernard,  E. J. Berquist,  
 H. Burton,  A. Carreras,  K. Carter-Fenk,  Romit Chakraborty,  
 Chandrima Chakravarty,  Junhan Chen,  A. D. Chien,  K. D. Closser,  
 V. Cofer-Shabica,  L. Cunha,  S. Dasgupta,  Jia Deng,  M. de Wergifosse,  
 M. Diedenhofen,  Hainam Do,  S. Ehlert,  Po-Tung Fang,  S. Fatehi,  
 Qingguo Feng,  T. Friedhoff,  B. Ganoe,  J. Gayvert,  Qinghui Ge,  
 G. Gidofalvi,  M. Goldey,  J. Gomes,  C. Gonzalez-Espinoza,  S. Gulania,  
 A. Gunina,  J. A. Gyamfi,  M. W. D. Hanson-Heine,  P. H. P. Harbach,  
 A. W. Hauser,  M. F. Herbst,  M. Hernandez Vera,  M. Hodecker,  
 Z. C. Holden,  S. Houck,  Xunkun Huang,  Kerwin Hui,  B. C. Huynh,  
 K. Ikeda,  M. Ivanov,  Hyunjun Ji,  Zuxin Jin,  Hanjie Jiang,  B. Kaduk,  
 S. Kaehler,  R. Kang,  K. Khistyaev,  Jaehoon Kim,  Yongbin Kim,  
 P. Klunzinger,  Z. Koczor-Benda,  Joong Hoon Koh,  D. Kosenkov,  
 Saikiran Kotaru,  L. Koulias,  T. Kowalczyk,  C. M. Krauter,  K. Kue,  
 A. Kunitsa,  T. Kus,  A. Landau,  K. V. Lawler,  D. Lefrancois,  S. Lehtola,  
 Rain Li,  Shaozhi Li,  Yi-Pei Li,  Jiashu Liang,  M. Liebenthal,  
 Hung-Hsuan Lin,  You-Sheng Lin,  Fenglai Liu,  Kuan-Yu Liu,  
 M. Loipersberger,  A. Luenser,  C. Malbon,  A. Manjanath,  P. Manohar,  
 E. Mansoor,  S. F. Manzer,  Shan-Ping Mao,  A. V. Marenich,  T. Markovich,  
 S. Mason,  F. Matz,  S. A. Maurer,  P. F. McLaughlin,  M. F. S. J. Menger,  
 J.-M. Mewes,  S. A. Mewes,  P. Morgante,  Mohammad Mostafanejad,  
 J. W. Mullinax,  K. J. Oosterbaan,  G. Paran,  V. Parravicini,  
 Alexander C. Paul,  Suranjan K. Paul,  F. Pavosevic,  Zheng Pei,  S. Prager,  
 E. I. Proynov,  E. Ramos,  B. Rana,  A. E. Rask,  A. Rettig,  R. M. Richard,  
 F. Rob,  E. Rossomme,  T. Scheele,  M. Scheurer,  M. Schneider,  
 P. E. Schneider,  N. Sergueev,  S. M. Sharada,  Hengyuan Shen,  
 W. Skomorowski,  D. W. Small,  C. J. Stein,  Yingli Su,  Yu-Chuan Su,  
 E. J. Sundstrom,  Zhen Tao,  J. Thirman,  Hung-Yi Tsai,  T. Tsuchimochi,  
 N. M. Tubman,  C. Utku,  S. P. Veccham,  O. Vydrov,  J. Wenzel,  
 Jonathan Wong,  J. Witte,  A. Yamada,  Chou-Hsun Yang,  Kun Yao,  
 S. Yeganeh,  S. R. Yost,  A. Zech,  F. Zeller,  Igor Ying Zhang,  
 Xing Zhang,  Yu Zhang,  D. Zuev,  A. Aspuru-Guzik,  A. T. Bell,  
 N. A. Besley,  K. B. Bravaya,  B. R. Brooks,  D. Casanova,  Jeng-Da Chai,  
 Hsing-Ta Chen,  S. Coriani,  C. J. Cramer,  A. E. DePrince, III,  
 R. A. DiStasio Jr.,  A. Dreuw,  B. D. Dunietz,  T. R. Furlani,  
 W. A. Goddard III,  S. Grimme,  S. Hammes-Schiffer,  T. Head-Gordon,  
 W. J. Hehre,  Chao-Ping Hsu,  T.-C. Jagau,  Yousung Jung,  A. Klamt,  
 Jing Kong,  D. S. Lambrecht,  Xiangyuan Li,  WanZhen Liang,  N. J. Mayhall,  
 C. W. McCurdy,  J. B. Neaton,  T. Neudecker,  C. Ochsenfeld,  
 J. A. Parkhill,  R. Peverati,  V. A. Rassolov,  Haisheng Ren,  Yihan Shao,  
 L. V. Slipchenko,  R. P. Steele,  J. E. Subotnik,  A. J. W. Thom,  
 A. Tkatchenko,  D. G. Truhlar,  T. Van Voorhis,  Fan Wang,  
 T. A. Wesolowski,  K. B. Whaley,  H. L. Woodcock III,  P. M. Zimmerman,  
 S. Faraji,  P. M. W. Gill,  M. Head-Gordon,  J. M. Herbert,  A. I. Krylov

 Contributors to earlier versions of Q-Chem not listed above: 
 R. D. Adamson,  B. Austin,  R. Baer,  J. Baker,  G. J. O. Beran,  
 K. Brandhorst,  S. T. Brown,  E. F. C. Byrd,  Arup K. Chakraborty,  
 G. K. L. Chan,  Chun-Min Chang,  Yunqing Chen,  C.-L. Cheng,  
 Siu Hung Chien,  D. M. Chipman,  D. L. Crittenden,  H. Dachsel,  
 R. J. Doerksen,  A. D. Dutoi,  R. G. Edgar,  J. Fosso-Tande,  
 L. Fusti-Molnar,  D. Ghosh,  A. Ghysels,  A. Golubeva-Zadorozhnaya,  
 J. Gonthier,  M. S. Gordon,  S. R. Gwaltney,  G. Hawkins,  J. E. Herr,  
 A. Heyden,  S. Hirata,  E. G. Hohenstein,  G. Kedziora,  F. J. Keil,  
 C. Kelley,  Jihan Kim,  R. A. King,  R. Z. Khaliullin,  P. P. Korambath,  
 W. Kurlancheek,  A. Laurent,  A. M. Lee,  M. S. Lee,  S. V. Levchenko,  
 Ching Yeh Lin,  D. Liotard,  E. Livshits,  R. C. Lochan,  I. Lotan,  
 L. A. Martinez-Martinez,  P. E. Maslen,  N. Nair,  D. P. O'Neill,  
 D. Neuhauser,  E. Neuscamman,  C. M. Oana,  R. Olivares-Amaya,  R. Olson,  
 T. M. Perrine,  B. Peters,  P. A. Pieniazek,  A. Prociuk,  Y. M. Rhee,  
 J. Ritchie,  M. A. Rohrdanz,  E. Rosta,  N. J. Russ,  H. F. Schaefer III,  
 M. W. Schmidt,  N. E. Schultz,  S. Sharma,  N. Shenvi,  C. D. Sherrill,  
 A. C. Simmonett,  A. Sodt,  T. Stein,  D. Stuck,  K. S. Thanthiriwatte,  
 V. Vanovschi,  L. Vogt,  Tao Wang,  A. Warshel,  M. A. Watson,  
 C. F. Williams,  Q. Wu,  X. Xu,  Jun Yang,  W. Zhang,  Yan Zhao

   Please cite Q-Chem as follows:
  "Software for the frontiers of quantum chemistry:
   An overview of developments in the Q-Chem 5 package"
   J. Chem. Phys. 155, 084801 (2021)
   https://doi.org/10.1063/5.0055522 (open access)

 Q-Chem 6.0.2 for Intel X86 EM64T Linux

 Parts of Q-Chem use Armadillo 9.900.5 (Nocturnal Misbehaviour).
 http://arma.sourceforge.net/

 Q-Chem begins on Fri May 19 19:58:49 2023  

 Host: 
0

     Scratch files written to /local_scratch/16768007/QCLOCALSCR/save//
 Dec722 |scratch|qcdevops|jenkins|workspace|build_RNUM 9024   
 Processing $rem in /gpfs/fs2/scratch/phuo_lab/Program/Qchem/config/preferences:
 Processing $rem in /home/bweight/.qchemrc:

 Checking the input file for inconsistencies... 	...done.

--------------------------------------------------------------
User input:
--------------------------------------------------------------
$molecule
0 1
C         -1.82075        1.21221        0.00007
C         -0.42782        1.22011        0.00011
C          0.24287        0.00002       -0.00001
C         -0.42786       -1.22012        0.00003
C         -2.51579        0.00002        0.00000
H         -2.36155        2.15093       -0.00002
H          0.13769        2.14227        0.00006
H          0.13768       -2.14225       -0.00012
H         -3.59985       -0.00001       -0.00023
N          1.70520        0.00000       -0.00004
O          2.29572       -1.10489        0.00011
O          2.29576        1.10486       -0.00013
C         -1.82075       -1.21220       -0.00006
H         -2.36162       -2.15087       -0.00013
$end

$rem
!SCF_GUESS         read
!SKIP_CIS_RPA      TRUE
METHOD             wB97XD
RPA                TRUE
BASIS              6-311+G*
CIS_N_ROOTS        100
CIS_SINGLETS       TRUE
CIS_TRIPLETS       FALSE
MAKE_CUBE_FILES    TRUE
PLOTS              TRUE
STS_MOM            TRUE
SYM_IGNORE         TRUE
SYMMETRY           FALSE
NTO_PAIRS          1
$end

$plots
grid_points                    75 75 75
total_density                  0-100
transition_density             1-100
natural_transition_orbital     1-100
$end
































--------------------------------------------------------------
 ----------------------------------------------------------------
             Standard Nuclear Orientation (Angstroms)
    I     Atom           X                Y                Z
 ----------------------------------------------------------------
    1      C      -1.8207500000     1.2122100000     0.0000700000
    2      C      -0.4278200000     1.2201100000     0.0001100000
    3      C       0.2428700000     0.0000200000    -0.0000100000
    4      C      -0.4278600000    -1.2201200000     0.0000300000
    5      C      -2.5157900000     0.0000200000     0.0000000000
    6      H      -2.3615500000     2.1509300000    -0.0000200000
    7      H       0.1376900000     2.1422700000     0.0000600000
    8      H       0.1376800000    -2.1422500000    -0.0001200000
    9      H      -3.5998500000    -0.0000100000    -0.0002300000
   10      N       1.7052000000     0.0000000000    -0.0000400000
   11      O       2.2957200000    -1.1048900000     0.0001100000
   12      O       2.2957600000     1.1048600000    -0.0001300000
   13      C      -1.8207500000    -1.2122000000    -0.0000600000
   14      H      -2.3616200000    -2.1508700000    -0.0001300000
 ----------------------------------------------------------------
 Nuclear Repulsion Energy =         410.79474676 hartrees
 There are       32 alpha and       32 beta electrons
 Requested basis set is 6-311+G(d)
 There are 69 shells and 213 basis functions

 Total QAlloc Memory Limit   2000 MB
 Mega-Array Size       188 MB
 MEM_STATIC part       192 MB


                       Distance Matrix (Angstroms)
             C (  1)   C (  2)   C (  3)   C (  4)   C (  5)   H (  6)
   C (  2)  1.392952
   C (  3)  2.393310  1.392280
   C (  4)  2.802922  2.440230  1.392343
   C (  5)  1.397314  2.418313  2.758660  2.418304
   H (  6)  1.083356  2.146098  3.377783  3.886275  2.156433
   H (  7)  2.168063  1.081749  2.144831  3.409621  3.410307  2.499255
   H (  8)  3.884308  3.409583  2.144851  1.081739  3.410311  4.967650
   H (  9)  2.152829  3.398598  3.842720  3.398557  1.084060  2.481921
   N ( 10)  3.728509  2.457324  1.462330  2.457364  4.220990  4.600539
   O ( 11)  4.723799  3.580963  2.331313  2.726017  4.936745  5.682475
   O ( 12)  4.117909  2.726017  2.331315  3.581011  4.936769  4.773343
   C ( 13)  2.424410  2.802925  2.393325  1.392913  1.397340  3.406334
   H ( 14)  3.406295  3.886269  3.377824  2.146095  2.156408  4.301800
             H (  7)   H (  8)   H (  9)   N ( 10)   O ( 11)   O ( 12)
   H (  8)  4.284520
   H (  9)  4.307966  4.307937
   N ( 10)  2.654507  2.654497  5.305050
   O ( 11)  3.898864  2.394421  5.998209  1.252795
   O ( 12)  2.394470  3.898850  5.998246  1.252788  2.209750
   C ( 13)  3.884322  2.168050  2.152812  3.728505  4.117868  4.723814
   H ( 14)  4.967656  2.499315  2.481816  4.600572  4.773352  5.682514
             C ( 13)
   H ( 14)  1.083347
 
 A cutoff of  1.0D-12 yielded   2200 shell pairs
 There are     21607 function pairs (     23441 Cartesian)
 Smallest overlap matrix eigenvalue = 2.75E-06

 Scale SEOQF with 1.000000e-01/1.000000e-01/1.000000e-01

 Standard Electronic Orientation quadrupole field applied
 Nucleus-field energy     =     0.0000000127 hartrees
 Guess from superposition of atomic densities
 Warning:  Energy on first SCF cycle will be non-variational
 SAD guess density has 64.000000 electrons

 -----------------------------------------------------------------------
  General SCF calculation program by
  Eric Jon Sundstrom, Paul Horn, Yuezhi Mao, Dmitri Zuev, Alec White,
  David Stuck, Shaama M.S., Shane Yost, Joonho Lee, David Small,
  Daniel Levine, Susi Lehtola, Hugh Burton, Evgeny Epifanovsky,
  Bang C. Huynh
 -----------------------------------------------------------------------
 Exchange:     0.2220 Hartree-Fock + 1.0000 wB97X-D + LR-HF
 Correlation:  1.0000 wB97X-D
 Using SG-2 standard quadrature grid
 Dispersion:   Grimme D
 using 12 threads for integral computing
 -------------------------------------------------------
 OpenMP Integral computing Module                
 Release: version 1.0, May 2013, Q-Chem Inc. Pittsburgh 
 -------------------------------------------------------
 A restricted SCF calculation will be
 performed using DIIS
 SCF converges when DIIS error is below 1.0e-08
 ---------------------------------------
  Cycle       Energy         DIIS error
 ---------------------------------------
    1    -439.2006881461      4.66e-02  
    2    -436.4607091684      7.37e-03  
    3    -436.2434864045      1.12e-02  
    4    -436.6966919407      5.81e-04  
    5    -436.6980374180      3.68e-04  
    6    -436.6987180744      6.80e-05  
    7    -436.6987458372      2.49e-05  
    8    -436.6987504472      8.97e-06  
    9    -436.6987511593      3.09e-06  
   10    -436.6987512562      9.01e-07  
   11    -436.6987512673      3.89e-07  
   12    -436.6987512681      2.67e-07  
   13    -436.6987512686      4.34e-08  
   14    -436.6987512686      1.84e-08  
   15    -436.6987512686      4.85e-09  Convergence criterion met
 ---------------------------------------
 SCF time:   CPU 146.41s  wall 13.00s 
 SCF   energy in the final basis set =     -436.6987512686
 Total energy in the final basis set =     -436.6987512686
 
 MAX_CIS_SUBSPACE fits in available memory
 Direct TDDFT/TDA calculation will be performed
 Exchange:     0.2220 Hartree-Fock + 1.0000 wB97X-D + LR-HF
 Correlation:  1.0000 wB97X-D
 Using SG-2 standard quadrature grid
 Dispersion:   Grimme D
 Singlet excitation energies requested
 CIS energy converged when residual is below 10e- 6
 ---------------------------------------------------
 Iter    Rts Conv    Rts Left    Ttl Dev     Max Dev
 ---------------------------------------------------
   1         0         100      0.054620    0.002420
   2         0         100      0.015303    0.000646
   3         0         100      0.010433    0.001093
   4         1          99      0.005103    0.000780
   5        20          80      0.001796    0.000206
   6        58          42      0.000463    0.000069
   7        77          23      0.000113    0.000017
   8        93           7      0.000038    0.000005
   9       100           0      0.000024    0.000001    Roots Converged
 ---------------------------------------------------
 
 ---------------------------------------------------
         TDDFT/TDA Excitation Energies              
 ---------------------------------------------------

 Excited state   1: excitation energy (eV) =    3.6242
 Total energy for state  1:                  -436.56556474 au
    Multiplicity: Singlet
    Trans. Mom.:  0.0001 X   0.0000 Y  -0.0000 Z
    Strength   :     0.0000000012
    D(   30) --> V(    1) amplitude =  0.9614
    D(   30) --> V(    4) amplitude = -0.2655

 Excited state   2: excitation energy (eV) =    4.2117
 Total energy for state  2:                  -436.54397509 au
    Multiplicity: Singlet
    Trans. Mom.:  0.0001 X   0.0000 Y  -0.0503 Z
    Strength   :     0.0002606194
    D(   28) --> V(    1) amplitude =  0.9618
    D(   28) --> V(    4) amplitude = -0.2558

 Excited state   3: excitation energy (eV) =    4.7699
 Total energy for state  3:                  -436.52346197 au
    Multiplicity: Singlet
    Trans. Mom.: -0.0003 X  -0.4411 Y  -0.0000 Z
    Strength   :     0.0227339727
    D(   31) --> V(    2) amplitude =  0.3507
    D(   32) --> V(    1) amplitude =  0.9265

 Excited state   4: excitation energy (eV) =    5.1261
 Total energy for state  4:                  -436.51036891 au
    Multiplicity: Singlet
    Trans. Mom.: -1.5643 X   0.0001 Y   0.0001 Z
    Strength   :     0.3073311172
    D(   31) --> V(    1) amplitude =  0.9589

 Excited state   5: excitation energy (eV) =    6.3221
 Total energy for state  5:                  -436.46641680 au
    Multiplicity: Singlet
    Trans. Mom.: -0.0001 X   0.0989 Y   0.0001 Z
    Strength   :     0.0015145137
    D(   29) --> V(    1) amplitude = -0.4107
    D(   31) --> V(    2) amplitude =  0.6746
    D(   32) --> V(    1) amplitude = -0.3209
    D(   32) --> V(    4) amplitude =  0.4867

 Excited state   6: excitation energy (eV) =    6.6391
 Total energy for state  6:                  -436.45477060 au
    Multiplicity: Singlet
    Trans. Mom.:  0.0000 X   0.9345 Y  -0.0001 Z
    Strength   :     0.1420396501
    D(   29) --> V(    1) amplitude =  0.8327
    D(   31) --> V(    2) amplitude =  0.2418
    D(   32) --> V(    4) amplitude =  0.3941

 Excited state   7: excitation energy (eV) =    6.8865
 Total energy for state  7:                  -436.44567831 au
    Multiplicity: Singlet
    Trans. Mom.: -1.2099 X   0.0002 Y  -0.0001 Z
    Strength   :     0.2469605384
    D(   31) --> V(    4) amplitude = -0.5043
    D(   32) --> V(    2) amplitude =  0.8166

 Excited state   8: excitation energy (eV) =    6.9430
 Total energy for state  8:                  -436.44360169 au
    Multiplicity: Singlet
    Trans. Mom.:  0.0000 X   0.0001 Y   0.0000 Z
    Strength   :     0.0000000007
    D(   27) --> V(    1) amplitude =  0.9606

 Excited state   9: excitation energy (eV) =    7.4880
 Total energy for state  9:                  -436.42357129 au
    Multiplicity: Singlet
    Trans. Mom.: -0.0001 X  -0.0001 Y   0.0407 Z
    Strength   :     0.0003045719
    D(   26) --> V(    1) amplitude =  0.5938
    D(   30) --> V(    2) amplitude =  0.7688

 Excited state  10: excitation energy (eV) =    7.5556
 Total energy for state 10:                  -436.42108924 au
    Multiplicity: Singlet
    Trans. Mom.: -0.0000 X   0.0002 Y   0.0002 Z
    Strength   :     0.0000000113
    D(   32) --> V(    3) amplitude =  0.9390

 Excited state  11: excitation energy (eV) =    7.5754
 Total energy for state 11:                  -436.42036087 au
    Multiplicity: Singlet
    Trans. Mom.: -0.0000 X   0.0002 Y   0.0808 Z
    Strength   :     0.0012118006
    D(   26) --> V(    1) amplitude =  0.7105
    D(   30) --> V(    2) amplitude = -0.6239

 Excited state  12: excitation energy (eV) =    7.6932
 Total energy for state 12:                  -436.41603217 au
    Multiplicity: Singlet
    Trans. Mom.:  0.0000 X   0.0000 Y   0.2989 Z
    Strength   :     0.0168442006
    D(   31) --> V(    3) amplitude =  0.9437

 Excited state  13: excitation energy (eV) =    7.8038
 Total energy for state 13:                  -436.41196516 au
    Multiplicity: Singlet
    Trans. Mom.:  0.0005 X   0.0004 Y  -0.0000 Z
    Strength   :     0.0000000742
    D(   28) --> V(    2) amplitude = -0.5795
    D(   30) --> V(    1) amplitude =  0.2127
    D(   30) --> V(    4) amplitude =  0.7520

 Excited state  14: excitation energy (eV) =    7.8809
 Total energy for state 14:                  -436.40913411 au
    Multiplicity: Singlet
    Trans. Mom.:  0.0008 X  -0.0005 Y   0.0000 Z
    Strength   :     0.0000001769
    D(   28) --> V(    2) amplitude =  0.7758
    D(   30) --> V(    4) amplitude =  0.5558

 Excited state  15: excitation energy (eV) =    7.9596
 Total energy for state 15:                  -436.40624228 au
    Multiplicity: Singlet
    Trans. Mom.: -0.8654 X   0.0005 Y   0.0001 Z
    Strength   :     0.1460572282
    D(   29) --> V(    2) amplitude =  0.8853
    D(   31) --> V(    4) amplitude =  0.3097
    D(   32) --> V(    2) amplitude =  0.2601

 Excited state  16: excitation energy (eV) =    7.9892
 Total energy for state 16:                  -436.40515273 au
    Multiplicity: Singlet
    Trans. Mom.: -0.0007 X  -1.9440 Y  -0.0001 Z
    Strength   :     0.7397152839
    D(   31) --> V(    2) amplitude = -0.5144
    D(   32) --> V(    4) amplitude =  0.7059
    D(   32) --> V(    9) amplitude =  0.3228

 Excited state  17: excitation energy (eV) =    8.0621
 Total energy for state 17:                  -436.40247407 au
    Multiplicity: Singlet
    Trans. Mom.: -1.4847 X   0.0006 Y   0.0001 Z
    Strength   :     0.4353947900
    D(   25) --> V(    1) amplitude = -0.2327
    D(   29) --> V(    2) amplitude = -0.3887
    D(   31) --> V(    4) amplitude =  0.7463
    D(   31) --> V(    9) amplitude = -0.2202
    D(   32) --> V(    2) amplitude =  0.3568

 Excited state  18: excitation energy (eV) =    8.2033
 Total energy for state 18:                  -436.39728458 au
    Multiplicity: Singlet
    Trans. Mom.: -0.0007 X   0.0001 Y  -0.3441 Z
    Strength   :     0.0237968968
    D(   27) --> V(    2) amplitude =  0.8784
    D(   32) --> V(    5) amplitude =  0.4169

 Excited state  19: excitation energy (eV) =    8.2167
 Total energy for state 19:                  -436.39679271 au
    Multiplicity: Singlet
    Trans. Mom.: -0.0006 X  -0.0004 Y   0.0061 Z
    Strength   :     0.0000076308
    D(   26) --> V(    1) amplitude = -0.2223
    D(   28) --> V(    1) amplitude =  0.2394
    D(   28) --> V(    4) amplitude =  0.9064

 Excited state  20: excitation energy (eV) =    8.2585
 Total energy for state 20:                  -436.39525849 au
    Multiplicity: Singlet
    Trans. Mom.: -0.0012 X  -0.0002 Y  -0.3179 Z
    Strength   :     0.0204461383
    D(   27) --> V(    2) amplitude = -0.4494
    D(   32) --> V(    5) amplitude =  0.8196

 Excited state  21: excitation energy (eV) =    8.2613
 Total energy for state 21:                  -436.39515487 au
    Multiplicity: Singlet
    Trans. Mom.: -0.4536 X  -0.0004 Y   0.0010 Z
    Strength   :     0.0416445107
    D(   25) --> V(    1) amplitude =  0.9116
    D(   29) --> V(    2) amplitude = -0.2292

 Excited state  22: excitation energy (eV) =    8.3756
 Total energy for state 22:                  -436.39095476 au
    Multiplicity: Singlet
    Trans. Mom.: -0.0002 X   0.0002 Y  -0.0001 Z
    Strength   :     0.0000000154
    D(   31) --> V(    5) amplitude = -0.3461
    D(   32) --> V(    6) amplitude =  0.6376
    D(   32) --> V(    7) amplitude = -0.5466
    D(   32) --> V(   10) amplitude = -0.2425

 Excited state  23: excitation energy (eV) =    8.4670
 Total energy for state 23:                  -436.38759329 au
    Multiplicity: Singlet
    Trans. Mom.:  0.0003 X   0.0002 Y   0.0756 Z
    Strength   :     0.0011847325
    D(   31) --> V(    6) amplitude =  0.7473
    D(   31) --> V(    7) amplitude = -0.4586
    D(   31) --> V(   10) amplitude = -0.2608
    D(   32) --> V(    5) amplitude =  0.2654

 Excited state  24: excitation energy (eV) =    8.4977
 Total energy for state 24:                  -436.38646567 au
    Multiplicity: Singlet
    Trans. Mom.:  0.0000 X  -0.1161 Y  -0.0000 Z
    Strength   :     0.0028081303
    D(   29) --> V(    4) amplitude =  0.7477
    D(   30) --> V(    3) amplitude =  0.3079
    D(   30) --> V(    6) amplitude = -0.3900
    D(   30) --> V(    7) amplitude =  0.2851

 Excited state  25: excitation energy (eV) =    8.5744
 Total energy for state 25:                  -436.38364828 au
    Multiplicity: Singlet
    Trans. Mom.: -0.0001 X  -0.0001 Y   0.0001 Z
    Strength   :     0.0000000042
    D(   31) --> V(    5) amplitude =  0.8622
    D(   32) --> V(    7) amplitude = -0.3383
    D(   32) --> V(   10) amplitude = -0.2445

 Excited state  26: excitation energy (eV) =    8.6427
 Total energy for state 26:                  -436.38113760 au
    Multiplicity: Singlet
    Trans. Mom.: -0.0000 X  -0.8774 Y   0.0001 Z
    Strength   :     0.1630126321
    D(   29) --> V(    4) amplitude =  0.5776
    D(   30) --> V(    3) amplitude = -0.4561
    D(   30) --> V(    6) amplitude =  0.4679
    D(   30) --> V(    7) amplitude = -0.2380

 Excited state  27: excitation energy (eV) =    8.6661
 Total energy for state 27:                  -436.38027978 au
    Multiplicity: Singlet
    Trans. Mom.:  0.0001 X  -0.0002 Y   0.0001 Z
    Strength   :     0.0000000162
    D(   26) --> V(    2) amplitude =  0.2191
    D(   31) --> V(    5) amplitude =  0.2476
    D(   32) --> V(    6) amplitude =  0.6944
    D(   32) --> V(    7) amplitude =  0.5222
    D(   32) --> V(   10) amplitude =  0.2426

 Excited state  28: excitation energy (eV) =    8.6744
 Total energy for state 28:                  -436.37997425 au
    Multiplicity: Singlet
    Trans. Mom.: -0.0000 X  -0.0007 Y  -0.0000 Z
    Strength   :     0.0000000996
    D(   24) --> V(    1) amplitude =  0.2336
    D(   26) --> V(    2) amplitude =  0.8887

 Excited state  29: excitation energy (eV) =    8.8240
 Total energy for state 29:                  -436.37447509 au
    Multiplicity: Singlet
    Trans. Mom.: -0.0001 X  -0.0002 Y   0.1377 Z
    Strength   :     0.0040999397
    D(   31) --> V(    6) amplitude =  0.5705
    D(   31) --> V(    7) amplitude =  0.6666
    D(   31) --> V(   10) amplitude =  0.3397

 Excited state  30: excitation energy (eV) =    8.9065
 Total energy for state 30:                  -436.37144337 au
    Multiplicity: Singlet
    Trans. Mom.:  0.0000 X  -0.0001 Y   0.0000 Z
    Strength   :     0.0000000022
    D(   29) --> V(    3) amplitude = -0.4726
    D(   29) --> V(    6) amplitude =  0.5884
    D(   29) --> V(    7) amplitude = -0.4265
    D(   29) --> V(   12) amplitude = -0.2581

 Excited state  31: excitation energy (eV) =    8.9802
 Total energy for state 31:                  -436.36873620 au
    Multiplicity: Singlet
    Trans. Mom.: -0.0003 X   0.0002 Y  -0.0000 Z
    Strength   :     0.0000000394
    D(   22) --> V(    1) amplitude =  0.4298
    D(   24) --> V(    1) amplitude =  0.4821
    D(   26) --> V(    2) amplitude = -0.2295
    D(   27) --> V(    4) amplitude =  0.6429

 Excited state  32: excitation energy (eV) =    8.9897
 Total energy for state 32:                  -436.36838546 au
    Multiplicity: Singlet
    Trans. Mom.: -0.4168 X   0.0003 Y  -0.0000 Z
    Strength   :     0.0382628191
    D(   28) --> V(    3) amplitude = -0.4707
    D(   28) --> V(    6) amplitude =  0.5400
    D(   28) --> V(    7) amplitude = -0.3238
    D(   30) --> V(    5) amplitude = -0.3246
    D(   30) --> V(    8) amplitude =  0.3304
    D(   31) --> V(    9) amplitude =  0.2586

 Excited state  33: excitation energy (eV) =    9.0262
 Total energy for state 33:                  -436.36704506 au
    Multiplicity: Singlet
    Trans. Mom.: -0.0000 X   0.5484 Y  -0.0000 Z
    Strength   :     0.0665075512
    D(   31) --> V(    2) amplitude =  0.2198
    D(   32) --> V(    4) amplitude = -0.2250
    D(   32) --> V(    9) amplitude =  0.9198

 Excited state  34: excitation energy (eV) =    9.0970
 Total energy for state 34:                  -436.36444281 au
    Multiplicity: Singlet
    Trans. Mom.: -0.1564 X  -0.0005 Y  -0.0001 Z
    Strength   :     0.0054485600
    D(   31) --> V(    9) amplitude =  0.9102

 Excited state  35: excitation energy (eV) =    9.2592
 Total energy for state 35:                  -436.35848313 au
    Multiplicity: Singlet
    Trans. Mom.:  0.0000 X  -0.0000 Y   0.1169 Z
    Strength   :     0.0031004203
    D(   32) --> V(    8) amplitude =  0.9590

 Excited state  36: excitation energy (eV) =    9.3403
 Total energy for state 36:                  -436.35550178 au
    Multiplicity: Singlet
    Trans. Mom.: -0.0000 X   0.0002 Y  -0.0000 Z
    Strength   :     0.0000000071
    D(   20) --> V(    1) amplitude = -0.2582
    D(   22) --> V(    1) amplitude = -0.5986
    D(   24) --> V(    1) amplitude =  0.6811

 Excited state  37: excitation energy (eV) =    9.4173
 Total energy for state 37:                  -436.35267005 au
    Multiplicity: Singlet
    Trans. Mom.: -0.0000 X  -0.0001 Y  -0.0001 Z
    Strength   :     0.0000000064
    D(   31) --> V(    8) amplitude =  0.9466

 Excited state  38: excitation energy (eV) =    9.4983
 Total energy for state 38:                  -436.34969359 au
    Multiplicity: Singlet
    Trans. Mom.: -0.0000 X   0.2413 Y   0.0000 Z
    Strength   :     0.0135438457
    D(   30) --> V(    3) amplitude = -0.3895
    D(   30) --> V(    7) amplitude =  0.7307
    D(   30) --> V(   10) amplitude =  0.3579
    D(   30) --> V(   15) amplitude =  0.2131

 Excited state  39: excitation energy (eV) =    9.5775
 Total energy for state 39:                  -436.34678571 au
    Multiplicity: Singlet
    Trans. Mom.:  0.0001 X   0.0000 Y   0.0002 Z
    Strength   :     0.0000000068
    D(   32) --> V(    7) amplitude = -0.4793
    D(   32) --> V(   10) amplitude =  0.7648
    D(   32) --> V(   12) amplitude = -0.3083

 Excited state  40: excitation energy (eV) =    9.6015
 Total energy for state 40:                  -436.34590423 au
    Multiplicity: Singlet
    Trans. Mom.: -0.0001 X  -0.0000 Y   0.0324 Z
    Strength   :     0.0002463500
    D(   21) --> V(    1) amplitude =  0.2230
    D(   26) --> V(    4) amplitude = -0.4118
    D(   31) --> V(    7) amplitude = -0.4240
    D(   31) --> V(   10) amplitude =  0.5960
    D(   31) --> V(   12) amplitude = -0.3108

 Excited state  41: excitation energy (eV) =    9.6319
 Total energy for state 41:                  -436.34478427 au
    Multiplicity: Singlet
    Trans. Mom.: -0.0429 X   0.0000 Y  -0.0001 Z
    Strength   :     0.0004343323
    D(   28) --> V(    3) amplitude = -0.2244
    D(   28) --> V(    6) amplitude =  0.2336
    D(   28) --> V(    7) amplitude = -0.4127
    D(   30) --> V(    5) amplitude =  0.6636
    D(   30) --> V(    8) amplitude = -0.4525

 Excited state  42: excitation energy (eV) =    9.6662
 Total energy for state 42:                  -436.34352563 au
    Multiplicity: Singlet
    Trans. Mom.:  0.0001 X   0.0389 Y   0.0000 Z
    Strength   :     0.0003588713
    D(   25) --> V(    2) amplitude =  0.8642
    D(   31) --> V(   11) amplitude =  0.3348
    D(   32) --> V(   13) amplitude =  0.2812

 Excited state  43: excitation energy (eV) =    9.6946
 Total energy for state 43:                  -436.34248284 au
    Multiplicity: Singlet
    Trans. Mom.:  0.0002 X  -0.0001 Y   0.2124 Z
    Strength   :     0.0107143369
    D(   21) --> V(    1) amplitude = -0.2980
    D(   23) --> V(    1) amplitude = -0.4497
    D(   26) --> V(    4) amplitude =  0.6043
    D(   31) --> V(    7) amplitude = -0.2233
    D(   31) --> V(   10) amplitude =  0.3878

 Excited state  44: excitation energy (eV) =    9.7682
 Total energy for state 44:                  -436.33977711 au
    Multiplicity: Singlet
    Trans. Mom.:  0.0001 X  -0.0001 Y  -0.0000 Z
    Strength   :     0.0000000022
    D(   20) --> V(    1) amplitude = -0.3069
    D(   22) --> V(    1) amplitude = -0.4476
    D(   24) --> V(    1) amplitude = -0.3880
    D(   27) --> V(    1) amplitude = -0.2304
    D(   27) --> V(    4) amplitude =  0.6537

 Excited state  45: excitation energy (eV) =    9.8501
 Total energy for state 45:                  -436.33676603 au
    Multiplicity: Singlet
    Trans. Mom.: -0.0157 X  -0.0001 Y   0.0001 Z
    Strength   :     0.0000597362
    D(   32) --> V(   11) amplitude =  0.9531

 Excited state  46: excitation energy (eV) =    9.8793
 Total energy for state 46:                  -436.33569290 au
    Multiplicity: Singlet
    Trans. Mom.:  0.0000 X   0.0001 Y   0.3109 Z
    Strength   :     0.0233947902
    D(   29) --> V(    5) amplitude =  0.7119
    D(   29) --> V(    8) amplitude = -0.6007

 Excited state  47: excitation energy (eV) =    9.8818
 Total energy for state 47:                  -436.33560148 au
    Multiplicity: Singlet
    Trans. Mom.: -0.0000 X   0.0000 Y  -0.0027 Z
    Strength   :     0.0000017914
    D(   29) --> V(    3) amplitude = -0.5514
    D(   29) --> V(    7) amplitude =  0.6608
    D(   29) --> V(   10) amplitude =  0.3231

 Excited state  48: excitation energy (eV) =    9.9011
 Total energy for state 48:                  -436.33489105 au
    Multiplicity: Singlet
    Trans. Mom.: -0.0000 X  -0.2531 Y   0.0002 Z
    Strength   :     0.0155391737
    D(   28) --> V(    5) amplitude = -0.2182
    D(   28) --> V(    8) amplitude =  0.3100
    D(   30) --> V(    3) amplitude =  0.6724
    D(   30) --> V(    6) amplitude =  0.2590
    D(   30) --> V(   10) amplitude =  0.4383
    D(   30) --> V(   12) amplitude = -0.2477

 Excited state  49: excitation energy (eV) =    9.9325
 Total energy for state 49:                  -436.33373903 au
    Multiplicity: Singlet
    Trans. Mom.: -0.0001 X  -0.0001 Y   0.1297 Z
    Strength   :     0.0040939811
    D(   23) --> V(    1) amplitude =  0.7877
    D(   24) --> V(    2) amplitude = -0.2755
    D(   26) --> V(    4) amplitude =  0.4125

 Excited state  50: excitation energy (eV) =   10.0081
 Total energy for state 50:                  -436.33096194 au
    Multiplicity: Singlet
    Trans. Mom.: -0.0001 X   0.0468 Y   0.0000 Z
    Strength   :     0.0005376678
    D(   25) --> V(    2) amplitude = -0.3871
    D(   31) --> V(   11) amplitude =  0.4580
    D(   32) --> V(   13) amplitude =  0.7311

 Excited state  51: excitation energy (eV) =   10.0374
 Total energy for state 51:                  -436.32988202 au
    Multiplicity: Singlet
    Trans. Mom.:  0.1035 X  -0.0000 Y  -0.0000 Z
    Strength   :     0.0026351310
    D(   28) --> V(    3) amplitude =  0.6323
    D(   28) --> V(    7) amplitude = -0.5234
    D(   31) --> V(   13) amplitude = -0.3050

 Excited state  52: excitation energy (eV) =   10.0725
 Total energy for state 52:                  -436.32859469 au
    Multiplicity: Singlet
    Trans. Mom.: -0.0001 X   0.0000 Y  -0.0000 Z
    Strength   :     0.0000000009
    D(   30) --> V(    9) amplitude =  0.7530
    D(   30) --> V(   13) amplitude =  0.5893

 Excited state  53: excitation energy (eV) =   10.1283
 Total energy for state 53:                  -436.32654253 au
    Multiplicity: Singlet
    Trans. Mom.: -0.0065 X   0.0004 Y   0.0001 Z
    Strength   :     0.0000106150
    D(   28) --> V(    3) amplitude =  0.2655
    D(   31) --> V(   13) amplitude =  0.8834

 Excited state  54: excitation energy (eV) =   10.1375
 Total energy for state 54:                  -436.32620584 au
    Multiplicity: Singlet
    Trans. Mom.:  0.0000 X   0.0944 Y   0.0001 Z
    Strength   :     0.0022110869
    D(   27) --> V(    3) amplitude = -0.3612
    D(   28) --> V(    5) amplitude =  0.5647
    D(   28) --> V(    8) amplitude = -0.2792
    D(   30) --> V(   10) amplitude =  0.2462
    D(   30) --> V(   12) amplitude = -0.2242
    D(   31) --> V(   11) amplitude = -0.3633
    D(   32) --> V(   13) amplitude =  0.3411

 Excited state  55: excitation energy (eV) =   10.1591
 Total energy for state 55:                  -436.32541134 au
    Multiplicity: Singlet
    Trans. Mom.: -0.0001 X  -0.0894 Y   0.0000 Z
    Strength   :     0.0019898583
    D(   28) --> V(    5) amplitude =  0.3616
    D(   31) --> V(   11) amplitude =  0.7134
    D(   32) --> V(   13) amplitude = -0.4535

 Excited state  56: excitation energy (eV) =   10.2460
 Total energy for state 56:                  -436.32221777 au
    Multiplicity: Singlet
    Trans. Mom.:  0.0000 X  -0.0001 Y  -0.0000 Z
    Strength   :     0.0000000016
    D(   20) --> V(    1) amplitude = -0.6797
    D(   22) --> V(    1) amplitude =  0.3361
    D(   22) --> V(    4) amplitude =  0.2786
    D(   29) --> V(    3) amplitude =  0.3319
    D(   29) --> V(   10) amplitude =  0.2907
    D(   29) --> V(   12) amplitude = -0.2230

 Excited state  57: excitation energy (eV) =   10.2770
 Total energy for state 57:                  -436.32107954 au
    Multiplicity: Singlet
    Trans. Mom.: -0.0001 X  -0.1479 Y   0.0000 Z
    Strength   :     0.0055093082
    D(   27) --> V(    3) amplitude =  0.8654

 Excited state  58: excitation energy (eV) =   10.3281
 Total energy for state 58:                  -436.31919968 au
    Multiplicity: Singlet
    Trans. Mom.:  0.0002 X  -0.0001 Y  -0.0004 Z
    Strength   :     0.0000000618
    D(   32) --> V(   10) amplitude =  0.3606
    D(   32) --> V(   12) amplitude =  0.8073
    D(   32) --> V(   15) amplitude =  0.3232

 Excited state  59: excitation energy (eV) =   10.3385
 Total energy for state 59:                  -436.31881847 au
    Multiplicity: Singlet
    Trans. Mom.: -0.0001 X   0.0000 Y   0.0996 Z
    Strength   :     0.0025105071
    D(   24) --> V(    2) amplitude =  0.9134
    D(   26) --> V(    4) amplitude =  0.2142

 Excited state  60: excitation energy (eV) =   10.3560
 Total energy for state 60:                  -436.31817471 au
    Multiplicity: Singlet
    Trans. Mom.: -0.4665 X   0.0001 Y   0.0001 Z
    Strength   :     0.0552092897
    D(   28) --> V(    7) amplitude =  0.3389
    D(   28) --> V(   10) amplitude =  0.5021
    D(   30) --> V(    5) amplitude =  0.4922
    D(   30) --> V(    8) amplitude =  0.3322

 Excited state  61: excitation energy (eV) =   10.3607
 Total energy for state 61:                  -436.31800244 au
    Multiplicity: Singlet
    Trans. Mom.: -0.0006 X  -0.0000 Y  -0.0000 Z
    Strength   :     0.0000000864
    D(   20) --> V(    1) amplitude =  0.4698
    D(   29) --> V(    3) amplitude =  0.4525
    D(   29) --> V(    6) amplitude =  0.2427
    D(   29) --> V(   10) amplitude =  0.4806
    D(   29) --> V(   12) amplitude = -0.3085

 Excited state  62: excitation energy (eV) =   10.4030
 Total energy for state 62:                  -436.31644797 au
    Multiplicity: Singlet
    Trans. Mom.: -0.0000 X   0.0001 Y  -0.4599 Z
    Strength   :     0.0539029870
    D(   31) --> V(   10) amplitude =  0.4140
    D(   31) --> V(   12) amplitude =  0.7740
    D(   31) --> V(   15) amplitude =  0.3390

 Excited state  63: excitation energy (eV) =   10.4644
 Total energy for state 63:                  -436.31419276 au
    Multiplicity: Singlet
    Trans. Mom.:  0.0001 X   0.0270 Y  -0.0003 Z
    Strength   :     0.0001867120
    D(   28) --> V(    5) amplitude =  0.2416
    D(   29) --> V(    9) amplitude =  0.3062
    D(   29) --> V(   13) amplitude =  0.2455
    D(   30) --> V(    6) amplitude =  0.6185
    D(   30) --> V(   12) amplitude =  0.4427

 Excited state  64: excitation energy (eV) =   10.5056
 Total energy for state 64:                  -436.31267856 au
    Multiplicity: Singlet
    Trans. Mom.:  0.0003 X  -0.0001 Y  -0.0303 Z
    Strength   :     0.0002366124
    D(   28) --> V(    9) amplitude =  0.7202
    D(   28) --> V(   13) amplitude =  0.5426
    D(   30) --> V(   11) amplitude =  0.2934

 Excited state  65: excitation energy (eV) =   10.5304
 Total energy for state 65:                  -436.31176791 au
    Multiplicity: Singlet
    Trans. Mom.: -0.2112 X   0.0000 Y   0.0000 Z
    Strength   :     0.0115059582
    D(   26) --> V(    3) amplitude =  0.6191
    D(   28) --> V(    6) amplitude =  0.3338
    D(   30) --> V(    5) amplitude = -0.2356
    D(   30) --> V(    8) amplitude = -0.4639

 Excited state  66: excitation energy (eV) =   10.5507
 Total energy for state 66:                  -436.31102008 au
    Multiplicity: Singlet
    Trans. Mom.:  0.0001 X   0.0386 Y   0.0000 Z
    Strength   :     0.0003858900
    D(   29) --> V(    9) amplitude =  0.6819
    D(   29) --> V(   13) amplitude =  0.4938
    D(   30) --> V(    6) amplitude = -0.2841
    D(   30) --> V(   12) amplitude = -0.2154

 Excited state  67: excitation energy (eV) =   10.6322
 Total energy for state 67:                  -436.30802611 au
    Multiplicity: Singlet
    Trans. Mom.:  0.1019 X  -0.0001 Y  -0.0002 Z
    Strength   :     0.0027070915
    D(   25) --> V(    4) amplitude =  0.8022
    D(   26) --> V(    3) amplitude =  0.2279

 Excited state  68: excitation energy (eV) =   10.6680
 Total energy for state 68:                  -436.30671108 au
    Multiplicity: Singlet
    Trans. Mom.:  0.0000 X  -0.0000 Y  -0.0005 Z
    Strength   :     0.0000000553
    D(   32) --> V(   12) amplitude = -0.2468
    D(   32) --> V(   15) amplitude =  0.7152
    D(   32) --> V(   20) amplitude = -0.4120

 Excited state  69: excitation energy (eV) =   10.7186
 Total energy for state 69:                  -436.30485166 au
    Multiplicity: Singlet
    Trans. Mom.: -0.0001 X   0.0000 Y  -0.4333 Z
    Strength   :     0.0492988469
    D(   31) --> V(   12) amplitude = -0.2699
    D(   31) --> V(   15) amplitude =  0.5427
    D(   31) --> V(   20) amplitude = -0.3285
    D(   32) --> V(   14) amplitude =  0.4992

 Excited state  70: excitation energy (eV) =   10.7390
 Total energy for state 70:                  -436.30409951 au
    Multiplicity: Singlet
    Trans. Mom.: -0.0000 X   0.0001 Y   0.0344 Z
    Strength   :     0.0003122209
    D(   29) --> V(    5) amplitude = -0.2383
    D(   31) --> V(   15) amplitude = -0.4497
    D(   31) --> V(   20) amplitude =  0.2266
    D(   32) --> V(   14) amplitude =  0.6851

 Excited state  71: excitation energy (eV) =   10.7462
 Total energy for state 71:                  -436.30383703 au
    Multiplicity: Singlet
    Trans. Mom.: -0.1185 X  -0.0000 Y  -0.0001 Z
    Strength   :     0.0036940277
    D(   25) --> V(    4) amplitude = -0.4053
    D(   26) --> V(    3) amplitude =  0.5534
    D(   28) --> V(    3) amplitude = -0.2689
    D(   28) --> V(   10) amplitude = -0.2335
    D(   28) --> V(   12) amplitude =  0.2641
    D(   30) --> V(    5) amplitude =  0.2620
    D(   30) --> V(    8) amplitude =  0.2735
    D(   31) --> V(   18) amplitude = -0.2201

 Excited state  72: excitation energy (eV) =   10.8076
 Total energy for state 72:                  -436.30157767 au
    Multiplicity: Singlet
    Trans. Mom.:  0.0001 X  -0.0000 Y  -0.0001 Z
    Strength   :     0.0000000070
    D(   29) --> V(    3) amplitude =  0.2497
    D(   29) --> V(    6) amplitude =  0.6375
    D(   29) --> V(   12) amplitude =  0.5292
    D(   29) --> V(   15) amplitude = -0.2168

 Excited state  73: excitation energy (eV) =   10.8461
 Total energy for state 73:                  -436.30016266 au
    Multiplicity: Singlet
    Trans. Mom.:  0.0001 X  -0.0000 Y  -0.4397 Z
    Strength   :     0.0513640393
    D(   21) --> V(    1) amplitude =  0.2208
    D(   22) --> V(    2) amplitude =  0.3286
    D(   29) --> V(    5) amplitude =  0.5094
    D(   29) --> V(    8) amplitude =  0.5169
    D(   29) --> V(   14) amplitude = -0.2549
    D(   32) --> V(   14) amplitude =  0.3380

 Excited state  74: excitation energy (eV) =   10.8845
 Total energy for state 74:                  -436.29875162 au
    Multiplicity: Singlet
    Trans. Mom.:  0.0001 X   0.0001 Y  -0.0052 Z
    Strength   :     0.0000072734
    D(   21) --> V(    1) amplitude =  0.3267
    D(   22) --> V(    2) amplitude =  0.7366
    D(   29) --> V(    5) amplitude = -0.2776
    D(   29) --> V(    8) amplitude = -0.3010

 Excited state  75: excitation energy (eV) =   10.8909
 Total energy for state 75:                  -436.29851967 au
    Multiplicity: Singlet
    Trans. Mom.: -0.0009 X   0.0000 Y   0.0003 Z
    Strength   :     0.0000002346
    D(   31) --> V(   14) amplitude =  0.8815

 Excited state  76: excitation energy (eV) =   10.8942
 Total energy for state 76:                  -436.29839598 au
    Multiplicity: Singlet
    Trans. Mom.: -0.5598 X  -0.0001 Y  -0.0000 Z
    Strength   :     0.0836329933
    D(   27) --> V(    5) amplitude =  0.8273

 Excited state  77: excitation energy (eV) =   10.9306
 Total energy for state 77:                  -436.29706021 au
    Multiplicity: Singlet
    Trans. Mom.:  0.4936 X   0.0004 Y  -0.0001 Z
    Strength   :     0.0652503715
    D(   26) --> V(    3) amplitude = -0.2287
    D(   27) --> V(    5) amplitude =  0.3111
    D(   28) --> V(    3) amplitude =  0.2640
    D(   28) --> V(    6) amplitude =  0.5994
    D(   28) --> V(   12) amplitude =  0.4551

 Excited state  78: excitation energy (eV) =   10.9457
 Total energy for state 78:                  -436.29650273 au
    Multiplicity: Singlet
    Trans. Mom.: -0.0004 X   0.2564 Y   0.0001 Z
    Strength   :     0.0176255716
    D(   26) --> V(    5) amplitude =  0.2233
    D(   28) --> V(    5) amplitude =  0.4885
    D(   28) --> V(    8) amplitude =  0.6247
    D(   28) --> V(   14) amplitude = -0.2195
    D(   30) --> V(   12) amplitude =  0.2843

 Excited state  79: excitation energy (eV) =   10.9790
 Total energy for state 79:                  -436.29528061 au
    Multiplicity: Singlet
    Trans. Mom.: -0.0001 X   0.0002 Y   0.0002 Z
    Strength   :     0.0000000204
    D(   23) --> V(    2) amplitude =  0.8911
    D(   24) --> V(    4) amplitude = -0.2177

 Excited state  80: excitation energy (eV) =   11.0166
 Total energy for state 80:                  -436.29390026 au
    Multiplicity: Singlet
    Trans. Mom.:  0.0005 X  -0.3753 Y   0.0028 Z
    Strength   :     0.0380134169
    D(   27) --> V(    6) amplitude =  0.4700
    D(   32) --> V(   16) amplitude =  0.5771
    D(   32) --> V(   18) amplitude =  0.5024

 Excited state  81: excitation energy (eV) =   11.0308
 Total energy for state 81:                  -436.29337700 au
    Multiplicity: Singlet
    Trans. Mom.:  0.0001 X  -0.0011 Y  -0.8948 Z
    Strength   :     0.2163952027
    D(   32) --> V(   14) amplitude = -0.2653
    D(   32) --> V(   17) amplitude =  0.8265
    D(   32) --> V(   21) amplitude = -0.3079

 Excited state  82: excitation energy (eV) =   11.0654
 Total energy for state 82:                  -436.29210629 au
    Multiplicity: Singlet
    Trans. Mom.:  0.1186 X   0.0006 Y   0.0006 Z
    Strength   :     0.0038115574
    D(   19) --> V(    1) amplitude = -0.2740
    D(   31) --> V(   16) amplitude =  0.5926
    D(   31) --> V(   18) amplitude =  0.5505
    D(   31) --> V(   27) amplitude = -0.2219

 Excited state  83: excitation energy (eV) =   11.0801
 Total energy for state 83:                  -436.29156387 au
    Multiplicity: Singlet
    Trans. Mom.:  0.0002 X  -0.0000 Y   0.1054 Z
    Strength   :     0.0030180460
    D(   18) --> V(    1) amplitude = -0.2632
    D(   21) --> V(    1) amplitude =  0.6936
    D(   22) --> V(    2) amplitude = -0.3946
    D(   26) --> V(    4) amplitude =  0.3541

 Excited state  84: excitation energy (eV) =   11.1292
 Total energy for state 84:                  -436.28975940 au
    Multiplicity: Singlet
    Trans. Mom.: -0.0000 X  -0.2499 Y   0.0002 Z
    Strength   :     0.0170244978
    D(   27) --> V(    6) amplitude =  0.7356
    D(   32) --> V(   16) amplitude = -0.2480
    D(   32) --> V(   18) amplitude = -0.3855

 Excited state  85: excitation energy (eV) =   11.2198
 Total energy for state 85:                  -436.28643185 au
    Multiplicity: Singlet
    Trans. Mom.:  0.0000 X  -0.0002 Y   0.0217 Z
    Strength   :     0.0001294454
    D(   28) --> V(    9) amplitude = -0.3009
    D(   30) --> V(   11) amplitude =  0.8442
    D(   30) --> V(   19) amplitude =  0.3218

 Excited state  86: excitation energy (eV) =   11.2300
 Total energy for state 86:                  -436.28605789 au
    Multiplicity: Singlet
    Trans. Mom.: -0.0001 X  -0.0000 Y   0.0004 Z
    Strength   :     0.0000000479
    D(   31) --> V(   14) amplitude = -0.2419
    D(   31) --> V(   17) amplitude =  0.8618
    D(   31) --> V(   21) amplitude = -0.3247

 Excited state  87: excitation energy (eV) =   11.2525
 Total energy for state 87:                  -436.28522983 au
    Multiplicity: Singlet
    Trans. Mom.:  0.0000 X   0.0001 Y   0.5592 Z
    Strength   :     0.0861974881
    D(   25) --> V(    3) amplitude =  0.9017

 Excited state  88: excitation energy (eV) =   11.2600
 Total energy for state 88:                  -436.28495464 au
    Multiplicity: Singlet
    Trans. Mom.:  0.0001 X  -0.2712 Y   0.0002 Z
    Strength   :     0.0202893660
    D(   26) --> V(    5) amplitude = -0.3130
    D(   30) --> V(    7) amplitude = -0.3702
    D(   30) --> V(   10) amplitude =  0.4429
    D(   30) --> V(   12) amplitude =  0.4491
    D(   30) --> V(   22) amplitude = -0.2645

 Excited state  89: excitation energy (eV) =   11.3219
 Total energy for state 89:                  -436.28267730 au
    Multiplicity: Singlet
    Trans. Mom.:  0.0001 X  -0.0001 Y  -0.0000 Z
    Strength   :     0.0000000029
    D(   30) --> V(    9) amplitude = -0.6330
    D(   30) --> V(   13) amplitude =  0.6593
    D(   30) --> V(   16) amplitude =  0.2684
    D(   30) --> V(   31) amplitude =  0.2267

 Excited state  90: excitation energy (eV) =   11.3329
 Total energy for state 90:                  -436.28227659 au
    Multiplicity: Singlet
    Trans. Mom.: -0.0000 X   0.1148 Y   0.0001 Z
    Strength   :     0.0036579546
    D(   27) --> V(    7) amplitude =  0.8129
    D(   27) --> V(   10) amplitude =  0.3349

 Excited state  91: excitation energy (eV) =   11.3394
 Total energy for state 91:                  -436.28203775 au
    Multiplicity: Singlet
    Trans. Mom.: -0.0001 X   0.1592 Y   0.0000 Z
    Strength   :     0.0070403578
    D(   32) --> V(   16) amplitude =  0.6634
    D(   32) --> V(   18) amplitude = -0.6513

 Excited state  92: excitation energy (eV) =   11.4587
 Total energy for state 92:                  -436.27765358 au
    Multiplicity: Singlet
    Trans. Mom.: -0.0000 X  -0.0001 Y  -0.0004 Z
    Strength   :     0.0000000577
    D(   32) --> V(   15) amplitude =  0.4311
    D(   32) --> V(   20) amplitude =  0.7467
    D(   32) --> V(   22) amplitude =  0.2952

 Excited state  93: excitation energy (eV) =   11.4733
 Total energy for state 93:                  -436.27711535 au
    Multiplicity: Singlet
    Trans. Mom.: -0.0101 X   0.0002 Y  -0.0003 Z
    Strength   :     0.0000285745
    D(   29) --> V(   11) amplitude =  0.5247
    D(   31) --> V(   16) amplitude = -0.2488
    D(   32) --> V(   19) amplitude =  0.7290

 Excited state  94: excitation energy (eV) =   11.4798
 Total energy for state 94:                  -436.27687611 au
    Multiplicity: Singlet
    Trans. Mom.: -0.0006 X   0.1648 Y  -0.0001 Z
    Strength   :     0.0076431695
    D(   26) --> V(    5) amplitude =  0.7737
    D(   28) --> V(    5) amplitude = -0.2153
    D(   31) --> V(   19) amplitude =  0.3039

 Excited state  95: excitation energy (eV) =   11.5067
 Total energy for state 95:                  -436.27588805 au
    Multiplicity: Singlet
    Trans. Mom.: -0.0000 X   0.1097 Y  -0.0007 Z
    Strength   :     0.0033907246
    D(   30) --> V(   10) amplitude = -0.3104
    D(   30) --> V(   15) amplitude =  0.3837
    D(   30) --> V(   20) amplitude = -0.4959
    D(   30) --> V(   22) amplitude = -0.3164
    D(   30) --> V(   25) amplitude = -0.2669
    D(   30) --> V(   30) amplitude = -0.3261

 Excited state  96: excitation energy (eV) =   11.5201
 Total energy for state 96:                  -436.27539358 au
    Multiplicity: Singlet
    Trans. Mom.: -0.5257 X  -0.0001 Y   0.0010 Z
    Strength   :     0.0779955184
    D(   26) --> V(    6) amplitude =  0.5460
    D(   31) --> V(   16) amplitude =  0.4345
    D(   31) --> V(   18) amplitude = -0.5152
    D(   32) --> V(   19) amplitude =  0.2206

 Excited state  97: excitation energy (eV) =   11.5392
 Total energy for state 97:                  -436.27469377 au
    Multiplicity: Singlet
    Trans. Mom.: -0.0010 X  -0.0001 Y  -0.5311 Z
    Strength   :     0.0797333334
    D(   31) --> V(   15) amplitude =  0.3752
    D(   31) --> V(   20) amplitude =  0.7176
    D(   31) --> V(   22) amplitude =  0.3922

 Excited state  98: excitation energy (eV) =   11.5632
 Total energy for state 98:                  -436.27380988 au
    Multiplicity: Singlet
    Trans. Mom.: -0.1791 X  -0.0001 Y  -0.0002 Z
    Strength   :     0.0090831734
    D(   19) --> V(    1) amplitude = -0.3133
    D(   29) --> V(   11) amplitude =  0.6129
    D(   29) --> V(   19) amplitude =  0.2816
    D(   32) --> V(   19) amplitude = -0.5221

 Excited state  99: excitation energy (eV) =   11.5967
 Total energy for state 99:                  -436.27257854 au
    Multiplicity: Singlet
    Trans. Mom.:  0.0003 X   0.0000 Y   0.0001 Z
    Strength   :     0.0000000300
    D(   29) --> V(    6) amplitude = -0.2519
    D(   29) --> V(    7) amplitude = -0.4385
    D(   29) --> V(   10) amplitude =  0.5681
    D(   29) --> V(   12) amplitude =  0.4631
    D(   29) --> V(   22) amplitude = -0.2659

 Excited state 100: excitation energy (eV) =   11.6085
 Total energy for state100:                  -436.27214499 au
    Multiplicity: Singlet
    Trans. Mom.:  0.1732 X  -0.0000 Y   0.0002 Z
    Strength   :     0.0085358632
    D(   19) --> V(    1) amplitude =  0.4950
    D(   26) --> V(    6) amplitude =  0.4005
    D(   26) --> V(    7) amplitude = -0.3286
    D(   29) --> V(   11) amplitude =  0.3214
    D(   31) --> V(   18) amplitude =  0.2290
 
 ---------------------------------------------------

 Direct TDDFT calculation will be performed
 Exchange:     0.2220 Hartree-Fock + 1.0000 wB97X-D + LR-HF
 Correlation:  1.0000 wB97X-D
 Using SG-2 standard quadrature grid
 Dispersion:   Grimme D
 ---------------------------------------------------
 Iter    Rts Conv    Rts Left    Ttl Dev     Max Dev
 ---------------------------------------------------
   1         0         100      0.031496    0.001200
   2         0         100      0.007784    0.000326
   3         0         100      0.002719    0.000267
   4         1          99      0.001268    0.000142
   5         9          91      0.000599    0.000083
   6        42          58      0.000242    0.000036
   7        73          27      0.000106    0.000013
   8        92           8      0.000064    0.000006
   9        97           3      0.000052    0.000002
  10       100           0      0.000049    0.000001    Roots Converged
 ---------------------------------------------------
 
 ---------------------------------------------------
             TDDFT Excitation Energies              
 ---------------------------------------------------

 Excited state   1: excitation energy (eV) =    3.5985
 Total energy for state  1:                  -436.56650850 au
    Multiplicity: Singlet 
    Trans. Mom.:  0.0001 X   0.0000 Y  -0.0000 Z
    Strength   :     0.0000000011
    X: D(   30) --> V(    1) amplitude =  0.9619
    X: D(   30) --> V(    4) amplitude = -0.2669

 Excited state   2: excitation energy (eV) =    4.1824
 Total energy for state  2:                  -436.54505072 au
    Multiplicity: Singlet 
    Trans. Mom.:  0.0001 X   0.0000 Y  -0.0576 Z
    Strength   :     0.0003400981
    X: D(   28) --> V(    1) amplitude =  0.9626
    X: D(   28) --> V(    4) amplitude = -0.2567

 Excited state   3: excitation energy (eV) =    4.6779
 Total energy for state  3:                  -436.52684112 au
    Multiplicity: Singlet 
    Trans. Mom.: -0.0003 X  -0.4063 Y  -0.0000 Z
    Strength   :     0.0189165622
    X: D(   31) --> V(    2) amplitude =  0.2934
    X: D(   32) --> V(    1) amplitude =  0.9491

 Excited state   4: excitation energy (eV) =    4.9541
 Total energy for state  4:                  -436.51669152 au
    Multiplicity: Singlet 
    Trans. Mom.: -1.4193 X   0.0001 Y   0.0001 Z
    Strength   :     0.2445032537
    X: D(   31) --> V(    1) amplitude =  0.9734

 Excited state   5: excitation energy (eV) =    5.9451
 Total energy for state  5:                  -436.48027235 au
    Multiplicity: Singlet 
    Trans. Mom.: -0.0001 X  -0.5187 Y   0.0001 Z
    Strength   :     0.0391902240
    X: D(   29) --> V(    1) amplitude = -0.8873
    X: D(   31) --> V(    2) amplitude =  0.3767

 Excited state   6: excitation energy (eV) =    6.3481
 Total energy for state  6:                  -436.46546305 au
    Multiplicity: Singlet 
    Trans. Mom.: -0.0001 X   0.8818 Y  -0.0000 Z
    Strength   :     0.1209337034
    X: D(   29) --> V(    1) amplitude =  0.4168
    X: D(   31) --> V(    2) amplitude =  0.7049
    X: D(   32) --> V(    1) amplitude = -0.2671
    X: D(   32) --> V(    4) amplitude =  0.4940

 Excited state   7: excitation energy (eV) =    6.6292
 Total energy for state  7:                  -436.45513148 au
    Multiplicity: Singlet 
    Trans. Mom.: -1.2066 X   0.0002 Y  -0.0001 Z
    Strength   :     0.2364696112
    X: D(   31) --> V(    4) amplitude = -0.4003
    X: D(   32) --> V(    2) amplitude =  0.8897

 Excited state   8: excitation energy (eV) =    6.9319
 Total energy for state  8:                  -436.44400831 au
    Multiplicity: Singlet 
    Trans. Mom.: -0.0001 X   0.0000 Y   0.0000 Z
    Strength   :     0.0000000007
    X: D(   27) --> V(    1) amplitude =  0.9601

 Excited state   9: excitation energy (eV) =    7.4804
 Total energy for state  9:                  -436.42385251 au
    Multiplicity: Singlet 
    Trans. Mom.: -0.0001 X  -0.0003 Y   0.0434 Z
    Strength   :     0.0003452196
    X: D(   26) --> V(    1) amplitude =  0.6371
    X: D(   30) --> V(    2) amplitude =  0.7281

 Excited state  10: excitation energy (eV) =    7.5538
 Total energy for state 10:                  -436.42115567 au
    Multiplicity: Singlet 
    Trans. Mom.: -0.0001 X   0.0011 Y   0.0002 Z
    Strength   :     0.0000002196
    X: D(   32) --> V(    3) amplitude =  0.9387

 Excited state  11: excitation energy (eV) =    7.5656
 Total energy for state 11:                  -436.42072182 au
    Multiplicity: Singlet 
    Trans. Mom.: -0.0003 X   0.0022 Y   0.0811 Z
    Strength   :     0.0012215113
    X: D(   26) --> V(    1) amplitude =  0.6718
    X: D(   30) --> V(    2) amplitude = -0.6707

 Excited state  12: excitation energy (eV) =    7.5942
 Total energy for state 12:                  -436.41966899 au
    Multiplicity: Singlet 
    Trans. Mom.: -0.0010 X  -1.6283 Y  -0.0000 Z
    Strength   :     0.4933112505
    X: D(   31) --> V(    2) amplitude = -0.4988
    X: D(   32) --> V(    4) amplitude =  0.8300

 Excited state  13: excitation energy (eV) =    7.6241
 Total energy for state 13:                  -436.41857198 au
    Multiplicity: Singlet 
    Trans. Mom.: -1.2658 X   0.0011 Y  -0.0001 Z
    Strength   :     0.2992549944
    X: D(   31) --> V(    4) amplitude =  0.8577
    X: D(   32) --> V(    2) amplitude =  0.4071

 Excited state  14: excitation energy (eV) =    7.6911
 Total energy for state 14:                  -436.41610862 au
    Multiplicity: Singlet 
    Trans. Mom.: -0.0008 X  -0.0001 Y   0.2978 Z
    Strength   :     0.0167141611
    X: D(   31) --> V(    3) amplitude =  0.9437

 Excited state  15: excitation energy (eV) =    7.8009
 Total energy for state 15:                  -436.41207236 au
    Multiplicity: Singlet 
    Trans. Mom.: -0.0003 X  -0.0003 Y  -0.0000 Z
    Strength   :     0.0000000371
    X: D(   28) --> V(    2) amplitude = -0.5831
    X: D(   30) --> V(    1) amplitude =  0.2128
    X: D(   30) --> V(    4) amplitude =  0.7488

 Excited state  16: excitation energy (eV) =    7.8773
 Total energy for state 16:                  -436.40926516 au
    Multiplicity: Singlet 
    Trans. Mom.: -0.0003 X   0.0002 Y   0.0000 Z
    Strength   :     0.0000000198
    X: D(   28) --> V(    2) amplitude =  0.7715
    X: D(   30) --> V(    4) amplitude =  0.5593

 Excited state  17: excitation energy (eV) =    7.9792
 Total energy for state 17:                  -436.40551973 au
    Multiplicity: Singlet 
    Trans. Mom.:  0.0517 X  -0.0001 Y  -0.0000 Z
    Strength   :     0.0005217113
    X: D(   29) --> V(    2) amplitude =  0.9639

 Excited state  18: excitation energy (eV) =    8.1696
 Total energy for state 18:                  -436.39852470 au
    Multiplicity: Singlet 
    Trans. Mom.:  0.0880 X  -0.0002 Y  -0.0002 Z
    Strength   :     0.0015509719
    X: D(   25) --> V(    1) amplitude =  0.9281
    X: D(   29) --> V(    2) amplitude = -0.2241

 Excited state  19: excitation energy (eV) =    8.1894
 Total energy for state 19:                  -436.39779459 au
    Multiplicity: Singlet 
    Trans. Mom.: -0.0003 X   0.0001 Y  -0.2989 Z
    Strength   :     0.0179303150
    X: D(   27) --> V(    2) amplitude =  0.9231
    X: D(   32) --> V(    5) amplitude =  0.3202

 Excited state  20: excitation energy (eV) =    8.2120
 Total energy for state 20:                  -436.39696442 au
    Multiplicity: Singlet 
    Trans. Mom.: -0.0001 X  -0.0002 Y   0.0182 Z
    Strength   :     0.0000663869
    X: D(   26) --> V(    1) amplitude = -0.2231
    X: D(   28) --> V(    1) amplitude =  0.2401
    X: D(   28) --> V(    4) amplitude =  0.9059

 Excited state  21: excitation energy (eV) =    8.2519
 Total energy for state 21:                  -436.39549971 au
    Multiplicity: Singlet 
    Trans. Mom.:  0.0001 X  -0.0001 Y  -0.3522 Z
    Strength   :     0.0250715757
    X: D(   27) --> V(    2) amplitude = -0.3462
    X: D(   31) --> V(    6) amplitude = -0.2129
    X: D(   32) --> V(    5) amplitude =  0.8597

 Excited state  22: excitation energy (eV) =    8.3698
 Total energy for state 22:                  -436.39116748 au
    Multiplicity: Singlet 
    Trans. Mom.: -0.0001 X   0.0001 Y  -0.0001 Z
    Strength   :     0.0000000036
    X: D(   31) --> V(    5) amplitude = -0.3391
    X: D(   32) --> V(    6) amplitude =  0.6282
    X: D(   32) --> V(    7) amplitude = -0.5576
    X: D(   32) --> V(   10) amplitude = -0.2500

 Excited state  23: excitation energy (eV) =    8.4328
 Total energy for state 23:                  -436.38885137 au
    Multiplicity: Singlet 
    Trans. Mom.: -0.0000 X  -0.2102 Y   0.0001 Z
    Strength   :     0.0091305756
    X: D(   29) --> V(    4) amplitude =  0.9190

 Excited state  24: excitation energy (eV) =    8.4607
 Total energy for state 24:                  -436.38782733 au
    Multiplicity: Singlet 
    Trans. Mom.:  0.0001 X   0.0003 Y   0.0661 Z
    Strength   :     0.0009061116
    X: D(   31) --> V(    6) amplitude =  0.7394
    X: D(   31) --> V(    7) amplitude = -0.4627
    X: D(   31) --> V(   10) amplitude = -0.2662
    X: D(   32) --> V(    5) amplitude =  0.2731

 Excited state  25: excitation energy (eV) =    8.5719
 Total energy for state 25:                  -436.38374075 au
    Multiplicity: Singlet 
    Trans. Mom.: -0.0001 X  -0.0003 Y   0.0001 Z
    Strength   :     0.0000000221
    X: D(   31) --> V(    5) amplitude =  0.8576
    X: D(   32) --> V(    7) amplitude = -0.3456
    X: D(   32) --> V(   10) amplitude = -0.2499

 Excited state  26: excitation energy (eV) =    8.5823
 Total energy for state 26:                  -436.38335620 au
    Multiplicity: Singlet 
    Trans. Mom.: -0.0000 X  -0.5248 Y   0.0001 Z
    Strength   :     0.0579187813
    X: D(   29) --> V(    4) amplitude =  0.2975
    X: D(   30) --> V(    3) amplitude = -0.5294
    X: D(   30) --> V(    6) amplitude =  0.5882
    X: D(   30) --> V(    7) amplitude = -0.3491

 Excited state  27: excitation energy (eV) =    8.6612
 Total energy for state 27:                  -436.38045904 au
    Multiplicity: Singlet 
    Trans. Mom.:  0.0000 X  -0.0002 Y   0.0001 Z
    Strength   :     0.0000000078
    X: D(   26) --> V(    2) amplitude =  0.6327
    X: D(   32) --> V(    6) amplitude =  0.5392
    X: D(   32) --> V(    7) amplitude =  0.3918

 Excited state  28: excitation energy (eV) =    8.6635
 Total energy for state 28:                  -436.38037515 au
    Multiplicity: Singlet 
    Trans. Mom.: -0.0000 X  -0.0001 Y  -0.0001 Z
    Strength   :     0.0000000048
    X: D(   26) --> V(    2) amplitude =  0.6628
    X: D(   31) --> V(    5) amplitude = -0.2596
    X: D(   32) --> V(    6) amplitude = -0.4720
    X: D(   32) --> V(    7) amplitude = -0.3329

 Excited state  29: excitation energy (eV) =    8.8179
 Total energy for state 29:                  -436.37469902 au
    Multiplicity: Singlet 
    Trans. Mom.: -0.0000 X  -0.0001 Y   0.1410 Z
    Strength   :     0.0042945351
    X: D(   31) --> V(    6) amplitude =  0.5785
    X: D(   31) --> V(    7) amplitude =  0.6595
    X: D(   31) --> V(   10) amplitude =  0.3391

 Excited state  30: excitation energy (eV) =    8.9034
 Total energy for state 30:                  -436.37155770 au
    Multiplicity: Singlet 
    Trans. Mom.:  0.0000 X  -0.0001 Y   0.0000 Z
    Strength   :     0.0000000009
    X: D(   29) --> V(    3) amplitude = -0.4679
    X: D(   29) --> V(    6) amplitude =  0.5834
    X: D(   29) --> V(    7) amplitude = -0.4229
    X: D(   29) --> V(   12) amplitude = -0.2570

 Excited state  31: excitation energy (eV) =    8.9279
 Total energy for state 31:                  -436.37065774 au
    Multiplicity: Singlet 
    Trans. Mom.: -0.0000 X   0.0703 Y  -0.0000 Z
    Strength   :     0.0010801325
    X: D(   32) --> V(    9) amplitude =  0.9700

 Excited state  32: excitation energy (eV) =    8.9587
 Total energy for state 32:                  -436.36952533 au
    Multiplicity: Singlet 
    Trans. Mom.: -0.0001 X  -0.0001 Y  -0.0000 Z
    Strength   :     0.0000000067
    X: D(   22) --> V(    1) amplitude =  0.4537
    X: D(   24) --> V(    1) amplitude =  0.4567
    X: D(   26) --> V(    2) amplitude = -0.2134
    X: D(   27) --> V(    4) amplitude =  0.6357

 Excited state  33: excitation energy (eV) =    8.9794
 Total energy for state 33:                  -436.36876379 au
    Multiplicity: Singlet 
    Trans. Mom.: -0.3753 X   0.0000 Y  -0.0000 Z
    Strength   :     0.0309919252
    X: D(   28) --> V(    3) amplitude = -0.4678
    X: D(   28) --> V(    6) amplitude =  0.5355
    X: D(   28) --> V(    7) amplitude = -0.3169
    X: D(   30) --> V(    5) amplitude = -0.3238
    X: D(   30) --> V(    8) amplitude =  0.3332
    X: D(   31) --> V(    9) amplitude =  0.2775

 Excited state  34: excitation energy (eV) =    9.0378
 Total energy for state 34:                  -436.36661839 au
    Multiplicity: Singlet 
    Trans. Mom.:  0.1664 X  -0.0000 Y  -0.0001 Z
    Strength   :     0.0061339905
    X: D(   31) --> V(    9) amplitude =  0.9355

 Excited state  35: excitation energy (eV) =    9.2567
 Total energy for state 35:                  -436.35857509 au
    Multiplicity: Singlet 
    Trans. Mom.:  0.0000 X  -0.0000 Y   0.1150 Z
    Strength   :     0.0029993137
    X: D(   32) --> V(    8) amplitude =  0.9587

 Excited state  36: excitation energy (eV) =    9.3164
 Total energy for state 36:                  -436.35638130 au
    Multiplicity: Singlet 
    Trans. Mom.: -0.0000 X   0.0001 Y  -0.0000 Z
    Strength   :     0.0000000024
    X: D(   20) --> V(    1) amplitude = -0.2881
    X: D(   22) --> V(    1) amplitude = -0.5881
    X: D(   24) --> V(    1) amplitude =  0.6889

 Excited state  37: excitation energy (eV) =    9.4156
 Total energy for state 37:                  -436.35273321 au
    Multiplicity: Singlet 
    Trans. Mom.: -0.0000 X  -0.0001 Y  -0.0001 Z
    Strength   :     0.0000000034
    X: D(   31) --> V(    8) amplitude =  0.9497

 Excited state  38: excitation energy (eV) =    9.4847
 Total energy for state 38:                  -436.35019582 au
    Multiplicity: Singlet 
    Trans. Mom.: -0.0000 X   0.1360 Y   0.0000 Z
    Strength   :     0.0042952027
    X: D(   30) --> V(    3) amplitude = -0.4012
    X: D(   30) --> V(    7) amplitude =  0.7278
    X: D(   30) --> V(   10) amplitude =  0.3528

 Excited state  39: excitation energy (eV) =    9.5465
 Total energy for state 39:                  -436.34792312 au
    Multiplicity: Singlet 
    Trans. Mom.:  0.0001 X   0.0206 Y   0.0000 Z
    Strength   :     0.0000993143
    X: D(   25) --> V(    2) amplitude =  0.9223
    X: D(   31) --> V(   11) amplitude =  0.2429
    X: D(   32) --> V(   13) amplitude =  0.2294

 Excited state  40: excitation energy (eV) =    9.5756
 Total energy for state 40:                  -436.34685530 au
    Multiplicity: Singlet 
    Trans. Mom.:  0.0001 X   0.0000 Y   0.0002 Z
    Strength   :     0.0000000068
    X: D(   32) --> V(    7) amplitude = -0.4813
    X: D(   32) --> V(   10) amplitude =  0.7638
    X: D(   32) --> V(   12) amplitude = -0.3078

 Excited state  41: excitation energy (eV) =    9.5964
 Total energy for state 41:                  -436.34609080 au
    Multiplicity: Singlet 
    Trans. Mom.: -0.0000 X  -0.0000 Y   0.0284 Z
    Strength   :     0.0001900934
    X: D(   21) --> V(    1) amplitude =  0.2344
    X: D(   26) --> V(    4) amplitude = -0.4312
    X: D(   31) --> V(    7) amplitude = -0.4177
    X: D(   31) --> V(   10) amplitude =  0.5821
    X: D(   31) --> V(   12) amplitude = -0.3061

 Excited state  42: excitation energy (eV) =    9.6250
 Total energy for state 42:                  -436.34503787 au
    Multiplicity: Singlet 
    Trans. Mom.: -0.0653 X   0.0000 Y  -0.0001 Z
    Strength   :     0.0010055513
    X: D(   28) --> V(    3) amplitude = -0.2201
    X: D(   28) --> V(    6) amplitude =  0.2369
    X: D(   28) --> V(    7) amplitude = -0.4212
    X: D(   30) --> V(    5) amplitude =  0.6584
    X: D(   30) --> V(    8) amplitude = -0.4530

 Excited state  43: excitation energy (eV) =    9.6787
 Total energy for state 43:                  -436.34306426 au
    Multiplicity: Singlet 
    Trans. Mom.:  0.0001 X  -0.0001 Y   0.2059 Z
    Strength   :     0.0100517372
    X: D(   21) --> V(    1) amplitude = -0.3018
    X: D(   23) --> V(    1) amplitude = -0.4187
    X: D(   26) --> V(    4) amplitude =  0.6017
    X: D(   31) --> V(    7) amplitude = -0.2406
    X: D(   31) --> V(   10) amplitude =  0.4059

 Excited state  44: excitation energy (eV) =    9.7494
 Total energy for state 44:                  -436.34046867 au
    Multiplicity: Singlet 
    Trans. Mom.:  0.0001 X  -0.0000 Y  -0.0001 Z
    Strength   :     0.0000000016
    X: D(   20) --> V(    1) amplitude = -0.3289
    X: D(   22) --> V(    1) amplitude = -0.4051
    X: D(   24) --> V(    1) amplitude = -0.4078
    X: D(   27) --> V(    1) amplitude = -0.2333
    X: D(   27) --> V(    4) amplitude =  0.6625

 Excited state  45: excitation energy (eV) =    9.8322
 Total energy for state 45:                  -436.33742576 au
    Multiplicity: Singlet 
    Trans. Mom.: -0.0257 X  -0.0000 Y   0.0001 Z
    Strength   :     0.0001594479
    X: D(   32) --> V(   11) amplitude =  0.9566

 Excited state  46: excitation energy (eV) =    9.8778
 Total energy for state 46:                  -436.33575043 au
    Multiplicity: Singlet 
    Trans. Mom.:  0.0000 X   0.0001 Y   0.3057 Z
    Strength   :     0.0226153087
    X: D(   29) --> V(    5) amplitude =  0.7066
    X: D(   29) --> V(    8) amplitude = -0.5975

 Excited state  47: excitation energy (eV) =    9.8792
 Total energy for state 47:                  -436.33569827 au
    Multiplicity: Singlet 
    Trans. Mom.: -0.0000 X   0.0000 Y  -0.0046 Z
    Strength   :     0.0000051894
    X: D(   29) --> V(    3) amplitude = -0.5487
    X: D(   29) --> V(    7) amplitude =  0.6637
    X: D(   29) --> V(   10) amplitude =  0.3275

 Excited state  48: excitation energy (eV) =    9.8956
 Total energy for state 48:                  -436.33509610 au
    Multiplicity: Singlet 
    Trans. Mom.: -0.0000 X  -0.2097 Y   0.0002 Z
    Strength   :     0.0106615216
    X: D(   28) --> V(    8) amplitude =  0.2992
    X: D(   30) --> V(    3) amplitude =  0.6742
    X: D(   30) --> V(    6) amplitude =  0.2522
    X: D(   30) --> V(   10) amplitude =  0.4490
    X: D(   30) --> V(   12) amplitude = -0.2592

 Excited state  49: excitation energy (eV) =    9.9188
 Total energy for state 49:                  -436.33424388 au
    Multiplicity: Singlet 
    Trans. Mom.: -0.0001 X  -0.0001 Y   0.1314 Z
    Strength   :     0.0041949024
    X: D(   23) --> V(    1) amplitude =  0.7962
    X: D(   24) --> V(    2) amplitude = -0.2734
    X: D(   26) --> V(    4) amplitude =  0.3861

 Excited state  50: excitation energy (eV) =    9.9914
 Total energy for state 50:                  -436.33157289 au
    Multiplicity: Singlet 
    Trans. Mom.: -0.0001 X   0.0535 Y   0.0000 Z
    Strength   :     0.0007003202
    X: D(   25) --> V(    2) amplitude = -0.3173
    X: D(   31) --> V(   11) amplitude =  0.5310
    X: D(   32) --> V(   13) amplitude =  0.7344

 Excited state  51: excitation energy (eV) =   10.0304
 Total energy for state 51:                  -436.33013971 au
    Multiplicity: Singlet 
    Trans. Mom.:  0.1245 X  -0.0000 Y  -0.0000 Z
    Strength   :     0.0038076345
    X: D(   28) --> V(    3) amplitude =  0.6289
    X: D(   28) --> V(    7) amplitude = -0.5261
    X: D(   31) --> V(   13) amplitude = -0.3027

 Excited state  52: excitation energy (eV) =   10.0716
 Total energy for state 52:                  -436.32862739 au
    Multiplicity: Singlet 
    Trans. Mom.:  0.0000 X   0.0000 Y  -0.0000 Z
    Strength   :     0.0000000004
    X: D(   30) --> V(    9) amplitude =  0.7525
    X: D(   30) --> V(   13) amplitude =  0.5893

 Excited state  53: excitation energy (eV) =   10.1134
 Total energy for state 53:                  -436.32708982 au
    Multiplicity: Singlet 
    Trans. Mom.: -0.0667 X   0.0002 Y   0.0001 Z
    Strength   :     0.0011031006
    X: D(   28) --> V(    3) amplitude =  0.2600
    X: D(   31) --> V(   13) amplitude =  0.8922

 Excited state  54: excitation energy (eV) =   10.1286
 Total energy for state 54:                  -436.32653220 au
    Multiplicity: Singlet 
    Trans. Mom.:  0.0001 X   0.1019 Y   0.0001 Z
    Strength   :     0.0025766296
    X: D(   27) --> V(    3) amplitude = -0.3612
    X: D(   28) --> V(    5) amplitude =  0.5991
    X: D(   28) --> V(    8) amplitude = -0.3115
    X: D(   30) --> V(   10) amplitude =  0.2571
    X: D(   30) --> V(   12) amplitude = -0.2470
    X: D(   31) --> V(   11) amplitude = -0.2932
    X: D(   32) --> V(   13) amplitude =  0.2876

 Excited state  55: excitation energy (eV) =   10.1471
 Total energy for state 55:                  -436.32585253 au
    Multiplicity: Singlet 
    Trans. Mom.: -0.0001 X  -0.0072 Y   0.0000 Z
    Strength   :     0.0000129601
    X: D(   28) --> V(    5) amplitude =  0.2985
    X: D(   31) --> V(   11) amplitude =  0.7372
    X: D(   32) --> V(   13) amplitude = -0.5151

 Excited state  56: excitation energy (eV) =   10.2192
 Total energy for state 56:                  -436.32320228 au
    Multiplicity: Singlet 
    Trans. Mom.:  0.0000 X  -0.0000 Y   0.0000 Z
    Strength   :     0.0000000005
    X: D(   20) --> V(    1) amplitude = -0.7453
    X: D(   22) --> V(    1) amplitude =  0.3938
    X: D(   22) --> V(    4) amplitude =  0.3142
    X: D(   29) --> V(    3) amplitude =  0.2222

 Excited state  57: excitation energy (eV) =   10.2651
 Total energy for state 57:                  -436.32151754 au
    Multiplicity: Singlet 
    Trans. Mom.: -0.0001 X  -0.1911 Y   0.0000 Z
    Strength   :     0.0091802979
    X: D(   27) --> V(    3) amplitude =  0.8672

 Excited state  58: excitation energy (eV) =   10.3244
 Total energy for state 58:                  -436.31933624 au
    Multiplicity: Singlet 
    Trans. Mom.:  0.0005 X  -0.0001 Y  -0.0005 Z
    Strength   :     0.0000001185
    X: D(   32) --> V(   10) amplitude =  0.3574
    X: D(   32) --> V(   12) amplitude =  0.8001
    X: D(   32) --> V(   15) amplitude =  0.3288

 Excited state  59: excitation energy (eV) =   10.3296
 Total energy for state 59:                  -436.31914444 au
    Multiplicity: Singlet 
    Trans. Mom.: -0.0000 X   0.0000 Y   0.0902 Z
    Strength   :     0.0020610289
    X: D(   24) --> V(    2) amplitude =  0.9131

 Excited state  60: excitation energy (eV) =   10.3351
 Total energy for state 60:                  -436.31894287 au
    Multiplicity: Singlet 
    Trans. Mom.:  0.0010 X  -0.0000 Y  -0.0000 Z
    Strength   :     0.0000002505
    X: D(   20) --> V(    1) amplitude =  0.3044
    X: D(   29) --> V(    3) amplitude =  0.5092
    X: D(   29) --> V(    6) amplitude =  0.2371
    X: D(   29) --> V(   10) amplitude =  0.5284
    X: D(   29) --> V(   12) amplitude = -0.3512
    X: D(   29) --> V(   15) amplitude =  0.2289

 Excited state  61: excitation energy (eV) =   10.3378
 Total energy for state 61:                  -436.31884384 au
    Multiplicity: Singlet 
    Trans. Mom.: -0.4507 X   0.0001 Y   0.0001 Z
    Strength   :     0.0514405865
    X: D(   28) --> V(    7) amplitude =  0.3231
    X: D(   28) --> V(   10) amplitude =  0.5054
    X: D(   28) --> V(   15) amplitude =  0.2166
    X: D(   30) --> V(    5) amplitude =  0.4876
    X: D(   30) --> V(    8) amplitude =  0.3161

 Excited state  62: excitation energy (eV) =   10.3957
 Total energy for state 62:                  -436.31671759 au
    Multiplicity: Singlet 
    Trans. Mom.:  0.0000 X   0.0001 Y  -0.4683 Z
    Strength   :     0.0558512225
    X: D(   31) --> V(   10) amplitude =  0.4117
    X: D(   31) --> V(   12) amplitude =  0.7650
    X: D(   31) --> V(   15) amplitude =  0.3539

 Excited state  63: excitation energy (eV) =   10.4616
 Total energy for state 63:                  -436.31429326 au
    Multiplicity: Singlet 
    Trans. Mom.:  0.0001 X   0.0417 Y  -0.0003 Z
    Strength   :     0.0004462721
    X: D(   28) --> V(    5) amplitude =  0.2428
    X: D(   29) --> V(    9) amplitude =  0.3253
    X: D(   29) --> V(   13) amplitude =  0.2613
    X: D(   30) --> V(    6) amplitude =  0.6121
    X: D(   30) --> V(   12) amplitude =  0.4317

 Excited state  64: excitation energy (eV) =   10.5046
 Total energy for state 64:                  -436.31271435 au
    Multiplicity: Singlet 
    Trans. Mom.:  0.0001 X  -0.0001 Y  -0.0314 Z
    Strength   :     0.0002530701
    X: D(   28) --> V(    9) amplitude =  0.7198
    X: D(   28) --> V(   13) amplitude =  0.5428
    X: D(   30) --> V(   11) amplitude =  0.2934

 Excited state  65: excitation energy (eV) =   10.5170
 Total energy for state 65:                  -436.31225796 au
    Multiplicity: Singlet 
    Trans. Mom.: -0.2540 X   0.0006 Y   0.0000 Z
    Strength   :     0.0166273297
    X: D(   26) --> V(    3) amplitude =  0.6276
    X: D(   28) --> V(    6) amplitude =  0.3168
    X: D(   30) --> V(    5) amplitude = -0.2499
    X: D(   30) --> V(    8) amplitude = -0.4698

 Excited state  66: excitation energy (eV) =   10.5178
 Total energy for state 66:                  -436.31222985 au
    Multiplicity: Singlet 
    Trans. Mom.:  0.0018 X   0.0894 Y   0.0000 Z
    Strength   :     0.0020594101
    X: D(   29) --> V(    9) amplitude =  0.6787
    X: D(   29) --> V(   13) amplitude =  0.5107
    X: D(   30) --> V(    6) amplitude = -0.3013
    X: D(   30) --> V(   12) amplitude = -0.2326

 Excited state  67: excitation energy (eV) =   10.5490
 Total energy for state 67:                  -436.31108223 au
    Multiplicity: Singlet 
    Trans. Mom.:  0.0151 X  -0.0001 Y  -0.0001 Z
    Strength   :     0.0000589919
    X: D(   25) --> V(    4) amplitude =  0.8676

 Excited state  68: excitation energy (eV) =   10.6655
 Total energy for state 68:                  -436.30680298 au
    Multiplicity: Singlet 
    Trans. Mom.:  0.0000 X   0.0000 Y  -0.0006 Z
    Strength   :     0.0000000981
    X: D(   32) --> V(   12) amplitude = -0.2469
    X: D(   32) --> V(   15) amplitude =  0.7149
    X: D(   32) --> V(   20) amplitude = -0.4123

 Excited state  69: excitation energy (eV) =   10.7041
 Total energy for state 69:                  -436.30538361 au
    Multiplicity: Singlet 
    Trans. Mom.: -0.0000 X   0.0000 Y  -0.4397 Z
    Strength   :     0.0506953371
    X: D(   31) --> V(   10) amplitude = -0.2193
    X: D(   31) --> V(   12) amplitude = -0.3082
    X: D(   31) --> V(   15) amplitude =  0.6201
    X: D(   31) --> V(   20) amplitude = -0.3635
    X: D(   32) --> V(   14) amplitude =  0.3430

 Excited state  70: excitation energy (eV) =   10.7335
 Total energy for state 70:                  -436.30430103 au
    Multiplicity: Singlet 
    Trans. Mom.: -0.0687 X  -0.0000 Y  -0.0001 Z
    Strength   :     0.0012416598
    X: D(   25) --> V(    4) amplitude = -0.2968
    X: D(   26) --> V(    3) amplitude =  0.5747
    X: D(   28) --> V(    3) amplitude = -0.2943
    X: D(   28) --> V(   10) amplitude = -0.2541
    X: D(   28) --> V(   12) amplitude =  0.3061
    X: D(   30) --> V(    5) amplitude =  0.2935
    X: D(   30) --> V(    8) amplitude =  0.3077

 Excited state  71: excitation energy (eV) =   10.7340
 Total energy for state 71:                  -436.30428481 au
    Multiplicity: Singlet 
    Trans. Mom.:  0.0002 X   0.0001 Y  -0.0648 Z
    Strength   :     0.0011043561
    X: D(   29) --> V(    5) amplitude = -0.2767
    X: D(   29) --> V(    8) amplitude = -0.2125
    X: D(   31) --> V(   15) amplitude = -0.3257
    X: D(   32) --> V(   14) amplitude =  0.7719

 Excited state  72: excitation energy (eV) =   10.8043
 Total energy for state 72:                  -436.30170111 au
    Multiplicity: Singlet 
    Trans. Mom.:  0.0000 X  -0.0000 Y  -0.0002 Z
    Strength   :     0.0000000069
    X: D(   29) --> V(    3) amplitude =  0.2532
    X: D(   29) --> V(    6) amplitude =  0.6428
    X: D(   29) --> V(   12) amplitude =  0.5242
    X: D(   29) --> V(   15) amplitude = -0.2166

[...]
    e-/hole pair  2:  ampl =  0.2072   ( 4.3 %)
    e-/hole pair  3:  ampl =  0.1545   ( 2.4 %)
  These amplitudes account for 97.1 % of total amplitude

  Excited state 47:   9.8792 eV (singlet)
    e-/hole pair  1:  ampl =  0.9840   (96.8 %)
  These amplitudes account for 96.8 % of total amplitude

  Excited state 48:   9.8956 eV (singlet)
    e-/hole pair  1:  ampl =  0.9107   (83.1 %)
    e-/hole pair  2:  ampl =  0.3989   (15.9 %)
  These amplitudes account for 99.0 % of total amplitude

  Excited state 49:   9.9188 eV (singlet)
    e-/hole pair  1:  ampl =  0.8203   (67.9 %)
    e-/hole pair  2:  ampl =  0.4134   (17.2 %)
    e-/hole pair  3:  ampl =  0.2810   ( 8.0 %)
    e-/hole pair  4:  ampl =  0.1727   ( 3.0 %)
    e-/hole pair  5:  ampl =  0.1689   ( 2.9 %)
  These amplitudes account for 99.0 % of total amplitude

  Excited state 50:   9.9914 eV (singlet)
    e-/hole pair  1:  ampl =  0.7732   (59.3 %)
    e-/hole pair  2:  ampl =  0.5340   (28.3 %)
    e-/hole pair  3:  ampl =  0.3246   (10.5 %)
  These amplitudes account for 98.0 % of total amplitude

  Excited state 51:  10.0304 eV (singlet)
    e-/hole pair  1:  ampl =  0.8874   (78.7 %)
    e-/hole pair  2:  ampl =  0.3087   ( 9.5 %)
    e-/hole pair  3:  ampl =  0.2638   ( 7.0 %)
    e-/hole pair  4:  ampl =  0.1667   ( 2.8 %)
  These amplitudes account for 98.0 % of total amplitude

  Excited state 52:  10.0716 eV (singlet)
    e-/hole pair  1:  ampl =  0.9816   (96.3 %)
    e-/hole pair  2:  ampl =  0.1657   ( 2.7 %)
  These amplitudes account for 99.1 % of total amplitude

  Excited state 53:  10.1134 eV (singlet)
    e-/hole pair  1:  ampl =  0.8994   (80.5 %)
    e-/hole pair  2:  ampl =  0.3238   (10.4 %)
    e-/hole pair  3:  ampl =  0.2273   ( 5.1 %)
    e-/hole pair  4:  ampl =  0.1626   ( 2.6 %)
  These amplitudes account for 98.7 % of total amplitude

  Excited state 54:  10.1286 eV (singlet)
    e-/hole pair  1:  ampl =  0.6871   (47.4 %)
    e-/hole pair  2:  ampl =  0.4380   (19.3 %)
    e-/hole pair  3:  ampl =  0.3715   (13.9 %)
    e-/hole pair  4:  ampl =  0.3054   ( 9.4 %)
    e-/hole pair  5:  ampl =  0.2934   ( 8.6 %)
  These amplitudes account for 98.5 % of total amplitude

  Excited state 55:  10.1471 eV (singlet)
    e-/hole pair  1:  ampl =  0.7367   (54.5 %)
    e-/hole pair  2:  ampl =  0.5170   (26.8 %)
    e-/hole pair  3:  ampl =  0.3495   (12.3 %)
    e-/hole pair  4:  ampl =  0.2261   ( 5.1 %)
  These amplitudes account for 98.8 % of total amplitude

  Excited state 56:  10.2192 eV (singlet)
    e-/hole pair  1:  ampl =  0.8463   (72.7 %)
    e-/hole pair  2:  ampl =  0.3633   (13.4 %)
    e-/hole pair  3:  ampl =  0.3438   (12.0 %)
  These amplitudes account for 98.0 % of total amplitude

  Excited state 57:  10.2651 eV (singlet)
    e-/hole pair  1:  ampl =  0.8875   (79.0 %)
    e-/hole pair  2:  ampl =  0.3169   (10.1 %)
    e-/hole pair  3:  ampl =  0.2452   ( 6.0 %)
  These amplitudes account for 95.2 % of total amplitude

  Excited state 58:  10.3244 eV (singlet)
    e-/hole pair  1:  ampl =  0.9714   (94.3 %)
    e-/hole pair  2:  ampl =  0.1792   ( 3.2 %)
  These amplitudes account for 97.5 % of total amplitude

  Excited state 59:  10.3296 eV (singlet)
    e-/hole pair  1:  ampl =  0.9201   (85.5 %)
    e-/hole pair  2:  ampl =  0.2853   ( 8.2 %)
    e-/hole pair  3:  ampl =  0.1923   ( 3.7 %)
  These amplitudes account for 97.5 % of total amplitude

  Excited state 60:  10.3351 eV (singlet)
    e-/hole pair  1:  ampl =  0.9129   (84.4 %)
    e-/hole pair  2:  ampl =  0.3195   (10.3 %)
    e-/hole pair  3:  ampl =  0.1671   ( 2.8 %)
  These amplitudes account for 97.5 % of total amplitude

  Excited state 61:  10.3378 eV (singlet)
    e-/hole pair  1:  ampl =  0.7269   (53.2 %)
    e-/hole pair  2:  ampl =  0.6268   (39.6 %)
    e-/hole pair  3:  ampl =  0.1694   ( 2.9 %)
  These amplitudes account for 95.7 % of total amplitude

  Excited state 62:  10.3957 eV (singlet)
    e-/hole pair  1:  ampl =  0.9669   (93.4 %)
    e-/hole pair  2:  ampl =  0.1879   ( 3.5 %)
  These amplitudes account for 96.9 % of total amplitude

  Excited state 63:  10.4616 eV (singlet)
    e-/hole pair  1:  ampl =  0.8402   (70.6 %)
    e-/hole pair  2:  ampl =  0.4302   (18.5 %)
    e-/hole pair  3:  ampl =  0.3069   ( 9.4 %)
  These amplitudes account for 98.5 % of total amplitude

  Excited state 64:  10.5046 eV (singlet)
    e-/hole pair  1:  ampl =  0.9229   (85.1 %)
    e-/hole pair  2:  ampl =  0.3523   (12.4 %)
  These amplitudes account for 97.6 % of total amplitude

  Excited state 65:  10.5170 eV (singlet)
    e-/hole pair  1:  ampl =  0.7088   (50.4 %)
    e-/hole pair  2:  ampl =  0.5823   (34.0 %)
    e-/hole pair  3:  ampl =  0.3698   (13.7 %)
  These amplitudes account for 98.1 % of total amplitude

  Excited state 66:  10.5178 eV (singlet)
    e-/hole pair  1:  ampl =  0.8674   (75.4 %)
    e-/hole pair  2:  ampl =  0.4520   (20.5 %)
    e-/hole pair  3:  ampl =  0.1673   ( 2.8 %)
  These amplitudes account for 98.7 % of total amplitude

  Excited state 67:  10.5490 eV (singlet)
    e-/hole pair  1:  ampl =  0.8549   (75.0 %)
    e-/hole pair  2:  ampl =  0.2442   ( 6.1 %)
    e-/hole pair  3:  ampl =  0.2421   ( 6.0 %)
    e-/hole pair  4:  ampl =  0.2019   ( 4.2 %)
    e-/hole pair  5:  ampl =  0.1834   ( 3.5 %)
    e-/hole pair  6:  ampl =  0.1515   ( 2.4 %)
  These amplitudes account for 97.1 % of total amplitude

  Excited state 68:  10.6655 eV (singlet)
    e-/hole pair  1:  ampl =  0.9333   (87.0 %)
    e-/hole pair  2:  ampl =  0.2785   ( 7.7 %)
    e-/hole pair  3:  ampl =  0.2011   ( 4.0 %)
  These amplitudes account for 98.8 % of total amplitude

  Excited state 69:  10.7041 eV (singlet)
    e-/hole pair  1:  ampl =  0.8835   (78.4 %)
    e-/hole pair  2:  ampl =  0.3583   (12.9 %)
    e-/hole pair  3:  ampl =  0.1851   ( 3.4 %)
    e-/hole pair  4:  ampl =  0.1525   ( 2.3 %)
  These amplitudes account for 97.1 % of total amplitude

  Excited state 70:  10.7335 eV (singlet)
    e-/hole pair  1:  ampl =  0.7063   (50.0 %)
    e-/hole pair  2:  ampl =  0.4394   (19.3 %)
    e-/hole pair  3:  ampl =  0.3653   (13.4 %)
    e-/hole pair  4:  ampl =  0.2980   ( 8.9 %)
    e-/hole pair  5:  ampl =  0.2618   ( 6.9 %)
  These amplitudes account for 98.4 % of total amplitude

  Excited state 71:  10.7340 eV (singlet)
    e-/hole pair  1:  ampl =  0.8228   (67.6 %)
    e-/hole pair  2:  ampl =  0.3987   (15.9 %)
    e-/hole pair  3:  ampl =  0.3654   (13.3 %)
  These amplitudes account for 96.8 % of total amplitude

  Excited state 72:  10.8043 eV (singlet)
    e-/hole pair  1:  ampl =  0.9485   (90.0 %)
    e-/hole pair  2:  ampl =  0.2379   ( 5.7 %)
    e-/hole pair  3:  ampl =  0.1915   ( 3.7 %)
  These amplitudes account for 99.3 % of total amplitude

  Excited state 73:  10.8397 eV (singlet)
    e-/hole pair  1:  ampl =  0.6894   (47.7 %)
    e-/hole pair  2:  ampl =  0.4961   (24.7 %)
    e-/hole pair  3:  ampl =  0.3524   (12.5 %)
    e-/hole pair  4:  ampl =  0.3380   (11.5 %)
  These amplitudes account for 96.3 % of total amplitude

  Excited state 74:  10.8708 eV (singlet)
    e-/hole pair  1:  ampl =  0.6830   (46.9 %)
    e-/hole pair  2:  ampl =  0.5935   (35.4 %)
    e-/hole pair  3:  ampl =  0.3142   ( 9.9 %)
    e-/hole pair  4:  ampl =  0.2100   ( 4.4 %)
  These amplitudes account for 96.7 % of total amplitude

  Excited state 75:  10.8755 eV (singlet)
    e-/hole pair  1:  ampl =  0.8726   (76.4 %)
    e-/hole pair  2:  ampl =  0.3091   ( 9.6 %)
    e-/hole pair  3:  ampl =  0.2159   ( 4.7 %)
    e-/hole pair  4:  ampl =  0.1751   ( 3.1 %)
    e-/hole pair  5:  ampl =  0.1679   ( 2.8 %)
  These amplitudes account for 96.6 % of total amplitude

  Excited state 76:  10.8891 eV (singlet)
    e-/hole pair  1:  ampl =  0.9231   (85.1 %)
    e-/hole pair  2:  ampl =  0.2526   ( 6.4 %)
    e-/hole pair  3:  ampl =  0.1908   ( 3.6 %)
  These amplitudes account for 95.1 % of total amplitude

  Excited state 77:  10.8976 eV (singlet)
    e-/hole pair  1:  ampl =  0.9287   (88.5 %)
    e-/hole pair  2:  ampl =  0.2174   ( 4.8 %)
  These amplitudes account for 93.3 % of total amplitude

  Excited state 78:  10.9221 eV (singlet)
    e-/hole pair  1:  ampl =  0.8710   (76.1 %)
    e-/hole pair  2:  ampl =  0.2770   ( 7.7 %)
    e-/hole pair  3:  ampl =  0.2535   ( 6.4 %)
    e-/hole pair  4:  ampl =  0.2238   ( 5.0 %)
    e-/hole pair  5:  ampl =  0.1797   ( 3.2 %)
  These amplitudes account for 98.5 % of total amplitude

  Excited state 79:  10.9259 eV (singlet)
    e-/hole pair  1:  ampl =  0.8564   (73.6 %)
    e-/hole pair  2:  ampl =  0.3934   (15.5 %)
    e-/hole pair  3:  ampl =  0.1836   ( 3.4 %)
    e-/hole pair  4:  ampl =  0.1699   ( 2.9 %)
  These amplitudes account for 95.4 % of total amplitude

  Excited state 80:  10.9615 eV (singlet)
    e-/hole pair  1:  ampl =  0.8828   (79.2 %)
    e-/hole pair  2:  ampl =  0.2942   ( 8.8 %)
    e-/hole pair  3:  ampl =  0.2324   ( 5.5 %)
    e-/hole pair  4:  ampl =  0.1726   ( 3.0 %)
  These amplitudes account for 96.6 % of total amplitude

  Excited state 81:  10.9615 eV (singlet)
    e-/hole pair  1:  ampl =  0.8292   (69.9 %)
    e-/hole pair  2:  ampl =  0.3263   (10.8 %)
    e-/hole pair  3:  ampl =  0.2812   ( 8.0 %)
    e-/hole pair  4:  ampl =  0.1928   ( 3.8 %)
  These amplitudes account for 92.5 % of total amplitude

  Excited state 82:  11.0122 eV (singlet)
    e-/hole pair  1:  ampl =  0.9517   (90.4 %)
    e-/hole pair  2:  ampl =  0.2270   ( 5.1 %)
    e-/hole pair  3:  ampl =  0.1598   ( 2.5 %)
  These amplitudes account for 98.1 % of total amplitude

  Excited state 83:  11.0523 eV (singlet)
    e-/hole pair  1:  ampl =  0.7785   (61.6 %)
    e-/hole pair  2:  ampl =  0.4342   (19.2 %)
    e-/hole pair  3:  ampl =  0.3771   (14.4 %)
  These amplitudes account for 95.2 % of total amplitude

  Excited state 84:  11.1008 eV (singlet)
    e-/hole pair  1:  ampl =  0.8962   (80.6 %)
    e-/hole pair  2:  ampl =  0.2266   ( 5.2 %)
    e-/hole pair  3:  ampl =  0.2064   ( 4.3 %)
    e-/hole pair  4:  ampl =  0.1912   ( 3.7 %)
    e-/hole pair  5:  ampl =  0.1887   ( 3.6 %)
  These amplitudes account for 97.3 % of total amplitude

  Excited state 85:  11.2193 eV (singlet)
    e-/hole pair  1:  ampl =  0.9064   (82.1 %)
    e-/hole pair  2:  ampl =  0.3690   (13.6 %)
  These amplitudes account for 95.7 % of total amplitude

  Excited state 86:  11.2271 eV (singlet)
    e-/hole pair  1:  ampl =  0.9721   (94.2 %)
    e-/hole pair  2:  ampl =  0.1731   ( 3.0 %)
  These amplitudes account for 97.2 % of total amplitude

  Excited state 87:  11.2479 eV (singlet)
    e-/hole pair  1:  ampl =  0.9418   (88.8 %)
    e-/hole pair  2:  ampl =  0.2146   ( 4.6 %)
    e-/hole pair  3:  ampl =  0.1944   ( 3.8 %)
  These amplitudes account for 97.2 % of total amplitude

  Excited state 88:  11.2545 eV (singlet)
    e-/hole pair  1:  ampl =  0.8455   (71.6 %)
    e-/hole pair  2:  ampl =  0.3733   (14.0 %)
    e-/hole pair  3:  ampl =  0.2754   ( 7.6 %)
    e-/hole pair  4:  ampl =  0.1909   ( 3.6 %)
  These amplitudes account for 96.8 % of total amplitude

  Excited state 89:  11.3211 eV (singlet)
    e-/hole pair  1:  ampl =  0.7664   (58.8 %)
    e-/hole pair  2:  ampl =  0.5373   (28.9 %)
    e-/hole pair  3:  ampl =  0.2819   ( 8.0 %)
  These amplitudes account for 95.7 % of total amplitude

  Excited state 90:  11.3214 eV (singlet)
    e-/hole pair  1:  ampl =  0.9898   (98.0 %)
  These amplitudes account for 98.0 % of total amplitude

  Excited state 91:  11.3249 eV (singlet)
    e-/hole pair  1:  ampl =  0.7957   (63.3 %)
    e-/hole pair  2:  ampl =  0.5692   (32.4 %)
  These amplitudes account for 95.8 % of total amplitude

  Excited state 92:  11.3560 eV (singlet)
    e-/hole pair  1:  ampl =  0.8055   (68.1 %)
    e-/hole pair  2:  ampl =  0.2782   ( 8.1 %)
    e-/hole pair  3:  ampl =  0.2417   ( 6.1 %)
    e-/hole pair  4:  ampl =  0.2256   ( 5.3 %)
    e-/hole pair  5:  ampl =  0.2113   ( 4.7 %)
  These amplitudes account for 92.4 % of total amplitude

  Excited state 93:  11.4558 eV (singlet)
    e-/hole pair  1:  ampl =  0.9750   (95.1 %)
    e-/hole pair  2:  ampl =  0.1597   ( 2.6 %)
  These amplitudes account for 97.7 % of total amplitude

  Excited state 94:  11.4605 eV (singlet)
    e-/hole pair  1:  ampl =  0.8196   (67.4 %)
    e-/hole pair  2:  ampl =  0.3689   (13.6 %)
    e-/hole pair  3:  ampl =  0.3530   (12.5 %)
  These amplitudes account for 93.5 % of total amplitude

  Excited state 95:  11.4731 eV (singlet)
    e-/hole pair  1:  ampl =  0.8399   (70.6 %)
    e-/hole pair  2:  ampl =  0.3206   (10.3 %)
    e-/hole pair  3:  ampl =  0.2494   ( 6.2 %)
    e-/hole pair  4:  ampl =  0.2102   ( 4.4 %)
    e-/hole pair  5:  ampl =  0.1808   ( 3.3 %)
    e-/hole pair  6:  ampl =  0.1570   ( 2.5 %)
  These amplitudes account for 97.3 % of total amplitude

  Excited state 96:  11.4939 eV (singlet)
    e-/hole pair  1:  ampl =  0.9473   (90.5 %)
    e-/hole pair  2:  ampl =  0.1973   ( 3.9 %)
    e-/hole pair  3:  ampl =  0.1547   ( 2.4 %)
  These amplitudes account for 96.8 % of total amplitude

  Excited state 97:  11.5100 eV (singlet)
    e-/hole pair  1:  ampl =  0.6701   (45.0 %)
    e-/hole pair  2:  ampl =  0.5551   (30.9 %)
    e-/hole pair  3:  ampl =  0.3480   (12.1 %)
    e-/hole pair  4:  ampl =  0.2051   ( 4.2 %)
    e-/hole pair  5:  ampl =  0.1592   ( 2.5 %)
  These amplitudes account for 94.7 % of total amplitude

  Excited state 98:  11.5322 eV (singlet)
    e-/hole pair  1:  ampl =  0.9613   (92.4 %)
    e-/hole pair  2:  ampl =  0.1870   ( 3.5 %)
  These amplitudes account for 95.9 % of total amplitude

  Excited state 99:  11.5673 eV (singlet)
    e-/hole pair  1:  ampl =  0.8190   (67.1 %)
    e-/hole pair  2:  ampl =  0.3554   (12.6 %)
    e-/hole pair  3:  ampl =  0.3486   (12.2 %)
    e-/hole pair  4:  ampl =  0.1529   ( 2.3 %)
  These amplitudes account for 94.3 % of total amplitude

  Excited state 100:  11.5951 eV (singlet)
    e-/hole pair  1:  ampl =  0.9783   (95.7 %)
  These amplitudes account for 95.7 % of total amplitude

 =======================================================
 
 --------------------------------------------------------------
 
                    Orbital Energies (a.u.)
 --------------------------------------------------------------
 
 Alpha MOs
 -- Occupied --
-19.2922 -19.2921 -14.6858 -10.3671 -10.3294 -10.3294 -10.3275 -10.3241
-10.3241  -1.3273  -1.1541  -1.0079  -0.9232  -0.8867  -0.8145  -0.7408
 -0.7050  -0.6675  -0.6293  -0.6150  -0.6124  -0.5702  -0.5662  -0.5473
 -0.4929  -0.4839  -0.4658  -0.4093  -0.4028  -0.3902  -0.3700  -0.3662
 -- Virtual --
 -0.0447   0.0242   0.0519   0.0532   0.0699   0.0767   0.0939   0.0988
  0.1083   0.1163   0.1363   0.1408   0.1422   0.1597   0.1800   0.1814
  0.1857   0.1872   0.1872   0.1990   0.2007   0.2022   0.2331   0.2364
  0.2389   0.2420   0.2422   0.2497   0.2540   0.2546   0.2604   0.2704
  0.2733   0.2822   0.3024   0.3108   0.3171   0.3244   0.3275   0.3354
  0.3515   0.3655   0.3683   0.3747   0.3851   0.3952   0.4183   0.4506
  0.4640   0.4772   0.5027   0.5181   0.5603   0.5697   0.5770   0.5773
  0.6015   0.6164   0.6235   0.6317   0.6575   0.6694   0.6785   0.6840
  0.7038   0.7337   0.7400   0.7583   0.7740   0.7922   0.8065   0.8520
  0.8807   0.8872   0.8956   0.9108   0.9175   0.9350   0.9409   0.9605
  0.9777   1.0315   1.0535   1.0762   1.0840   1.0947   1.1411   1.1745
  1.1851   1.2438   1.2476   1.2558   1.2681   1.2744   1.2799   1.3040
  1.3316   1.3804   1.3981   1.4671   1.5628   1.5805   1.5891   1.6181
  1.7532   1.7569   1.7720   1.7810   1.8344   1.8423   1.8860   1.8879
  1.9251   1.9690   1.9766   1.9929   2.0394   2.0544   2.0854   2.1800
  2.2322   2.2393   2.3141   2.3326   2.3933   2.4085   2.4379   2.4607
  2.4858   2.5788   2.6310   2.7091   2.7342   2.8231   2.8346   2.8455
  2.8766   2.9022   2.9233   2.9558   2.9616   2.9631   2.9759   3.1323
  3.1799   3.2415   3.3163   3.3222   3.3645   3.3852   3.3934   3.4033
  3.4094   3.5060   3.6025   3.7028   3.7068   3.7325   3.7573   3.8553
  3.8986   4.0858   4.0965   4.5928   4.7762   4.8505   5.0848   5.1148
  5.1982   5.2445   5.7939   6.3012  23.4257  23.9421  23.9548  24.1294
 24.1442  24.2440  35.4840  50.0183  50.1089
 --------------------------------------------------------------
 
          Ground-State Mulliken Net Atomic Charges

     Atom                 Charge (a.u.)
  ----------------------------------------
      1 C                    -0.444118
      2 C                     0.176711
      3 C                    -0.476201
      4 C                     0.176702
      5 C                    -0.136236
      6 H                     0.261600
      7 H                     0.290819
      8 H                     0.290822
      9 H                     0.258020
     10 N                    -0.142453
     11 O                    -0.036573
     12 O                    -0.036560
     13 C                    -0.444134
     14 H                     0.261601
  ----------------------------------------
  Sum of atomic charges =     0.000000

 -----------------------------------------------------------------
                    Cartesian Multipole Moments
 -----------------------------------------------------------------
    Charge (ESU x 10^10)
                -0.0000
    Dipole Moment (Debye)
         X      -5.1385      Y       0.0001      Z      -0.0004
       Tot       5.1385
    Quadrupole Moments (Debye-Ang)
        XX     -55.6648     XY       0.0003     YY     -47.3548
        XZ       0.0010     YZ       0.0008     ZZ     -53.5506
    Octopole Moments (Debye-Ang^2)
       XXX     -36.1132    XXY      -0.0009    XYY      -9.1082
       YYY       0.0010    XXZ      -0.0038    XYZ       0.0011
       YYZ      -0.0014    XZZ      12.9968    YZZ      -0.0001
       ZZZ      -0.0007
    Hexadecapole Moments (Debye-Ang^3)
      XXXX   -1008.1118   XXXY       0.0047   XXYY    -231.8555
      XYYY      -0.0001   YYYY    -347.4200   XXXZ       0.0147
      XXYZ       0.0024   XYYZ       0.0025   YYYZ       0.0015
      XXZZ    -185.6461   XYZZ       0.0004   YYZZ     -79.8411
      XZZZ       0.0012   YZZZ      -0.0014   ZZZZ     -56.3472
 -----------------------------------------------------------------
Grid information in Angstroms:
 x:         75  min =  -6.599850 max =   5.295760
 y:         75  min =  -5.150870 max =   5.150930
 z:         75  min =  -3.000230 max =   3.000110
 Plotting NTOs for the following states:  1 2 3 4 5 6 7 8 9 10 11 12 13 14 15 16 17 18 19 20 21 22 23 24 25 26 27 28 29 30 31 32 33 34 35 36 37 38 39 40 41 42 43 44 45 46 47 48 49 50 51 52 53 54 55 56 57 58 59 60 61 62 63 64 65 66 67 68 69 70 71 72 73 74 75 76 77 78 79 80 81 82 83 84 85 86 87 88 89 90 91 92 93 94 95 96 97 98 99 100
 Created directory /local_scratch/16768007/QCLOCALSCR/save/plots
 Plotting total densities:  0 1 2 3 4 5 6 7 8 9 10 11 12 13 14 15 16 17 18 19 20 21 22 23 24 25 26 27 28 29 30 31 32 33 34 35 36 37 38 39 40 41 42 43 44 45 46 47 48 49 50 51 52 53 54 55 56 57 58 59 60 61 62 63 64 65 66 67 68 69 70 71 72 73 74 75 76 77 78 79 80 81 82 83 84 85 86 87 88 89 90 91 92 93 94 95 96 97 98 99 100
 Plotting transition densities:  1 2 3 4 5 6 7 8 9 10 11 12 13 14 15 16 17 18 19 20 21 22 23 24 25 26 27 28 29 30 31 32 33 34 35 36 37 38 39 40 41 42 43 44 45 46 47 48 49 50 51 52 53 54 55 56 57 58 59 60 61 62 63 64 65 66 67 68 69 70 71 72 73 74 75 76 77 78 79 80 81 82 83 84 85 86 87 88 89 90 91 92 93 94 95 96 97 98 99 100
 Total job time:  905.73s(wall), 9230.93s(cpu) 
 Fri May 19 20:13:55 2023

        *************************************************************
        *                                                           *
        *  Thank you very much for using Q-Chem.  Have a nice day.  *
        *                                                           *
        *************************************************************


