 Entering Gaussian System, Link 0=g16
 Initial command:
 /software/gaussian/g16-c01/sse4/g16/l1.exe "/local_scratch/24657448/Gau-24938.inp" -scrdir="/local_scratch/24657448/"
 Entering Link 1 = /software/gaussian/g16-c01/sse4/g16/l1.exe PID=     24940.
  
 Copyright (c) 1988-2019, Gaussian, Inc.  All Rights Reserved.
  
 This is part of the Gaussian(R) 16 program.  It is based on
 the Gaussian(R) 09 system (copyright 2009, Gaussian, Inc.),
 the Gaussian(R) 03 system (copyright 2003, Gaussian, Inc.),
 the Gaussian(R) 98 system (copyright 1998, Gaussian, Inc.),
 the Gaussian(R) 94 system (copyright 1995, Gaussian, Inc.),
 the Gaussian 92(TM) system (copyright 1992, Gaussian, Inc.),
 the Gaussian 90(TM) system (copyright 1990, Gaussian, Inc.),
 the Gaussian 88(TM) system (copyright 1988, Gaussian, Inc.),
 the Gaussian 86(TM) system (copyright 1986, Carnegie Mellon
 University), and the Gaussian 82(TM) system (copyright 1983,
 Carnegie Mellon University). Gaussian is a federally registered
 trademark of Gaussian, Inc.
  
 This software contains proprietary and confidential information,
 including trade secrets, belonging to Gaussian, Inc.
  
 This software is provided under written license and may be
 used, copied, transmitted, or stored only in accord with that
 written license.
  
 The following legend is applicable only to US Government
 contracts under FAR:
  
                    RESTRICTED RIGHTS LEGEND
  
 Use, reproduction and disclosure by the US Government is
 subject to restrictions as set forth in subparagraphs (a)
 and (c) of the Commercial Computer Software - Restricted
 Rights clause in FAR 52.227-19.
  
 Gaussian, Inc.
 340 Quinnipiac St., Bldg. 40, Wallingford CT 06492
  
  
 ---------------------------------------------------------------
 Warning -- This program may not be used in any manner that
 competes with the business of Gaussian, Inc. or will provide
 assistance to any competitor of Gaussian, Inc.  The licensee
 of this program is prohibited from giving any competitor of
 Gaussian, Inc. access to this program.  By using this program,
 the user acknowledges that Gaussian, Inc. is engaged in the
 business of creating and licensing software in the field of
 computational chemistry and represents and warrants to the
 licensee that it is not a competitor of Gaussian, Inc. and that
 it will not use this program in any manner prohibited above.
 ---------------------------------------------------------------
  

 Cite this work as:
 Gaussian 16, Revision C.01,
 M. J. Frisch, G. W. Trucks, H. B. Schlegel, G. E. Scuseria, 
 M. A. Robb, J. R. Cheeseman, G. Scalmani, V. Barone, 
 G. A. Petersson, H. Nakatsuji, X. Li, M. Caricato, A. V. Marenich, 
 J. Bloino, B. G. Janesko, R. Gomperts, B. Mennucci, H. P. Hratchian, 
 J. V. Ortiz, A. F. Izmaylov, J. L. Sonnenberg, D. Williams-Young, 
 F. Ding, F. Lipparini, F. Egidi, J. Goings, B. Peng, A. Petrone, 
 T. Henderson, D. Ranasinghe, V. G. Zakrzewski, J. Gao, N. Rega, 
 G. Zheng, W. Liang, M. Hada, M. Ehara, K. Toyota, R. Fukuda, 
 J. Hasegawa, M. Ishida, T. Nakajima, Y. Honda, O. Kitao, H. Nakai, 
 T. Vreven, K. Throssell, J. A. Montgomery, Jr., J. E. Peralta, 
 F. Ogliaro, M. J. Bearpark, J. J. Heyd, E. N. Brothers, K. N. Kudin, 
 V. N. Staroverov, T. A. Keith, R. Kobayashi, J. Normand, 
 K. Raghavachari, A. P. Rendell, J. C. Burant, S. S. Iyengar, 
 J. Tomasi, M. Cossi, J. M. Millam, M. Klene, C. Adamo, R. Cammi, 
 J. W. Ochterski, R. L. Martin, K. Morokuma, O. Farkas, 
 J. B. Foresman, and D. J. Fox, Gaussian, Inc., Wallingford CT, 2019.
 
 ******************************************
 Gaussian 16:  ES64L-G16RevC.01  3-Jul-2019
                 1-May-2024 
 ******************************************
 %chk=geometry.chk
 %mem=9GB
 %nprocshared=12
 Will use up to   12 processors via shared memory.
 ---------------------------------------
 #P wB97XD/6-311+G* NoSymm #P Field=X+68
 ---------------------------------------
 1/38=1,172=1/1;
 2/12=2,15=1,17=6,18=5,40=1/2;
 3/5=4,6=6,7=11,11=2,14=1,15=68,25=1,30=1,74=-58/1,2,3;
 4//1;
 5/5=2,38=5/2;
 6/7=2,8=2,9=2,10=2,28=1/1;
 99/5=1,9=1/99;
 Leave Link    1 at Wed May  1 14:27:44 2024, MaxMem=  1207959552 cpu:               1.3 elap:               1.3
 (Enter /software/gaussian/g16-c01/sse4/g16/l101.exe)
 -------
 TitleMe
 -------
 Symbolic Z-matrix:
 Charge =  1 Multiplicity = 1
 C                     0.0295    1.3397    0.0682 
 C                     1.4348    1.2867    0.0064 
 C                     2.1118    0.0511   -0.0054 
 C                     1.4451   -1.1372    0.0312 
 C                    -0.6879    0.1682    0.11 
 H                    -0.4713    2.2984    0.0781 
 H                     2.0273    2.1965   -0.0322 
 H                     1.9897   -2.0764    0.0232 
 H                    -1.7716    0.1804    0.1582 
 N                     3.5864    0.051    -0.0675 
 O                     4.1471   -1.0597   -0.0881 
 O                     4.145     1.1639   -0.0901 
 C                    -0.0236   -1.1458    0.0835 
 H                    -0.4367   -1.8725    0.7889 
 Br                   -0.5359   -1.8697   -1.7408 
 
 ITRead=  0  0  0  0  0  0  0  0  0  0  0  0  0  0  0
 MicOpt= -1 -1 -1 -1 -1 -1 -1 -1 -1 -1 -1 -1 -1 -1 -1
 NAtoms=     15 NQM=       15 NQMF=       0 NMMI=      0 NMMIF=      0
                NMic=       0 NMicF=      0.
                    Isotopes and Nuclear Properties:
 (Nuclear quadrupole moments (NQMom) in fm**2, nuclear magnetic moments (NMagM)
  in nuclear magnetons)

  Atom         1           2           3           4           5           6           7           8           9          10
 IAtWgt=          12          12          12          12          12           1           1           1           1          14
 AtmWgt=  12.0000000  12.0000000  12.0000000  12.0000000  12.0000000   1.0078250   1.0078250   1.0078250   1.0078250  14.0030740
 NucSpn=           0           0           0           0           0           1           1           1           1           2
 AtZEff=  -0.0000000  -0.0000000  -0.0000000  -0.0000000  -0.0000000  -0.0000000  -0.0000000  -0.0000000  -0.0000000  -0.0000000
 NQMom=    0.0000000   0.0000000   0.0000000   0.0000000   0.0000000   0.0000000   0.0000000   0.0000000   0.0000000   2.0440000
 NMagM=    0.0000000   0.0000000   0.0000000   0.0000000   0.0000000   2.7928460   2.7928460   2.7928460   2.7928460   0.4037610
 AtZNuc=   6.0000000   6.0000000   6.0000000   6.0000000   6.0000000   1.0000000   1.0000000   1.0000000   1.0000000   7.0000000

  Atom        11          12          13          14          15
 IAtWgt=          16          16          12           1          79
 AtmWgt=  15.9949146  15.9949146  12.0000000   1.0078250  78.9183361
 NucSpn=           0           0           0           1           3
 AtZEff=  -0.0000000  -0.0000000  -0.0000000  -0.0000000  -0.0000000
 NQMom=    0.0000000   0.0000000   0.0000000   0.0000000  31.3000000
 NMagM=    0.0000000   0.0000000   0.0000000   2.7928460   2.1063990
 AtZNuc=   8.0000000   8.0000000   6.0000000   1.0000000  35.0000000
 Leave Link  101 at Wed May  1 14:27:45 2024, MaxMem=  1207959552 cpu:               1.6 elap:               1.6
 (Enter /software/gaussian/g16-c01/sse4/g16/l202.exe)
                          Input orientation:                          
 ---------------------------------------------------------------------
 Center     Atomic      Atomic             Coordinates (Angstroms)
 Number     Number       Type             X           Y           Z
 ---------------------------------------------------------------------
      1          6           0        0.029500    1.339700    0.068200
      2          6           0        1.434800    1.286700    0.006400
      3          6           0        2.111800    0.051100   -0.005400
      4          6           0        1.445100   -1.137200    0.031200
      5          6           0       -0.687900    0.168200    0.110000
      6          1           0       -0.471300    2.298400    0.078100
      7          1           0        2.027300    2.196500   -0.032200
      8          1           0        1.989700   -2.076400    0.023200
      9          1           0       -1.771600    0.180400    0.158200
     10          7           0        3.586400    0.051000   -0.067500
     11          8           0        4.147100   -1.059700   -0.088100
     12          8           0        4.145000    1.163900   -0.090100
     13          6           0       -0.023600   -1.145800    0.083500
     14          1           0       -0.436700   -1.872500    0.788900
     15         35           0       -0.535900   -1.869700   -1.740800
 ---------------------------------------------------------------------
                    Distance matrix (angstroms):
                    1          2          3          4          5
     1  C    0.000000
     2  C    1.407656   0.000000
     3  C    2.449874   1.408963   0.000000
     4  C    2.853126   2.424049   1.363043   0.000000
     5  C    1.374344   2.401589   2.804523   2.501993   0.000000
     6  H    1.081667   2.159142   3.424870   3.934226   2.141421
     7  H    2.176095   1.086408   2.147231   3.384750   3.392128
     8  H    3.938800   3.408612   2.131193   1.085702   3.495040
     9  H    2.143837   3.395283   3.888995   3.478413   1.084840
    10  N    3.785591   2.482297   1.475907   2.450862   4.279589
    11  O    4.768247   3.587631   2.320164   2.705743   4.992415
    12  O    4.122294   2.714696   2.319353   3.549540   4.938459
    13  C    2.486114   2.837240   2.449573   1.469656   1.472614
    14  H    3.324903   3.754379   3.290289   2.157764   2.165286
    15  Br   3.727252   4.110867   3.702891   2.756973   2.757100
                    6          7          8          9         10
     6  H    0.000000
     7  H    2.503108   0.000000
     8  H    5.019802   4.273425   0.000000
     9  H    2.486588   4.304945   4.388479   0.000000
    10  N    4.640790   2.652397   2.661486   5.364313   0.000000
    11  O    5.712624   3.885809   2.387560   6.052233   1.244373
    12  O    4.756638   2.356750   3.893289   6.002923   1.245428
    13  C    3.473180   3.923079   2.218790   2.195425   3.806210
    14  H    4.231175   4.827242   2.552506   2.528663   4.540772
    15  Br   4.548146   5.101303   3.087568   3.055498   4.845862
                   11         12         13         14         15
    11  O    0.000000
    12  O    2.223602   0.000000
    13  C    4.175117   4.768865   0.000000
    14  H    4.737193   5.566358   1.093770   0.000000
    15  Br   5.031700   5.817075   2.028436   2.531646   0.000000
 Symmetry turned off by external request.
 Stoichiometry    C6H5BrNO2(1+)
 Framework group  C1[X(C6H5BrNO2)]
 Deg. of freedom    39
 Full point group                 C1      NOp   1
 Rotational constants (GHZ):           1.8252210           0.5518633           0.4576002
 Leave Link  202 at Wed May  1 14:27:47 2024, MaxMem=  1207959552 cpu:               1.2 elap:               1.2
 (Enter /software/gaussian/g16-c01/sse4/g16/l301.exe)
 Standard basis: 6-311+G(d) (5D, 7F)
 Ernie: Thresh=  0.10000D-02 Tol=  0.10000D-05 Strict=F.
 The following finite field(s) will be applied:
 An electric field of              0.0068  0.0000  0.0000
   261 basis functions,   443 primitive gaussians,   273 cartesian basis functions
    49 alpha electrons       49 beta electrons
       nuclear repulsion energy       739.2122215416 Hartrees.
 IExCor= 4639 DFT=T Ex+Corr=wB97XD ExCW=0 ScaHFX=  1.000000
 ScaDFX=  1.000000  1.000000  1.000000  1.000000 ScalE2=  1.000000  1.000000
 IRadAn=      5 IRanWt=     -1 IRanGd=            0 ICorTp=0 IEmpDi=121
 HFx  wShort=  0.000000 wLong=  0.200000 cFull=  0.222036 cShort=  0.000000 cLong=  0.777964
 DFx  wShort=  0.000000 wLong=  0.200000 cFull=  0.000000 cShort=  0.000000 cLong=  1.000000
 NAtoms=   15 NActive=   15 NUniq=   15 SFac= 1.00D+00 NAtFMM=   60 NAOKFM=F Big=F
 Integral buffers will be    131072 words long.
 Raffenetti 2 integral format.
 Two-electron integral symmetry is turned off.
 R6Disp:  Grimme-D2 Dispersion energy=       -0.0077368520 Hartrees.
 Nuclear repulsion after empirical dispersion term =      739.2044846896 Hartrees.
 Leave Link  301 at Wed May  1 14:27:48 2024, MaxMem=  1207959552 cpu:               1.0 elap:               1.0
 (Enter /software/gaussian/g16-c01/sse4/g16/l302.exe)
 NPDir=0 NMtPBC=     1 NCelOv=     1 NCel=       1 NClECP=     1 NCelD=      1
         NCelK=      1 NCelE2=     1 NClLst=     1 CellRange=     0.0.
 One-electron integrals computed using PRISM.
 NBasis=   261 RedAO= T EigKep=  2.35D-06  NBF=   261
 NBsUse=   261 1.00D-06 EigRej= -1.00D+00 NBFU=   261
 Precomputing XC quadrature grid using
 IXCGrd= 4 IRadAn=           5 IRanWt=          -1 IRanGd=           0 AccXCQ= 0.00D+00.
 Generated NRdTot=       0 NPtTot=           0 NUsed=           0 NTot=          32
 NSgBfM=   273   273   273   273   273 MxSgAt=    15 MxSgA2=    15.
 Leave Link  302 at Wed May  1 14:28:09 2024, MaxMem=  1207959552 cpu:              20.9 elap:              20.9
 (Enter /software/gaussian/g16-c01/sse4/g16/l303.exe)
 DipDrv:  MaxL=1.
 The nuclear repulsion energy is now       740.4879654328 hartrees.
 Leave Link  303 at Wed May  1 14:28:13 2024, MaxMem=  1207959552 cpu:               3.3 elap:               3.3
 (Enter /software/gaussian/g16-c01/sse4/g16/l401.exe)
 ExpMin= 3.50D-02 ExpMax= 4.40D+05 ExpMxC= 1.51D+04 IAcc=3 IRadAn=         5 AccDes= 0.00D+00
 Harris functional with IExCor= 4639 and IRadAn=       5 diagonalized for initial guess.
 HarFok:  IExCor= 4639 AccDes= 0.00D+00 IRadAn=         5 IDoV= 1 UseB2=F ITyADJ=14
 ICtDFT=  3500011 ScaDFX=  1.000000  1.000000  1.000000  1.000000
 FoFCou: FMM=F IPFlag=           0 FMFlag=      100000 FMFlg1=           0
         NFxFlg=           0 DoJE=T BraDBF=F KetDBF=T FulRan=T
         wScrn=  0.000000 ICntrl=       500 IOpCl=  0 I1Cent=   200000004 NGrid=           0
         NMat0=    1 NMatS0=      1 NMatT0=    0 NMatD0=    1 NMtDS0=    0 NMtDT0=    0
 Symmetry not used in FoFCou.
 Harris En= -2970.60214541865    
 JPrj=0 DoOrth=F DoCkMO=F.
 Leave Link  401 at Wed May  1 14:28:43 2024, MaxMem=  1207959552 cpu:              29.8 elap:              29.8
 (Enter /software/gaussian/g16-c01/sse4/g16/l502.exe)
 Two-electron integral symmetry not used.
 Closed shell SCF:
 Using DIIS extrapolation, IDIIS=  1040.
 NGot=  1207959552 LenX=  1207804877 LenY=  1207729907
 Requested convergence on RMS density matrix=1.00D-08 within 128 cycles.
 Requested convergence on MAX density matrix=1.00D-06.
 Requested convergence on             energy=1.00D-06.
 No special actions if energy rises.
 Fock matrices will be formed incrementally for  20 cycles.

 Cycle   1  Pass 1  IDiag  1:
 FoFJK:  IHMeth= 1 ICntrl=       0 DoSepK=T KAlg= 0 I1Cent=           0 FoldK=F
 IRaf=         1 NMat=       1 IRICut=       1 DoRegI=T DoRafI=F ISym2E= 0 IDoP0=0 IntGTp=1.
 FoFCou: FMM=F IPFlag=           0 FMFlag=      100000 FMFlg1=           0
         NFxFlg=           0 DoJE=T BraDBF=F KetDBF=F FulRan=T
         wScrn=  0.000000 ICntrl=       500 IOpCl=  0 I1Cent=           0 NGrid=           0
         NMat0=    1 NMatS0=      1 NMatT0=    0 NMatD0=    1 NMtDS0=    0 NMtDT0=    0
 Symmetry not used in FoFCou.
 E= -3009.73488284722    
 DIIS: error= 3.20D-01 at cycle   1 NSaved=   1.
 NSaved= 1 IEnMin= 1 EnMin= -3009.73488284722     IErMin= 1 ErrMin= 3.20D-01
 ErrMax= 3.20D-01  0.00D+00 EMaxC= 1.00D-01 BMatC= 1.19D+01 BMatP= 1.19D+01
 IDIUse=3 WtCom= 0.00D+00 WtEn= 1.00D+00
 Coeff-Com:  0.100D+01
 Coeff-En:   0.100D+01
 Coeff:      0.100D+01
 Gap=     0.285 Goal=   None    Shift=    0.000
 GapD=    0.285 DampG=1.000 DampE=0.250 DampFc=0.2500 IDamp=-1.
 Damping current iteration by 2.50D-01
 RMSDP=4.44D-02 MaxDP=4.17D+00              OVMax= 2.60D-01

 Cycle   2  Pass 1  IDiag  1:
 RMSU=  4.06D-03    CP:  8.89D-01
 E= -3010.01615128786     Delta-E=       -0.281268440648 Rises=F Damp=T
 DIIS: error= 2.25D-01 at cycle   2 NSaved=   2.
 NSaved= 2 IEnMin= 2 EnMin= -3010.01615128786     IErMin= 2 ErrMin= 2.25D-01
 ErrMax= 2.25D-01  0.00D+00 EMaxC= 1.00D-01 BMatC= 5.45D+00 BMatP= 1.19D+01
 IDIUse=3 WtCom= 0.00D+00 WtEn= 1.00D+00
 Coeff-Com: -0.184D+01 0.284D+01
 Coeff-En:   0.000D+00 0.100D+01
 Coeff:      0.000D+00 0.100D+01
 Gap=     0.290 Goal=   None    Shift=    0.000
 RMSDP=3.47D-02 MaxDP=3.31D+00 DE=-2.81D-01 OVMax= 6.73D-02

 Cycle   3  Pass 1  IDiag  1:
 RMSU=  4.21D-03    CP:  5.35D-01  3.00D+00
 E= -3010.39098664115     Delta-E=       -0.374835353286 Rises=F Damp=F
 DIIS: error= 6.58D-02 at cycle   3 NSaved=   3.
 NSaved= 3 IEnMin= 3 EnMin= -3010.39098664115     IErMin= 3 ErrMin= 6.58D-02
 ErrMax= 6.58D-02  0.00D+00 EMaxC= 1.00D-01 BMatC= 7.36D-01 BMatP= 5.45D+00
 IDIUse=3 WtCom= 3.42D-01 WtEn= 6.58D-01
 Coeff-Com:  0.276D+01-0.363D+01 0.187D+01
 Coeff-En:   0.286D-01 0.000D+00 0.971D+00
 Coeff:      0.963D+00-0.124D+01 0.128D+01
 Gap=     0.260 Goal=   None    Shift=    0.000
 RMSDP=7.97D-03 MaxDP=4.46D-01 DE=-3.75D-01 OVMax= 6.61D-02

 Cycle   4  Pass 1  IDiag  1:
 RMSU=  4.84D-03    CP:  5.46D-01  2.27D+00  2.05D+00
 E= -3010.49420351340     Delta-E=       -0.103216872249 Rises=F Damp=F
 DIIS: error= 3.82D-02 at cycle   4 NSaved=   4.
 NSaved= 4 IEnMin= 4 EnMin= -3010.49420351340     IErMin= 4 ErrMin= 3.82D-02
 ErrMax= 3.82D-02  0.00D+00 EMaxC= 1.00D-01 BMatC= 2.30D-01 BMatP= 7.36D-01
 IDIUse=3 WtCom= 6.18D-01 WtEn= 3.82D-01
 Coeff-Com: -0.215D+00 0.299D+00 0.254D+00 0.662D+00
 Coeff-En:   0.000D+00 0.000D+00 0.198D+00 0.802D+00
 Coeff:     -0.133D+00 0.185D+00 0.232D+00 0.716D+00
 Gap=     0.263 Goal=   None    Shift=    0.000
 RMSDP=3.18D-03 MaxDP=2.31D-01 DE=-1.03D-01 OVMax= 2.92D-02

 Cycle   5  Pass 1  IDiag  1:
 RMSU=  1.27D-03    CP:  5.20D-01  2.64D+00  1.92D+00  9.07D-01
 E= -3010.53875567544     Delta-E=       -0.044552162040 Rises=F Damp=F
 DIIS: error= 6.73D-03 at cycle   5 NSaved=   5.
 NSaved= 5 IEnMin= 5 EnMin= -3010.53875567544     IErMin= 5 ErrMin= 6.73D-03
 ErrMax= 6.73D-03  0.00D+00 EMaxC= 1.00D-01 BMatC= 7.05D-03 BMatP= 2.30D-01
 IDIUse=3 WtCom= 9.33D-01 WtEn= 6.73D-02
 Coeff-Com: -0.137D+00 0.185D+00 0.349D-01 0.311D+00 0.605D+00
 Coeff-En:   0.000D+00 0.000D+00 0.000D+00 0.000D+00 0.100D+01
 Coeff:     -0.128D+00 0.173D+00 0.325D-01 0.290D+00 0.632D+00
 Gap=     0.253 Goal=   None    Shift=    0.000
 RMSDP=5.73D-04 MaxDP=4.57D-02 DE=-4.46D-02 OVMax= 1.04D-02

 Cycle   6  Pass 1  IDiag  1:
 RMSU=  4.27D-04    CP:  5.19D-01  2.62D+00  1.93D+00  9.01D-01  7.20D-01
 E= -3010.54017074237     Delta-E=       -0.001415066933 Rises=F Damp=F
 DIIS: error= 1.06D-03 at cycle   6 NSaved=   6.
 NSaved= 6 IEnMin= 6 EnMin= -3010.54017074237     IErMin= 6 ErrMin= 1.06D-03
 ErrMax= 1.06D-03  0.00D+00 EMaxC= 1.00D-01 BMatC= 1.30D-04 BMatP= 7.05D-03
 IDIUse=3 WtCom= 9.89D-01 WtEn= 1.06D-02
 Coeff-Com: -0.826D-01 0.111D+00-0.618D-02 0.136D+00 0.350D+00 0.492D+00
 Coeff-En:   0.000D+00 0.000D+00 0.000D+00 0.000D+00 0.000D+00 0.100D+01
 Coeff:     -0.817D-01 0.110D+00-0.611D-02 0.134D+00 0.347D+00 0.497D+00
 Gap=     0.253 Goal=   None    Shift=    0.000
 RMSDP=1.87D-04 MaxDP=1.17D-02 DE=-1.42D-03 OVMax= 4.52D-03

 Cycle   7  Pass 1  IDiag  1:
 RMSU=  9.16D-05    CP:  5.19D-01  2.61D+00  1.95D+00  9.10D-01  8.08D-01
                    CP:  8.24D-01
 E= -3010.54026105934     Delta-E=       -0.000090316966 Rises=F Damp=F
 DIIS: error= 4.89D-04 at cycle   7 NSaved=   7.
 NSaved= 7 IEnMin= 7 EnMin= -3010.54026105934     IErMin= 7 ErrMin= 4.89D-04
 ErrMax= 4.89D-04  0.00D+00 EMaxC= 1.00D-01 BMatC= 2.15D-05 BMatP= 1.30D-04
 IDIUse=3 WtCom= 9.95D-01 WtEn= 4.89D-03
 Coeff-Com: -0.333D-01 0.443D-01-0.121D-01 0.341D-01 0.108D+00 0.303D+00
 Coeff-Com:  0.557D+00
 Coeff-En:   0.000D+00 0.000D+00 0.000D+00 0.000D+00 0.000D+00 0.388D-01
 Coeff-En:   0.961D+00
 Coeff:     -0.331D-01 0.441D-01-0.120D-01 0.339D-01 0.107D+00 0.301D+00
 Coeff:      0.559D+00
 Gap=     0.254 Goal=   None    Shift=    0.000
 RMSDP=8.30D-05 MaxDP=5.00D-03 DE=-9.03D-05 OVMax= 1.84D-03

 Cycle   8  Pass 1  IDiag  1:
 RMSU=  4.82D-05    CP:  5.19D-01  2.60D+00  1.96D+00  9.17D-01  8.32D-01
                    CP:  8.44D-01  8.84D-01
 E= -3010.54027760315     Delta-E=       -0.000016543814 Rises=F Damp=F
 DIIS: error= 1.23D-04 at cycle   8 NSaved=   8.
 NSaved= 8 IEnMin= 8 EnMin= -3010.54027760315     IErMin= 8 ErrMin= 1.23D-04
 ErrMax= 1.23D-04  0.00D+00 EMaxC= 1.00D-01 BMatC= 2.17D-06 BMatP= 2.15D-05
 IDIUse=3 WtCom= 9.99D-01 WtEn= 1.23D-03
 Coeff-Com:  0.512D-02-0.705D-02-0.289D-02-0.140D-01-0.348D-01-0.618D-02
 Coeff-Com:  0.196D+00 0.864D+00
 Coeff-En:   0.000D+00 0.000D+00 0.000D+00 0.000D+00 0.000D+00 0.000D+00
 Coeff-En:   0.000D+00 0.100D+01
 Coeff:      0.512D-02-0.704D-02-0.288D-02-0.140D-01-0.348D-01-0.617D-02
 Coeff:      0.196D+00 0.864D+00
 Gap=     0.254 Goal=   None    Shift=    0.000
 RMSDP=4.69D-05 MaxDP=3.26D-03 DE=-1.65D-05 OVMax= 6.99D-04

 Cycle   9  Pass 1  IDiag  1:
 RMSU=  1.86D-05    CP:  5.19D-01  2.60D+00  1.96D+00  9.18D-01  8.34D-01
                    CP:  9.07D-01  1.06D+00  1.17D+00
 E= -3010.54028054165     Delta-E=       -0.000002938504 Rises=F Damp=F
 DIIS: error= 1.81D-05 at cycle   9 NSaved=   9.
 NSaved= 9 IEnMin= 9 EnMin= -3010.54028054165     IErMin= 9 ErrMin= 1.81D-05
 ErrMax= 1.81D-05  0.00D+00 EMaxC= 1.00D-01 BMatC= 1.78D-07 BMatP= 2.17D-06
 IDIUse=1 WtCom= 1.00D+00 WtEn= 0.00D+00
 Coeff-Com:  0.627D-02-0.843D-02 0.555D-03-0.935D-02-0.234D-01-0.384D-01
 Coeff-Com: -0.856D-02 0.272D+00 0.810D+00
 Coeff:      0.627D-02-0.843D-02 0.555D-03-0.935D-02-0.234D-01-0.384D-01
 Coeff:     -0.856D-02 0.272D+00 0.810D+00
 Gap=     0.254 Goal=   None    Shift=    0.000
 RMSDP=1.48D-05 MaxDP=7.42D-04 DE=-2.94D-06 OVMax= 3.71D-04

 Cycle  10  Pass 1  IDiag  1:
 RMSU=  6.76D-06    CP:  5.19D-01  2.59D+00  1.96D+00  9.19D-01  8.38D-01
                    CP:  9.18D-01  1.11D+00  1.27D+00  1.11D+00
 E= -3010.54028093523     Delta-E=       -0.000000393573 Rises=F Damp=F
 DIIS: error= 1.55D-05 at cycle  10 NSaved=  10.
 NSaved=10 IEnMin=10 EnMin= -3010.54028093523     IErMin=10 ErrMin= 1.55D-05
 ErrMax= 1.55D-05  0.00D+00 EMaxC= 1.00D-01 BMatC= 4.54D-08 BMatP= 1.78D-07
 IDIUse=1 WtCom= 1.00D+00 WtEn= 0.00D+00
 Coeff-Com:  0.822D-03-0.109D-02 0.289D-03-0.880D-03-0.602D-04-0.572D-02
 Coeff-Com: -0.260D-01-0.441D-01 0.256D+00 0.821D+00
 Coeff:      0.822D-03-0.109D-02 0.289D-03-0.880D-03-0.602D-04-0.572D-02
 Coeff:     -0.260D-01-0.441D-01 0.256D+00 0.821D+00
 Gap=     0.254 Goal=   None    Shift=    0.000
 RMSDP=6.75D-06 MaxDP=4.64D-04 DE=-3.94D-07 OVMax= 1.47D-04

 Cycle  11  Pass 1  IDiag  1:
 RMSU=  3.00D-06    CP:  5.19D-01  2.59D+00  1.96D+00  9.18D-01  8.37D-01
                    CP:  9.24D-01  1.11D+00  1.27D+00  1.24D+00  1.03D+00
 E= -3010.54028100480     Delta-E=       -0.000000069576 Rises=F Damp=F
 DIIS: error= 4.75D-06 at cycle  11 NSaved=  11.
 NSaved=11 IEnMin=11 EnMin= -3010.54028100480     IErMin=11 ErrMin= 4.75D-06
 ErrMax= 4.75D-06  0.00D+00 EMaxC= 1.00D-01 BMatC= 2.78D-09 BMatP= 4.54D-08
 IDIUse=1 WtCom= 1.00D+00 WtEn= 0.00D+00
 Coeff-Com: -0.169D-03 0.228D-03 0.272D-04 0.556D-03 0.228D-02 0.481D-02
 Coeff-Com:  0.303D-02-0.262D-01-0.764D-01-0.174D-01 0.111D+01
 Coeff:     -0.169D-03 0.228D-03 0.272D-04 0.556D-03 0.228D-02 0.481D-02
 Coeff:      0.303D-02-0.262D-01-0.764D-01-0.174D-01 0.111D+01
 Gap=     0.254 Goal=   None    Shift=    0.000
 RMSDP=3.20D-06 MaxDP=1.56D-04 DE=-6.96D-08 OVMax= 1.18D-04

 Cycle  12  Pass 1  IDiag  1:
 RMSU=  9.37D-07    CP:  5.19D-01  2.60D+00  1.96D+00  9.18D-01  8.37D-01
                    CP:  9.27D-01  1.11D+00  1.27D+00  1.31D+00  1.22D+00
                    CP:  1.32D+00
 E= -3010.54028102124     Delta-E=       -0.000000016435 Rises=F Damp=F
 DIIS: error= 1.62D-06 at cycle  12 NSaved=  12.
 NSaved=12 IEnMin=12 EnMin= -3010.54028102124     IErMin=12 ErrMin= 1.62D-06
 ErrMax= 1.62D-06  0.00D+00 EMaxC= 1.00D-01 BMatC= 1.44D-09 BMatP= 2.78D-09
 IDIUse=1 WtCom= 1.00D+00 WtEn= 0.00D+00
 Coeff-Com: -0.206D-03 0.274D-03-0.251D-04 0.421D-03 0.942D-03 0.334D-02
 Coeff-Com:  0.681D-02-0.557D-02-0.927D-01-0.204D+00 0.569D+00 0.722D+00
 Coeff:     -0.206D-03 0.274D-03-0.251D-04 0.421D-03 0.942D-03 0.334D-02
 Coeff:      0.681D-02-0.557D-02-0.927D-01-0.204D+00 0.569D+00 0.722D+00
 Gap=     0.254 Goal=   None    Shift=    0.000
 RMSDP=1.78D-06 MaxDP=7.45D-05 DE=-1.64D-08 OVMax= 5.29D-05

 Cycle  13  Pass 1  IDiag  1:
 RMSU=  5.46D-07    CP:  5.19D-01  2.60D+00  1.96D+00  9.18D-01  8.37D-01
                    CP:  9.29D-01  1.11D+00  1.26D+00  1.33D+00  1.28D+00
                    CP:  1.65D+00  1.23D+00
 E= -3010.54028102583     Delta-E=       -0.000000004596 Rises=F Damp=F
 DIIS: error= 6.21D-07 at cycle  13 NSaved=  13.
 NSaved=13 IEnMin=13 EnMin= -3010.54028102583     IErMin=13 ErrMin= 6.21D-07
 ErrMax= 6.21D-07  0.00D+00 EMaxC= 1.00D-01 BMatC= 1.46D-10 BMatP= 1.44D-09
 IDIUse=1 WtCom= 1.00D+00 WtEn= 0.00D+00
 Coeff-Com: -0.638D-05 0.867D-05-0.947D-05-0.849D-04-0.578D-03-0.112D-02
 Coeff-Com: -0.639D-03 0.476D-02 0.187D-01-0.692D-02-0.150D+00-0.584D-01
 Coeff-Com:  0.119D+01
 Coeff:     -0.638D-05 0.867D-05-0.947D-05-0.849D-04-0.578D-03-0.112D-02
 Coeff:     -0.639D-03 0.476D-02 0.187D-01-0.692D-02-0.150D+00-0.584D-01
 Coeff:      0.119D+01
 Gap=     0.254 Goal=   None    Shift=    0.000
 RMSDP=5.23D-07 MaxDP=2.33D-05 DE=-4.60D-09 OVMax= 3.65D-05

 Cycle  14  Pass 1  IDiag  1:
 RMSU=  2.20D-07    CP:  5.19D-01  2.60D+00  1.96D+00  9.18D-01  8.37D-01
                    CP:  9.30D-01  1.11D+00  1.26D+00  1.34D+00  1.29D+00
                    CP:  1.75D+00  1.43D+00  1.42D+00
 E= -3010.54028102691     Delta-E=       -0.000000001072 Rises=F Damp=F
 DIIS: error= 3.31D-07 at cycle  14 NSaved=  14.
 NSaved=14 IEnMin=14 EnMin= -3010.54028102691     IErMin=14 ErrMin= 3.31D-07
 ErrMax= 3.31D-07  0.00D+00 EMaxC= 1.00D-01 BMatC= 3.78D-11 BMatP= 1.46D-10
 IDIUse=1 WtCom= 1.00D+00 WtEn= 0.00D+00
 Coeff-Com:  0.173D-04-0.228D-04-0.288D-05-0.796D-04-0.292D-03-0.801D-03
 Coeff-Com: -0.119D-02 0.233D-02 0.211D-01 0.269D-01-0.138D+00-0.173D+00
 Coeff-Com:  0.409D+00 0.854D+00
 Coeff:      0.173D-04-0.228D-04-0.288D-05-0.796D-04-0.292D-03-0.801D-03
 Coeff:     -0.119D-02 0.233D-02 0.211D-01 0.269D-01-0.138D+00-0.173D+00
 Coeff:      0.409D+00 0.854D+00
 Gap=     0.254 Goal=   None    Shift=    0.000
 RMSDP=2.90D-07 MaxDP=1.46D-05 DE=-1.07D-09 OVMax= 1.67D-05

 Cycle  15  Pass 1  IDiag  1:
 RMSU=  7.65D-08    CP:  5.19D-01  2.60D+00  1.96D+00  9.18D-01  8.37D-01
                    CP:  9.30D-01  1.11D+00  1.26D+00  1.35D+00  1.29D+00
                    CP:  1.80D+00  1.51D+00  1.66D+00  1.18D+00
 E= -3010.54028102708     Delta-E=       -0.000000000175 Rises=F Damp=F
 DIIS: error= 1.50D-07 at cycle  15 NSaved=  15.
 NSaved=15 IEnMin=15 EnMin= -3010.54028102708     IErMin=15 ErrMin= 1.50D-07
 ErrMax= 1.50D-07  0.00D+00 EMaxC= 1.00D-01 BMatC= 8.66D-12 BMatP= 3.78D-11
 IDIUse=1 WtCom= 1.00D+00 WtEn= 0.00D+00
 Coeff-Com:  0.110D-04-0.148D-04 0.154D-05-0.426D-05 0.772D-04 0.897D-04
 Coeff-Com: -0.143D-03-0.643D-03 0.144D-02 0.887D-02 0.741D-03-0.516D-01
 Coeff-Com: -0.182D+00 0.320D+00 0.903D+00
 Coeff:      0.110D-04-0.148D-04 0.154D-05-0.426D-05 0.772D-04 0.897D-04
 Coeff:     -0.143D-03-0.643D-03 0.144D-02 0.887D-02 0.741D-03-0.516D-01
 Coeff:     -0.182D+00 0.320D+00 0.903D+00
 Gap=     0.254 Goal=   None    Shift=    0.000
 RMSDP=1.47D-07 MaxDP=6.60D-06 DE=-1.75D-10 OVMax= 8.45D-06

 Cycle  16  Pass 1  IDiag  1:
 RMSU=  4.07D-08    CP:  5.19D-01  2.60D+00  1.96D+00  9.18D-01  8.37D-01
                    CP:  9.30D-01  1.11D+00  1.26D+00  1.35D+00  1.29D+00
                    CP:  1.83D+00  1.52D+00  1.80D+00  1.41D+00  1.30D+00
 E= -3010.54028102710     Delta-E=       -0.000000000019 Rises=F Damp=F
 DIIS: error= 6.15D-08 at cycle  16 NSaved=  16.
 NSaved=16 IEnMin=16 EnMin= -3010.54028102710     IErMin=16 ErrMin= 6.15D-08
 ErrMax= 6.15D-08  0.00D+00 EMaxC= 1.00D-01 BMatC= 8.44D-13 BMatP= 8.66D-12
 IDIUse=1 WtCom= 1.00D+00 WtEn= 0.00D+00
 Coeff-Com:  0.130D-05-0.177D-05 0.104D-05 0.904D-05 0.619D-04 0.140D-03
 Coeff-Com:  0.103D-03-0.581D-03-0.235D-02-0.547D-03 0.199D-01 0.680D-02
 Coeff-Com: -0.107D+00-0.394D-02 0.234D+00 0.854D+00
 Coeff:      0.130D-05-0.177D-05 0.104D-05 0.904D-05 0.619D-04 0.140D-03
 Coeff:      0.103D-03-0.581D-03-0.235D-02-0.547D-03 0.199D-01 0.680D-02
 Coeff:     -0.107D+00-0.394D-02 0.234D+00 0.854D+00
 Gap=     0.254 Goal=   None    Shift=    0.000
 RMSDP=3.42D-08 MaxDP=1.10D-06 DE=-1.86D-11 OVMax= 2.24D-06

 Cycle  17  Pass 1  IDiag  1:
 RMSU=  1.19D-08    CP:  5.19D-01  2.60D+00  1.96D+00  9.18D-01  8.37D-01
                    CP:  9.30D-01  1.11D+00  1.26D+00  1.35D+00  1.29D+00
                    CP:  1.83D+00  1.51D+00  1.82D+00  1.47D+00  1.54D+00
                    CP:  1.17D+00
 E= -3010.54028102714     Delta-E=       -0.000000000037 Rises=F Damp=F
 DIIS: error= 2.32D-08 at cycle  17 NSaved=  17.
 NSaved=17 IEnMin=17 EnMin= -3010.54028102714     IErMin=17 ErrMin= 2.32D-08
 ErrMax= 2.32D-08  0.00D+00 EMaxC= 1.00D-01 BMatC= 1.62D-13 BMatP= 8.44D-13
 IDIUse=1 WtCom= 1.00D+00 WtEn= 0.00D+00
 Coeff-Com: -0.659D-06 0.881D-06 0.127D-06 0.116D-05-0.299D-05 0.820D-05
 Coeff-Com:  0.384D-04 0.170D-04-0.576D-03-0.121D-02 0.303D-02 0.854D-02
 Coeff-Com:  0.428D-02-0.508D-01-0.119D+00 0.199D+00 0.956D+00
 Coeff:     -0.659D-06 0.881D-06 0.127D-06 0.116D-05-0.299D-05 0.820D-05
 Coeff:      0.384D-04 0.170D-04-0.576D-03-0.121D-02 0.303D-02 0.854D-02
 Coeff:      0.428D-02-0.508D-01-0.119D+00 0.199D+00 0.956D+00
 Gap=     0.254 Goal=   None    Shift=    0.000
 RMSDP=2.28D-08 MaxDP=1.12D-06 DE=-3.68D-11 OVMax= 1.25D-06

 Cycle  18  Pass 1  IDiag  1:
 RMSU=  5.68D-09    CP:  5.19D-01  2.60D+00  1.96D+00  9.18D-01  8.37D-01
                    CP:  9.30D-01  1.11D+00  1.26D+00  1.35D+00  1.29D+00
                    CP:  1.84D+00  1.51D+00  1.83D+00  1.50D+00  1.62D+00
                    CP:  1.41D+00  1.37D+00
 E= -3010.54028102714     Delta-E=       -0.000000000006 Rises=F Damp=F
 DIIS: error= 7.92D-09 at cycle  18 NSaved=  18.
 NSaved=18 IEnMin=18 EnMin= -3010.54028102714     IErMin=18 ErrMin= 7.92D-09
 ErrMax= 7.92D-09  0.00D+00 EMaxC= 1.00D-01 BMatC= 3.45D-14 BMatP= 1.62D-13
 IDIUse=1 WtCom= 1.00D+00 WtEn= 0.00D+00
 Coeff-Com: -0.701D-07 0.969D-07-0.109D-06-0.176D-05-0.130D-04-0.242D-04
 Coeff-Com: -0.709D-05 0.125D-03 0.275D-03-0.339D-03-0.297D-02 0.110D-02
 Coeff-Com:  0.236D-01-0.930D-02-0.767D-01-0.121D+00 0.269D+00 0.917D+00
 Coeff:     -0.701D-07 0.969D-07-0.109D-06-0.176D-05-0.130D-04-0.242D-04
 Coeff:     -0.709D-05 0.125D-03 0.275D-03-0.339D-03-0.297D-02 0.110D-02
 Coeff:      0.236D-01-0.930D-02-0.767D-01-0.121D+00 0.269D+00 0.917D+00
 Gap=     0.254 Goal=   None    Shift=    0.000
 RMSDP=8.77D-09 MaxDP=6.07D-07 DE=-6.37D-12 OVMax= 3.17D-07

 SCF Done:  E(RwB97XD) =  -3010.54028103     A.U. after   18 cycles
            NFock= 18  Conv=0.88D-08     -V/T= 2.0016
 KE= 3.005848391740D+03 PE=-8.633331549933D+03 EE= 1.876454911733D+03
 Leave Link  502 at Wed May  1 14:45:30 2024, MaxMem=  1207959552 cpu:            1006.6 elap:            1006.8
 (Enter /software/gaussian/g16-c01/sse4/g16/l601.exe)
 Copying SCF densities to generalized density rwf, IOpCl= 0 IROHF=0.

 **********************************************************************

            Population analysis using the SCF Density.

 **********************************************************************

 Alpha  occ. eigenvalues -- -483.31547 -62.86563 -56.66264 -56.65681 -56.65677
 Alpha  occ. eigenvalues --  -19.49168 -19.49092 -14.88573 -10.58663 -10.58647
 Alpha  occ. eigenvalues --  -10.58423 -10.58172 -10.57241 -10.53394  -9.02362
 Alpha  occ. eigenvalues --   -6.85062  -6.83156  -6.83137  -2.94961  -2.94456
 Alpha  occ. eigenvalues --   -2.94440  -2.92916  -2.92915  -1.52916  -1.35932
 Alpha  occ. eigenvalues --   -1.23581  -1.15124  -1.12546  -1.04978  -1.02663
 Alpha  occ. eigenvalues --   -0.96231  -0.92074  -0.87280  -0.83022  -0.82499
 Alpha  occ. eigenvalues --   -0.82173  -0.79024  -0.78791  -0.76666  -0.73055
 Alpha  occ. eigenvalues --   -0.69896  -0.68274  -0.64518  -0.60859  -0.60372
 Alpha  occ. eigenvalues --   -0.59661  -0.59022  -0.56540  -0.55627
 Alpha virt. eigenvalues --   -0.30266  -0.23764  -0.16226  -0.14579  -0.09525
 Alpha virt. eigenvalues --   -0.06985  -0.06586  -0.05580  -0.05379  -0.03808
 Alpha virt. eigenvalues --   -0.03240  -0.02633  -0.02046  -0.00764  -0.00106
 Alpha virt. eigenvalues --    0.00108   0.00833   0.01280   0.01930   0.02479
 Alpha virt. eigenvalues --    0.03059   0.03983   0.04198   0.04670   0.05013
 Alpha virt. eigenvalues --    0.05883   0.06337   0.06539   0.08067   0.08717
 Alpha virt. eigenvalues --    0.09325   0.09634   0.09682   0.10320   0.10746
 Alpha virt. eigenvalues --    0.11186   0.11427   0.12357   0.13910   0.14500
 Alpha virt. eigenvalues --    0.15509   0.16421   0.16521   0.16788   0.17491
 Alpha virt. eigenvalues --    0.18580   0.19170   0.19383   0.20707   0.21294
 Alpha virt. eigenvalues --    0.21981   0.23933   0.26205   0.28947   0.29801
 Alpha virt. eigenvalues --    0.30753   0.31456   0.32629   0.33512   0.33825
 Alpha virt. eigenvalues --    0.36280   0.36788   0.38135   0.39974   0.41168
 Alpha virt. eigenvalues --    0.41725   0.42321   0.42717   0.45229   0.45541
 Alpha virt. eigenvalues --    0.46533   0.49521   0.49821   0.51159   0.52025
 Alpha virt. eigenvalues --    0.53053   0.54129   0.55798   0.56171   0.58222
 Alpha virt. eigenvalues --    0.60939   0.61461   0.63673   0.66430   0.67627
 Alpha virt. eigenvalues --    0.69542   0.69778   0.72323   0.72735   0.73433
 Alpha virt. eigenvalues --    0.73831   0.77134   0.78314   0.82143   0.83314
 Alpha virt. eigenvalues --    0.85322   0.85935   0.90414   0.91670   0.95938
 Alpha virt. eigenvalues --    0.96160   0.99471   1.03022   1.03758   1.05359
 Alpha virt. eigenvalues --    1.06985   1.08478   1.09212   1.09564   1.11156
 Alpha virt. eigenvalues --    1.18660   1.22512   1.24892   1.32062   1.35449
 Alpha virt. eigenvalues --    1.35921   1.37050   1.44290   1.53014   1.55462
 Alpha virt. eigenvalues --    1.56176   1.56586   1.59443   1.60793   1.65447
 Alpha virt. eigenvalues --    1.67474   1.68801   1.72365   1.72754   1.77965
 Alpha virt. eigenvalues --    1.80531   1.84330   1.85880   1.92869   1.94868
 Alpha virt. eigenvalues --    1.96583   2.00830   2.02313   2.06158   2.07172
 Alpha virt. eigenvalues --    2.08636   2.13803   2.19121   2.20885   2.28633
 Alpha virt. eigenvalues --    2.35657   2.39197   2.41387   2.42385   2.51444
 Alpha virt. eigenvalues --    2.55833   2.61857   2.64832   2.66709   2.68924
 Alpha virt. eigenvalues --    2.70632   2.73507   2.75720   2.77852   2.80803
 Alpha virt. eigenvalues --    2.92656   2.95332   2.97518   3.04737   3.07474
 Alpha virt. eigenvalues --    3.11563   3.13767   3.18078   3.20888   3.23189
 Alpha virt. eigenvalues --    3.23929   3.36975   3.46820   3.49336   3.51998
 Alpha virt. eigenvalues --    3.54915   3.66819   3.70834   3.81175   3.86123
 Alpha virt. eigenvalues --    4.08652   4.08880   4.16297   4.21550   4.40902
 Alpha virt. eigenvalues --    4.42345   4.56106   4.57428   4.89700   4.92333
 Alpha virt. eigenvalues --    5.00999   5.05166   5.59522   6.12310   6.64351
 Alpha virt. eigenvalues --    7.47337   7.48905   7.58647  23.20412  23.60337
 Alpha virt. eigenvalues --   23.69048  23.78511  23.95142  24.00315  35.29393
 Alpha virt. eigenvalues --   47.90879  49.82239  49.91049 289.80197 289.81864
 Alpha virt. eigenvalues --  289.942981020.91285
          Condensed to atoms (all electrons):
               1          2          3          4          5          6
     1  C    8.539966  -2.245406   0.381102  -1.442319  -0.690361   0.305279
     2  C   -2.245406  12.875616  -1.997094  -2.715895   0.963864  -0.016304
     3  C    0.381102  -1.997094  12.847656  -2.761672  -1.320039   0.020113
     4  C   -1.442319  -2.715895  -2.761672  13.882341   1.249867   0.009979
     5  C   -0.690361   0.963864  -1.320039   1.249867   7.316806   0.023515
     6  H    0.305279  -0.016304   0.020113   0.009979   0.023515   0.322877
     7  H    0.059577   0.244165   0.080177  -0.032956  -0.020930  -0.001829
     8  H    0.001619  -0.010150   0.063704   0.266205  -0.010775   0.000002
     9  H    0.023678  -0.005940   0.000473  -0.004697   0.319451  -0.001972
    10  N   -0.112877   0.324460  -0.920638   0.283292   0.033516  -0.000545
    11  O    0.019558  -0.039501  -0.257764  -0.032261  -0.052665  -0.000019
    12  O    0.281087  -0.041391  -0.280589  -0.051506  -0.042992  -0.000015
    13  C    1.420164  -1.866470   0.813695  -2.925559  -1.809839  -0.008675
    14  H   -0.002543  -0.011250   0.008980  -0.054121  -0.053766  -0.000057
    15  Br   0.056153   0.000385   0.056521   0.075879   0.068606  -0.000394
               7          8          9         10         11         12
     1  C    0.059577   0.001619   0.023678  -0.112877   0.019558   0.281087
     2  C    0.244165  -0.010150  -0.005940   0.324460  -0.039501  -0.041391
     3  C    0.080177   0.063704   0.000473  -0.920638  -0.257764  -0.280589
     4  C   -0.032956   0.266205  -0.004697   0.283292  -0.032261  -0.051506
     5  C   -0.020930  -0.010775   0.319451   0.033516  -0.052665  -0.042992
     6  H   -0.001829   0.000002  -0.001972  -0.000545  -0.000019  -0.000015
     7  H    0.313264   0.000007   0.000014  -0.026431  -0.001508   0.018742
     8  H    0.000007   0.306984   0.000114  -0.023471   0.019371  -0.000919
     9  H    0.000014   0.000114   0.299012   0.000429   0.000003   0.000005
    10  N   -0.026431  -0.023471   0.000429   7.241152   0.235110   0.201337
    11  O   -0.001508   0.019371   0.000003   0.235110   7.846336  -0.009161
    12  O    0.018742  -0.000919   0.000005   0.201337  -0.009161   7.881669
    13  C    0.013973   0.027832  -0.007283  -0.132430   0.271434   0.044469
    14  H   -0.000015  -0.004678  -0.004822  -0.000813  -0.000197  -0.000069
    15  Br  -0.000170   0.000378   0.000910   0.002443   0.000655   0.001965
              13         14         15
     1  C    1.420164  -0.002543   0.056153
     2  C   -1.866470  -0.011250   0.000385
     3  C    0.813695   0.008980   0.056521
     4  C   -2.925559  -0.054121   0.075879
     5  C   -1.809839  -0.053766   0.068606
     6  H   -0.008675  -0.000057  -0.000394
     7  H    0.013973  -0.000015  -0.000170
     8  H    0.027832  -0.004678   0.000378
     9  H   -0.007283  -0.004822   0.000910
    10  N   -0.132430  -0.000813   0.002443
    11  O    0.271434  -0.000197   0.000655
    12  O    0.044469  -0.000069   0.001965
    13  C   10.280746   0.414364  -0.077986
    14  H    0.414364   0.332154  -0.038370
    15  Br  -0.077986  -0.038370  34.640377
 Mulliken charges:
               1
     1  C   -0.594677
     2  C    0.540910
     3  C   -0.734626
     4  C    0.253423
     5  C    0.025742
     6  H    0.348045
     7  H    0.353921
     8  H    0.363776
     9  H    0.380624
    10  N   -0.104535
    11  O    0.000609
    12  O   -0.002631
    13  C   -0.458434
    14  H    0.415203
    15  Br   0.212650
 Sum of Mulliken charges =   1.00000
 Mulliken charges with hydrogens summed into heavy atoms:
               1
     1  C   -0.246632
     2  C    0.894831
     3  C   -0.734626
     4  C    0.617199
     5  C    0.406366
    10  N   -0.104535
    11  O    0.000609
    12  O   -0.002631
    13  C   -0.043231
    15  Br   0.212650
 Electronic spatial extent (au):  <R**2>=           2801.4430
 Charge=              1.0000 electrons
 Dipole moment (field-independent basis, Debye):
    X=             -2.8666    Y=             -0.8195    Z=             -0.1882  Tot=              2.9874
 Quadrupole moment (field-independent basis, Debye-Ang):
   XX=            -76.0748   YY=            -51.7794   ZZ=            -62.1292
   XY=              1.6166   XZ=              1.6328   YZ=              2.1361
 Traceless Quadrupole moment (field-independent basis, Debye-Ang):
   XX=            -12.7470   YY=             11.5484   ZZ=              1.1986
   XY=              1.6166   XZ=              1.6328   YZ=              2.1361
 Octapole moment (field-independent basis, Debye-Ang**2):
  XXX=           -327.6138  YYY=             85.9169  ZZZ=             76.0189  XYY=            -80.9193
  XXY=             29.1050  XXZ=             32.0653  XZZ=            -80.4182  YZZ=             15.0132
  YYZ=             24.2865  XYZ=             -4.3480
 Hexadecapole moment (field-independent basis, Debye-Ang**3):
 XXXX=          -2400.1637 YYYY=           -672.8247 ZZZZ=           -343.6387 XXXY=            -68.1619
 XXXZ=            -18.1537 YYYX=            -57.3906 YYYZ=           -152.1266 ZZZX=            -15.4657
 ZZZY=           -132.4146 XXYY=           -465.2855 XXZZ=           -372.0461 YYZZ=           -160.4257
 XXYZ=            -53.2800 YYXZ=              0.2869 ZZXY=             -6.5118
 N-N= 7.404879654328D+02 E-N=-8.633331551961D+03  KE= 3.005848391740D+03
 No NMR shielding tensors so no spin-rotation constants.
 Leave Link  601 at Wed May  1 14:45:37 2024, MaxMem=  1207959552 cpu:               7.4 elap:               7.4
 (Enter /software/gaussian/g16-c01/sse4/g16/l9999.exe)
 Unable to Open any file for archive entry.
 1\1\GINC-BHX0021\SP\RwB97XD\6-311+G(d)\C6H5Br1N1O2(1+)\BWEIGHT\01-May-
 2024\0\\#P wB97XD/6-311+G* NoSymm #P Field=X+68\\TitleMe\\1,1\C,0,0.02
 95,1.3397,0.0682\C,0,1.4348,1.2867,0.0064\C,0,2.1118,0.0511,-0.0054\C,
 0,1.4451,-1.1372,0.0312\C,0,-0.6879,0.1682,0.11\H,0,-0.4713,2.2984,0.0
 781\H,0,2.0273,2.1965,-0.0322\H,0,1.9897,-2.0764,0.0232\H,0,-1.7716,0.
 1804,0.1582\N,0,3.5864,0.051,-0.0675\O,0,4.1471,-1.0597,-0.0881\O,0,4.
 145,1.1639,-0.0901\C,0,-0.0236,-1.1458,0.0835\H,0,-0.4367,-1.8725,0.78
 89\Br,0,-0.5359,-1.8697,-1.7408\\Version=ES64L-G16RevC.01\HF=-3010.540
 281\RMSD=8.766e-09\Dipole=-3.0343556,0.8256502,1.0721446\Quadrupole=-9
 .4771009,8.5859723,0.8911286,1.2019235,1.2139234,1.5881737\PG=C01 [X(C
 6H5Br1N1O2)]\\@
 The archive entry for this job was punched.


 The juvenile sea squirt wanders through the sea searching
 for a suitable rock or hunk of coral to cling to and make
 its home for life.  For this task it has a rudimentary
 nervous system.  When it finds its spot and takes root, it
 doesn't need its brain any more so it eats it.
 It's rather like getting tenure.

                               -- source unknown
 Job cpu time:       0 days  0 hours 17 minutes 54.0 seconds.
 Elapsed time:       0 days  0 hours 17 minutes 54.2 seconds.
 File lengths (MBytes):  RWF=     40 Int=      0 D2E=      0 Chk=     32 Scr=      1
 Normal termination of Gaussian 16 at Wed May  1 14:45:38 2024.
