 Entering Gaussian System, Link 0=g16
 Initial command:
 /software/gaussian/g16-a03/l1.exe "/local_scratch/6485000/Gau-2734.inp" -scrdir="/local_scratch/6485000/"
 Entering Link 1 = /software/gaussian/g16-a03/l1.exe PID=      2882.
  
 Copyright (c) 1988,1990,1992,1993,1995,1998,2003,2009,2016,
            Gaussian, Inc.  All Rights Reserved.
  
 This is part of the Gaussian(R) 16 program.  It is based on
 the Gaussian(R) 09 system (copyright 2009, Gaussian, Inc.),
 the Gaussian(R) 03 system (copyright 2003, Gaussian, Inc.),
 the Gaussian(R) 98 system (copyright 1998, Gaussian, Inc.),
 the Gaussian(R) 94 system (copyright 1995, Gaussian, Inc.),
 the Gaussian 92(TM) system (copyright 1992, Gaussian, Inc.),
 the Gaussian 90(TM) system (copyright 1990, Gaussian, Inc.),
 the Gaussian 88(TM) system (copyright 1988, Gaussian, Inc.),
 the Gaussian 86(TM) system (copyright 1986, Carnegie Mellon
 University), and the Gaussian 82(TM) system (copyright 1983,
 Carnegie Mellon University). Gaussian is a federally registered
 trademark of Gaussian, Inc.
  
 This software contains proprietary and confidential information,
 including trade secrets, belonging to Gaussian, Inc.
  
 This software is provided under written license and may be
 used, copied, transmitted, or stored only in accord with that
 written license.
  
 The following legend is applicable only to US Government
 contracts under FAR:
  
                    RESTRICTED RIGHTS LEGEND
  
 Use, reproduction and disclosure by the US Government is
 subject to restrictions as set forth in subparagraphs (a)
 and (c) of the Commercial Computer Software - Restricted
 Rights clause in FAR 52.227-19.
  
 Gaussian, Inc.
 340 Quinnipiac St., Bldg. 40, Wallingford CT 06492
  
  
 ---------------------------------------------------------------
 Warning -- This program may not be used in any manner that
 competes with the business of Gaussian, Inc. or will provide
 assistance to any competitor of Gaussian, Inc.  The licensee
 of this program is prohibited from giving any competitor of
 Gaussian, Inc. access to this program.  By using this program,
 the user acknowledges that Gaussian, Inc. is engaged in the
 business of creating and licensing software in the field of
 computational chemistry and represents and warrants to the
 licensee that it is not a competitor of Gaussian, Inc. and that
 it will not use this program in any manner prohibited above.
 ---------------------------------------------------------------
  

 Cite this work as:
 Gaussian 16, Revision A.03,
 M. J. Frisch, G. W. Trucks, H. B. Schlegel, G. E. Scuseria, 
 M. A. Robb, J. R. Cheeseman, G. Scalmani, V. Barone, 
 G. A. Petersson, H. Nakatsuji, X. Li, M. Caricato, A. V. Marenich, 
 J. Bloino, B. G. Janesko, R. Gomperts, B. Mennucci, H. P. Hratchian, 
 J. V. Ortiz, A. F. Izmaylov, J. L. Sonnenberg, D. Williams-Young, 
 F. Ding, F. Lipparini, F. Egidi, J. Goings, B. Peng, A. Petrone, 
 T. Henderson, D. Ranasinghe, V. G. Zakrzewski, J. Gao, N. Rega, 
 G. Zheng, W. Liang, M. Hada, M. Ehara, K. Toyota, R. Fukuda, 
 J. Hasegawa, M. Ishida, T. Nakajima, Y. Honda, O. Kitao, H. Nakai, 
 T. Vreven, K. Throssell, J. A. Montgomery, Jr., J. E. Peralta, 
 F. Ogliaro, M. J. Bearpark, J. J. Heyd, E. N. Brothers, K. N. Kudin, 
 V. N. Staroverov, T. A. Keith, R. Kobayashi, J. Normand, 
 K. Raghavachari, A. P. Rendell, J. C. Burant, S. S. Iyengar, 
 J. Tomasi, M. Cossi, J. M. Millam, M. Klene, C. Adamo, R. Cammi, 
 J. W. Ochterski, R. L. Martin, K. Morokuma, O. Farkas, 
 J. B. Foresman, and D. J. Fox, Gaussian, Inc., Wallingford CT, 2016.
 
 ******************************************
 Gaussian 16:  ES64L-G16RevA.03 25-Dec-2016
                17-Sep-2021 
 ******************************************
 %chk=geometry.chk
 %mem=2GB
 %nprocshared=1
 Will use up to    1 processors via shared memory.
 --------------------------------------------------------------------
 #p B3LYP/6-311+G** #p TD=(singlets,nstates=30)IOp(6/8=3) IOp(9/40=4)
 --------------------------------------------------------------------
 1/38=1,172=1/1;
 2/12=2,17=6,18=5,40=1/2;
 3/5=4,6=6,7=111,11=9,25=1,30=1,74=-5/1,2,3,8;
 4//1;
 5/5=2,38=5/2;
 8/6=1,10=2,108=30/1;
 9/40=4,41=30,42=1,48=1,70=2/14;
 6/7=2,8=3,9=2,10=2/1;
 99/5=1,9=1/99;
 Leave Link    1 at Fri Sep 17 10:52:44 2021, MaxMem=   268435456 cpu:               0.0 elap:               0.2
 (Enter /software/gaussian/g16-a03/l101.exe)
 --------------------------------
 Scan Step 269, Bond Length 1.845
 --------------------------------
 Symbolic Z-matrix:
 Charge =  0 Multiplicity = 1
 C                     0.        0.       -0.52736 
 H                     0.        0.93726  -1.11871 
 H                     0.       -0.93726  -1.11871 
 O                     0.        0.        1.31764 
 
 ITRead=  0  0  0  0
 MicOpt= -1 -1 -1 -1
 NAtoms=      4 NQM=        4 NQMF=       0 NMMI=      0 NMMIF=      0
                NMic=       0 NMicF=      0.
                    Isotopes and Nuclear Properties:
 (Nuclear quadrupole moments (NQMom) in fm**2, nuclear magnetic moments (NMagM)
  in nuclear magnetons)

  Atom         1           2           3           4
 IAtWgt=          12           1           1          16
 AtmWgt=  12.0000000   1.0078250   1.0078250  15.9949146
 NucSpn=           0           1           1           0
 AtZEff=  -0.0000000  -0.0000000  -0.0000000  -0.0000000
 NQMom=    0.0000000   0.0000000   0.0000000   0.0000000
 NMagM=    0.0000000   2.7928460   2.7928460   0.0000000
 AtZNuc=   6.0000000   1.0000000   1.0000000   8.0000000
 Leave Link  101 at Fri Sep 17 10:52:44 2021, MaxMem=   268435456 cpu:               0.1 elap:               0.1
 (Enter /software/gaussian/g16-a03/l202.exe)
                          Input orientation:                          
 ---------------------------------------------------------------------
 Center     Atomic      Atomic             Coordinates (Angstroms)
 Number     Number       Type             X           Y           Z
 ---------------------------------------------------------------------
      1          6           0        0.000000    0.000000   -0.527360
      2          1           0        0.000000    0.937260   -1.118710
      3          1           0        0.000000   -0.937260   -1.118710
      4          8           0        0.000000    0.000000    1.317640
 ---------------------------------------------------------------------
                    Distance matrix (angstroms):
                    1          2          3          4
     1  C    0.000000
     2  H    1.108220   0.000000
     3  H    1.108220   1.874520   0.000000
     4  O    1.845000   2.610413   2.610413   0.000000
 Stoichiometry    CH2O
 Framework group  C2V[C2(CO),SGV(H2)]
 Deg. of freedom     3
 Full point group                 C2V     NOp   4
 Largest Abelian subgroup         C2V     NOp   4
 Largest concise Abelian subgroup C2      NOp   2
                         Standard orientation:                         
 ---------------------------------------------------------------------
 Center     Atomic      Atomic             Coordinates (Angstroms)
 Number     Number       Type             X           Y           Z
 ---------------------------------------------------------------------
      1          6           0        0.000000   -0.000000   -0.848581
      2          1           0        0.000000    0.937260   -1.439931
      3          1           0       -0.000000   -0.937260   -1.439931
      4          8           0        0.000000    0.000000    0.996419
 ---------------------------------------------------------------------
 Rotational constants (GHZ):         285.4183527          17.7763787          16.7341454
 Leave Link  202 at Fri Sep 17 10:52:44 2021, MaxMem=   268435456 cpu:               0.0 elap:               0.0
 (Enter /software/gaussian/g16-a03/l301.exe)
 Standard basis: 6-311+G(d,p) (5D, 7F)
 Ernie: Thresh=  0.10000D-02 Tol=  0.10000D-05 Strict=F.
 There are    29 symmetry adapted cartesian basis functions of A1  symmetry.
 There are     3 symmetry adapted cartesian basis functions of A2  symmetry.
 There are    11 symmetry adapted cartesian basis functions of B1  symmetry.
 There are    15 symmetry adapted cartesian basis functions of B2  symmetry.
 There are    27 symmetry adapted basis functions of A1  symmetry.
 There are     3 symmetry adapted basis functions of A2  symmetry.
 There are    11 symmetry adapted basis functions of B1  symmetry.
 There are    15 symmetry adapted basis functions of B2  symmetry.
    56 basis functions,    88 primitive gaussians,    58 cartesian basis functions
     8 alpha electrons        8 beta electrons
       nuclear repulsion energy        23.0230211334 Hartrees.
 IExCor=  402 DFT=T Ex+Corr=B3LYP ExCW=0 ScaHFX=  0.200000
 ScaDFX=  0.800000  0.720000  1.000000  0.810000 ScalE2=  1.000000  1.000000
 IRadAn=      5 IRanWt=     -1 IRanGd=            0 ICorTp=0 IEmpDi=  4
 NAtoms=    4 NActive=    4 NUniq=    3 SFac= 1.78D+00 NAtFMM=   60 NAOKFM=F Big=F
 Integral buffers will be    131072 words long.
 Regular integral format.
 Two-electron integral symmetry is turned on.
 Leave Link  301 at Fri Sep 17 10:52:44 2021, MaxMem=   268435456 cpu:               0.1 elap:               0.1
 (Enter /software/gaussian/g16-a03/l302.exe)
 NPDir=0 NMtPBC=     1 NCelOv=     1 NCel=       1 NClECP=     1 NCelD=      1
         NCelK=      1 NCelE2=     1 NClLst=     1 CellRange=     0.0.
 One-electron integrals computed using PRISM.
 One-electron integral symmetry used in STVInt
 NBasis=    56 RedAO= T EigKep=  1.33D-02  NBF=    27     3    11    15
 NBsUse=    56 1.00D-06 EigRej= -1.00D+00 NBFU=    27     3    11    15
 Precomputing XC quadrature grid using
 IXCGrd= 4 IRadAn=           5 IRanWt=          -1 IRanGd=           0 AccXCQ= 0.00D+00.
 Generated NRdTot=       0 NPtTot=           0 NUsed=           0 NTot=          32
 NSgBfM=    58    58    58    58    58 MxSgAt=     4 MxSgA2=     4.
 Leave Link  302 at Fri Sep 17 10:52:44 2021, MaxMem=   268435456 cpu:               0.1 elap:               0.1
 (Enter /software/gaussian/g16-a03/l303.exe)
 DipDrv:  MaxL=1.
 Leave Link  303 at Fri Sep 17 10:52:44 2021, MaxMem=   268435456 cpu:               0.0 elap:               0.0
 (Enter /software/gaussian/g16-a03/l308.exe)
 Leave Link  308 at Fri Sep 17 10:52:44 2021, MaxMem=   268435456 cpu:               0.0 elap:               0.0
 (Enter /software/gaussian/g16-a03/l401.exe)
 ExpMin= 4.38D-02 ExpMax= 8.59D+03 ExpMxC= 1.30D+03 IAcc=3 IRadAn=         5 AccDes= 0.00D+00
 Harris functional with IExCor=  402 and IRadAn=       5 diagonalized for initial guess.
 HarFok:  IExCor=  402 AccDes= 0.00D+00 IRadAn=         5 IDoV= 1 UseB2=F ITyADJ=14
 ICtDFT=  3500011 ScaDFX=  1.000000  1.000000  1.000000  1.000000
 FoFCou: FMM=F IPFlag=           0 FMFlag=      100000 FMFlg1=           0
         NFxFlg=           0 DoJE=T BraDBF=F KetDBF=T FulRan=T
         wScrn=  0.000000 ICntrl=       500 IOpCl=  0 I1Cent=   200000004 NGrid=           0
         NMat0=    1 NMatS0=      1 NMatT0=    0 NMatD0=    1 NMtDS0=    0 NMtDT0=    0
 Petite list used in FoFCou.
 Harris En= -114.380398215297    
 JPrj=0 DoOrth=F DoCkMO=F.
 Initial guess orbital symmetries:
       Occupied  (A1) (A1) (A1) (A1) (B2) (A1) (B1) (B2)
       Virtual   (B1) (A1) (A1) (B2) (A1) (B1) (A1) (B2) (A1) (B1)
                 (B2) (A1) (B2) (A1) (B1) (A1) (B2) (A1) (B1) (A2)
                 (B2) (A1) (A1) (B1) (B2) (A1) (A1) (B2) (B1) (A2)
                 (A1) (B2) (A1) (B2) (A1) (B1) (A1) (A2) (A1) (B1)
                 (B2) (A1) (B2) (B1) (B2) (A1) (A1) (A1)
 The electronic state of the initial guess is 1-A1.
 Leave Link  401 at Fri Sep 17 10:52:45 2021, MaxMem=   268435456 cpu:               0.3 elap:               0.3
 (Enter /software/gaussian/g16-a03/l502.exe)
 Keep R1 ints in memory in symmetry-blocked form, NReq=2159901.
 FoFCou: FMM=F IPFlag=           0 FMFlag=           0 FMFlg1=           0
         NFxFlg=           0 DoJE=F BraDBF=F KetDBF=F FulRan=T
         wScrn=  0.000000 ICntrl=       600 IOpCl=  0 I1Cent=           0 NGrid=           0
         NMat0=    1 NMatS0=   1596 NMatT0=    0 NMatD0=    1 NMtDS0=    0 NMtDT0=    0
 Petite list used in FoFCou.
 Closed shell SCF:
 Using DIIS extrapolation, IDIIS=  1040.
 NGot=   268435456 LenX=   268074392 LenY=   268070587
 Requested convergence on RMS density matrix=1.00D-08 within 128 cycles.
 Requested convergence on MAX density matrix=1.00D-06.
 Requested convergence on             energy=1.00D-06.
 No special actions if energy rises.

 Cycle   1  Pass 1  IDiag  1:
 E= -114.177099491387    
 DIIS: error= 7.47D-02 at cycle   1 NSaved=   1.
 NSaved= 1 IEnMin= 1 EnMin= -114.177099491387     IErMin= 1 ErrMin= 7.47D-02
 ErrMax= 7.47D-02  0.00D+00 EMaxC= 1.00D-01 BMatC= 1.67D-01 BMatP= 1.67D-01
 IDIUse=3 WtCom= 2.53D-01 WtEn= 7.47D-01
 Coeff-Com:  0.100D+01
 Coeff-En:   0.100D+01
 Coeff:      0.100D+01
 Gap=     0.210 Goal=   None    Shift=    0.000
 GapD=    0.210 DampG=1.000 DampE=0.500 DampFc=0.5000 IDamp=-1.
 Damping current iteration by 5.00D-01
 RMSDP=4.07D-02 MaxDP=7.52D-01              OVMax= 5.12D-01

 Cycle   2  Pass 1  IDiag  1:
 E= -113.066163079575     Delta-E=        1.110936411813 Rises=F Damp=T
 DIIS: error= 1.28D-01 at cycle   2 NSaved=   2.
 NSaved= 2 IEnMin= 1 EnMin= -114.177099491387     IErMin= 1 ErrMin= 7.47D-02
 ErrMax= 1.28D-01  0.00D+00 EMaxC= 1.00D-01 BMatC= 4.91D-01 BMatP= 1.67D-01
 IDIUse=2 WtCom= 0.00D+00 WtEn= 1.00D+00
 Coeff-En:   0.840D+00 0.160D+00
 Coeff:      0.840D+00 0.160D+00
 Gap=     0.009 Goal=   None    Shift=    0.000
 RMSDP=1.95D-02 MaxDP=3.74D-01 DE= 1.11D+00 OVMax= 3.64D-01

 Cycle   3  Pass 1  IDiag  1:
 E= -113.209390176630     Delta-E=       -0.143227097056 Rises=F Damp=F
 DIIS: error= 1.99D-01 at cycle   3 NSaved=   3.
 NSaved= 3 IEnMin= 1 EnMin= -114.177099491387     IErMin= 1 ErrMin= 7.47D-02
 ErrMax= 1.99D-01  0.00D+00 EMaxC= 1.00D-01 BMatC= 1.01D+00 BMatP= 1.67D-01
 IDIUse=2 WtCom= 0.00D+00 WtEn= 1.00D+00
 Coeff-En:   0.763D+00 0.000D+00 0.237D+00
 Coeff:      0.763D+00 0.000D+00 0.237D+00
 Gap=     0.061 Goal=   None    Shift=    0.000
 RMSDP=6.73D-03 MaxDP=9.02D-02 DE=-1.43D-01 OVMax= 4.18D-01

 Cycle   4  Pass 1  IDiag  1:
 E= -114.240546560791     Delta-E=       -1.031156384161 Rises=F Damp=F
 DIIS: error= 8.17D-02 at cycle   4 NSaved=   4.
 NSaved= 4 IEnMin= 4 EnMin= -114.240546560791     IErMin= 1 ErrMin= 7.47D-02
 ErrMax= 8.17D-02  0.00D+00 EMaxC= 1.00D-01 BMatC= 1.16D-01 BMatP= 1.67D-01
 IDIUse=3 WtCom= 1.83D-01 WtEn= 8.17D-01
 Coeff-Com:  0.391D+00 0.301D-01-0.945D-01 0.673D+00
 Coeff-En:   0.427D+00 0.000D+00 0.000D+00 0.573D+00
 Coeff:      0.421D+00 0.551D-02-0.173D-01 0.591D+00
 Gap=     0.111 Goal=   None    Shift=    0.000
 RMSDP=3.20D-03 MaxDP=4.63D-02 DE=-1.03D+00 OVMax= 2.04D-01

 Cycle   5  Pass 1  IDiag  1:
 E= -114.339189887153     Delta-E=       -0.098643326362 Rises=F Damp=F
 DIIS: error= 1.26D-02 at cycle   5 NSaved=   5.
 NSaved= 5 IEnMin= 5 EnMin= -114.339189887153     IErMin= 5 ErrMin= 1.26D-02
 ErrMax= 1.26D-02  0.00D+00 EMaxC= 1.00D-01 BMatC= 3.12D-03 BMatP= 1.16D-01
 IDIUse=3 WtCom= 8.74D-01 WtEn= 1.26D-01
 Coeff-Com:  0.304D-02 0.155D-01-0.172D-01 0.158D+00 0.840D+00
 Coeff-En:   0.000D+00 0.000D+00 0.000D+00 0.799D-01 0.920D+00
 Coeff:      0.265D-02 0.136D-01-0.150D-01 0.148D+00 0.851D+00
 Gap=     0.112 Goal=   None    Shift=    0.000
 RMSDP=4.50D-04 MaxDP=6.73D-03 DE=-9.86D-02 OVMax= 3.01D-02

 Cycle   6  Pass 1  IDiag  1:
 E= -114.341942182339     Delta-E=       -0.002752295185 Rises=F Damp=F
 DIIS: error= 8.09D-04 at cycle   6 NSaved=   6.
 NSaved= 6 IEnMin= 6 EnMin= -114.341942182339     IErMin= 6 ErrMin= 8.09D-04
 ErrMax= 8.09D-04  0.00D+00 EMaxC= 1.00D-01 BMatC= 2.51D-05 BMatP= 3.12D-03
 IDIUse=3 WtCom= 9.92D-01 WtEn= 8.09D-03
 Coeff-Com: -0.397D-02 0.166D-02-0.526D-02 0.329D-01 0.212D+00 0.763D+00
 Coeff-En:   0.000D+00 0.000D+00 0.000D+00 0.000D+00 0.000D+00 0.100D+01
 Coeff:     -0.394D-02 0.165D-02-0.522D-02 0.326D-01 0.210D+00 0.765D+00
 Gap=     0.113 Goal=   None    Shift=    0.000
 RMSDP=5.44D-05 MaxDP=9.43D-04 DE=-2.75D-03 OVMax= 1.20D-03

 Cycle   7  Pass 1  IDiag  1:
 E= -114.341955936773     Delta-E=       -0.000013754434 Rises=F Damp=F
 DIIS: error= 5.77D-04 at cycle   7 NSaved=   7.
 NSaved= 7 IEnMin= 7 EnMin= -114.341955936773     IErMin= 7 ErrMin= 5.77D-04
 ErrMax= 5.77D-04  0.00D+00 EMaxC= 1.00D-01 BMatC= 6.11D-06 BMatP= 2.51D-05
 IDIUse=3 WtCom= 9.94D-01 WtEn= 5.77D-03
 Coeff-Com: -0.861D-03 0.776D-04 0.200D-04-0.267D-02 0.359D-01 0.104D+00
 Coeff-Com:  0.864D+00
 Coeff-En:   0.000D+00 0.000D+00 0.000D+00 0.000D+00 0.000D+00 0.000D+00
 Coeff-En:   0.100D+01
 Coeff:     -0.856D-03 0.772D-04 0.199D-04-0.265D-02 0.357D-01 0.103D+00
 Coeff:      0.864D+00
 Gap=     0.114 Goal=   None    Shift=    0.000
 RMSDP=2.66D-05 MaxDP=3.57D-04 DE=-1.38D-05 OVMax= 1.62D-03

 Cycle   8  Pass 1  IDiag  1:
 E= -114.341961440485     Delta-E=       -0.000005503712 Rises=F Damp=F
 DIIS: error= 9.25D-05 at cycle   8 NSaved=   8.
 NSaved= 8 IEnMin= 8 EnMin= -114.341961440485     IErMin= 8 ErrMin= 9.25D-05
 ErrMax= 9.25D-05  0.00D+00 EMaxC= 1.00D-01 BMatC= 1.56D-07 BMatP= 6.11D-06
 IDIUse=1 WtCom= 1.00D+00 WtEn= 0.00D+00
 Coeff-Com: -0.159D-03 0.941D-04 0.467D-04 0.121D-03-0.281D-03 0.549D-02
 Coeff-Com:  0.512D-01 0.943D+00
 Coeff:     -0.159D-03 0.941D-04 0.467D-04 0.121D-03-0.281D-03 0.549D-02
 Coeff:      0.512D-01 0.943D+00
 Gap=     0.114 Goal=   None    Shift=    0.000
 RMSDP=1.66D-06 MaxDP=1.79D-05 DE=-5.50D-06 OVMax= 7.95D-05

 Cycle   9  Pass 1  IDiag  1:
 E= -114.341961532076     Delta-E=       -0.000000091591 Rises=F Damp=F
 DIIS: error= 5.62D-05 at cycle   9 NSaved=   9.
 NSaved= 9 IEnMin= 9 EnMin= -114.341961532076     IErMin= 9 ErrMin= 5.62D-05
 ErrMax= 5.62D-05  0.00D+00 EMaxC= 1.00D-01 BMatC= 6.22D-08 BMatP= 1.56D-07
 IDIUse=1 WtCom= 1.00D+00 WtEn= 0.00D+00
 Coeff-Com: -0.552D-04 0.150D-04-0.204D-04 0.366D-03-0.264D-02-0.103D-02
 Coeff-Com: -0.632D-02 0.869D-01 0.923D+00
 Coeff:     -0.552D-04 0.150D-04-0.204D-04 0.366D-03-0.264D-02-0.103D-02
 Coeff:     -0.632D-02 0.869D-01 0.923D+00
 Gap=     0.114 Goal=   None    Shift=    0.000
 RMSDP=1.73D-06 MaxDP=2.40D-05 DE=-9.16D-08 OVMax= 1.01D-04

 Cycle  10  Pass 1  IDiag  1:
 E= -114.341961585141     Delta-E=       -0.000000053065 Rises=F Damp=F
 DIIS: error= 7.98D-06 at cycle  10 NSaved=  10.
 NSaved=10 IEnMin=10 EnMin= -114.341961585141     IErMin=10 ErrMin= 7.98D-06
 ErrMax= 7.98D-06  0.00D+00 EMaxC= 1.00D-01 BMatC= 1.18D-09 BMatP= 6.22D-08
 IDIUse=1 WtCom= 1.00D+00 WtEn= 0.00D+00
 Coeff-Com: -0.171D-05 0.783D-06 0.685D-06 0.222D-04-0.105D-03 0.119D-03
 Coeff-Com: -0.145D-02-0.486D-01-0.224D-01 0.107D+01
 Coeff:     -0.171D-05 0.783D-06 0.685D-06 0.222D-04-0.105D-03 0.119D-03
 Coeff:     -0.145D-02-0.486D-01-0.224D-01 0.107D+01
 Gap=     0.114 Goal=   None    Shift=    0.000
 RMSDP=2.91D-07 MaxDP=3.29D-06 DE=-5.31D-08 OVMax= 1.51D-05

 Cycle  11  Pass 1  IDiag  1:
 E= -114.341961586227     Delta-E=       -0.000000001086 Rises=F Damp=F
 DIIS: error= 8.83D-08 at cycle  11 NSaved=  11.
 NSaved=11 IEnMin=11 EnMin= -114.341961586227     IErMin=11 ErrMin= 8.83D-08
 ErrMax= 8.83D-08  0.00D+00 EMaxC= 1.00D-01 BMatC= 4.23D-13 BMatP= 1.18D-09
 IDIUse=1 WtCom= 1.00D+00 WtEn= 0.00D+00
 Coeff-Com: -0.779D-06-0.924D-08 0.394D-06-0.113D-06-0.230D-04-0.126D-04
 Coeff-Com: -0.808D-04-0.295D-02 0.758D-04 0.653D-01 0.938D+00
 Coeff:     -0.779D-06-0.924D-08 0.394D-06-0.113D-06-0.230D-04-0.126D-04
 Coeff:     -0.808D-04-0.295D-02 0.758D-04 0.653D-01 0.938D+00
 Gap=     0.114 Goal=   None    Shift=    0.000
 RMSDP=9.81D-09 MaxDP=1.62D-07 DE=-1.09D-09 OVMax= 7.73D-07

 SCF Done:  E(RB3LYP) =  -114.341961586     A.U. after   11 cycles
            NFock= 11  Conv=0.98D-08     -V/T= 2.0091
 KE= 1.133107915837D+02 PE=-3.144513745546D+02 EE= 6.377560025132D+01
 Leave Link  502 at Fri Sep 17 10:52:47 2021, MaxMem=   268435456 cpu:               1.9 elap:               2.2
 (Enter /software/gaussian/g16-a03/l801.exe)
 DoSCS=F DFT=T ScalE2(SS,OS)=  1.000000  1.000000
 ExpMin= 4.38D-02 ExpMax= 8.59D+03 ExpMxC= 1.30D+03 IAcc=3 IRadAn=         5 AccDes= 0.00D+00
 HarFok:  IExCor=  205 AccDes= 0.00D+00 IRadAn=         5 IDoV=-2 UseB2=F ITyADJ=14
 ICtDFT= 12500011 ScaDFX=  1.000000  1.000000  1.000000  1.000000
 Largest valence mixing into a core orbital is  5.43D-05
 Largest core mixing into a valence orbital is  1.28D-05
 Range of M.O.s used for correlation:     3    56
 NBasis=    56 NAE=     8 NBE=     8 NFC=     2 NFV=     0
 NROrb=     54 NOA=     6 NOB=     6 NVA=    48 NVB=    48
 Leave Link  801 at Fri Sep 17 10:52:47 2021, MaxMem=   268435456 cpu:               0.2 elap:               0.2
 (Enter /software/gaussian/g16-a03/l914.exe)
 RHF ground state
 Keep R1, R2, and R3 ints in memory in symmetry-blocked form, NReq=6042840.
 FoFCou: FMM=F IPFlag=           0 FMFlag=           0 FMFlg1=           0
         NFxFlg=           0 DoJE=F BraDBF=F KetDBF=F FulRan=T
         wScrn=  0.000000 ICntrl=       600 IOpCl=  0 I1Cent=           0 NGrid=           0
         NMat0=    1 NMatS0=   1596 NMatT0=    0 NMatD0=    1 NMtDS0=    0 NMtDT0=    0
 Petite list used in FoFCou.
 MDV=   268435456 DFT=T DoStab=F Mixed=T DoRPA=T DoScal=F NonHer=T
 Making orbital integer symmetry assigments:
 Orbital symmetries:
       Occupied  (A1) (A1) (A1) (A1) (B2) (A1) (B1) (B2)
       Virtual   (B1) (A1) (A1) (B2) (B1) (A1) (A1) (B2) (A1) (B1)
                 (B2) (A1) (A1) (B2) (B1) (A1) (B2) (A1) (A2) (B1)
                 (B2) (A1) (B1) (A1) (B2) (A1) (B2) (A1) (B1) (A2)
                 (A1) (B2) (A1) (B2) (A1) (B1) (A1) (A2) (A1) (B1)
                 (B2) (A1) (B2) (B1) (B2) (A1) (A1) (A1)
   120 initial guesses have been made.
 Convergence on wavefunction:    0.001000000000000
 Davidson Disk Diagonalization:  ConvIn= 1.00D-03 SkipCon=T Conv= 1.00D-03.
 Max sub-space:  1728 roots to seek:   120 dimension of matrix:          576
 Iteration     1 Dimension   120 NMult     0 NNew    120
 CISAX will form   120 AO SS matrices at one time.
 NMat=   120 NSing=   120 JSym2X=-1.
 New state      7 was old state      9
 New state      8 was old state      7
 New state      9 was old state     10
 New state     10 was old state     11
 New state     11 was old state     13
 New state     13 was old state     14
 New state     14 was old state     15
 New state     15 was old state     16
 New state     16 was old state     19
 New state     17 was old state     18
 New state     18 was old state     17
 New state     19 was old state     20
 New state     20 was old state     21
 New state     21 was old state     22
 New state     22 was old state     24
 New state     24 was old state     25
 New state     25 was old state     30
 New state     26 was old state     28
 New state     28 was old state     26
 New state     30 was old state     32
 Excitation Energies [eV] at current iteration:
 Root      1 :     1.268686007505916
 Root      2 :     3.336728658294245
 Root      3 :     3.637785737302991
 Root      4 :     3.794970297247124
 Root      5 :     4.409028457123989
 Root      6 :     6.874215667555293
 Root      7 :     6.895443087618262
 Root      8 :     7.315703616329903
 Root      9 :     7.999267669676852
 Root     10 :     8.431378853073843
 Root     11 :     8.483365631705018
 Root     12 :     8.564824012695347
 Root     13 :     8.968975468886564
 Root     14 :     8.991243832835977
 Root     15 :     9.157482350252883
 Root     16 :     9.722393875345972
 Root     17 :     9.871780459872271
 Root     18 :    10.016159499572880
 Root     19 :    10.406979739521630
 Root     20 :    10.648381217937680
 Root     21 :    10.651778800328090
 Root     22 :    10.822117391213140
 Root     23 :    11.196105249760590
 Root     24 :    11.473825338617530
 Root     25 :    11.915614468545780
 Root     26 :    12.009028499472440
 Root     27 :    12.112182911671830
 Root     28 :    12.206969567165630
 Root     29 :    12.636584633629460
 Root     30 :    12.858975532055060
 Root     31 :    13.030559132488470
 Root     32 :    13.552863812447020
 Root     33 :    13.728425207221680
 Root     34 :    13.926126635006650
 Root     35 :    14.107069542564810
 Root     36 :    14.109859796967130
 Root     37 :    14.418096205009250
 Root     38 :    14.777541315118130
 Root     39 :    14.959961830264550
 Root     40 :    15.404765353551740
 Root     41 :    15.530605537660350
 Root     42 :    15.712018265616760
 Root     43 :    15.793400199762070
 Root     44 :    16.047555014772220
 Root     45 :    17.068265732178310
 Root     46 :    17.327140649525560
 Root     47 :    17.482747604939060
 Root     48 :    17.629719327072420
 Root     49 :    17.699940714592810
 Root     50 :    17.720858514460550
 Root     51 :    17.979977994928980
 Root     52 :    18.151043606141060
 Root     53 :    18.715271011733660
 Root     54 :    19.047161063855460
 Root     55 :    19.143489065310700
 Root     56 :    19.545618890015750
 Root     57 :    19.978796939633490
 Root     58 :    20.129851746488460
 Root     59 :    20.233922712112930
 Root     60 :    20.269543461928880
 Root     61 :    20.313057205584900
 Root     62 :    20.643145068306360
 Root     63 :    21.021950099535060
 Root     64 :    21.129676176261770
 Root     65 :    21.463763572560240
 Root     66 :    21.848022486217490
 Root     67 :    21.990079131115720
 Root     68 :    22.119498771981120
 Root     69 :    22.417789667525280
 Root     70 :    22.468110778622890
 Root     71 :    22.678959242539370
 Root     72 :    23.202678700276790
 Root     73 :    23.398852713870420
 Root     74 :    23.695667653620780
 Root     75 :    23.813945576970410
 Root     76 :    24.207961822812490
 Root     77 :    24.259090362069690
 Root     78 :    24.451294376169400
 Root     79 :    24.625993645854500
 Root     80 :    25.007346733497950
 Root     81 :    25.045338781873930
 Root     82 :    25.090153793886910
 Root     83 :    25.215552840562410
 Root     84 :    25.227761787990390
 Root     85 :    25.602254655742380
 Root     86 :    26.427329757765840
 Root     87 :    26.533545694479320
 Root     88 :    26.677505033055260
 Root     89 :    26.837139483863900
 Root     90 :    27.780928988806680
 Root     91 :    28.174919643789740
 Root     92 :    28.784266394987890
 Root     93 :    28.819133906719260
 Root     94 :    29.256303790125610
 Root     95 :    29.546792724670810
 Root     96 :    29.627215288460780
 Root     97 :    30.563931528145520
 Root     98 :    31.319057172780700
 Root     99 :    31.544312467551850
 Root    100 :    32.758000849294920
 Root    101 :    33.138487551085720
 Root    102 :    33.184758782097470
 Root    103 :    33.617115753570250
 Root    104 :    33.721259673360190
 Root    105 :    33.773218154638940
 Root    106 :    33.927104952843940
 Root    107 :    33.981686624487240
 Root    108 :    34.855234667887530
 Root    109 :    35.257770786492190
 Root    110 :    35.317821102119720
 Root    111 :    35.665951055364220
 Root    112 :    35.958972593994600
 Root    113 :    36.689733151933260
 Root    114 :    36.700449287090320
 Root    115 :    37.514224639607580
 Root    116 :    37.638799909432880
 Root    117 :    38.172439109121580
 Root    118 :    38.574417576791600
 Root    119 :    39.746633389346630
 Root    120 :    43.200024594672660
 Iteration     2 Dimension   180 NMult   120 NNew     60
 CISAX will form    60 AO SS matrices at one time.
 NMat=    60 NSing=    60 JSym2X=-1.
 Root      1 not converged, maximum delta is    0.006729041191182
 Root      2 not converged, maximum delta is    0.008260160863616
 Root      3 not converged, maximum delta is    0.007792752089329
 Root      4 not converged, maximum delta is    0.008223945814225
 Root      5 not converged, maximum delta is    0.008827209782125
 Root      6 not converged, maximum delta is    0.002434143484417
 Root      7 not converged, maximum delta is    0.011577717820324
 Root      8 not converged, maximum delta is    0.002619673113753
 Root      9 not converged, maximum delta is    0.001636994778790
 Root     10 not converged, maximum delta is    0.001402307045917
 Root     11 not converged, maximum delta is    0.002846849737449
 Root     12 not converged, maximum delta is    0.001913947046287
 Root     13 not converged, maximum delta is    0.016552863827888
 Root     14 not converged, maximum delta is    0.002279742333231
 Root     15 not converged, maximum delta is    0.020631820931892
 Root     16 not converged, maximum delta is    0.006679414582563
 Root     17 not converged, maximum delta is    0.026869691438959
 Root     18 not converged, maximum delta is    0.025820903690929
 Root     19 not converged, maximum delta is    0.005350738705140
 Root     20 not converged, maximum delta is    0.006547387366067
 Root     21 not converged, maximum delta is    0.003844605533436
 Root     22 not converged, maximum delta is    0.010027144166111
 Root     23 not converged, maximum delta is    0.001690092572163
 Root     24 not converged, maximum delta is    0.004564879343595
 Root     25 not converged, maximum delta is    0.008901182932423
 Root     26 not converged, maximum delta is    0.007254262450810
 Root     27 not converged, maximum delta is    0.003046777013873
 Root     28 not converged, maximum delta is    0.004328857483169
 Root     29 not converged, maximum delta is    0.007484739883815
 Root     30 not converged, maximum delta is    0.010114998122816
 Excitation Energies [eV] at current iteration:
 Root      1 :     1.261253410046536   Change is   -0.007432597459380
 Root      2 :     3.318805577201542   Change is   -0.017923081092703
 Root      3 :     3.613225905686928   Change is   -0.024559831616063
 Root      4 :     3.775899704309097   Change is   -0.019070592938027
 Root      5 :     4.390753445001080   Change is   -0.018275012122908
 Root      6 :     6.872288320272405   Change is   -0.001927347282887
 Root      7 :     6.879254285326378   Change is   -0.016188802291884
 Root      8 :     7.314624605223529   Change is   -0.001079011106374
 Root      9 :     7.998367668249442   Change is   -0.000900001427411
 Root     10 :     8.430892621089535   Change is   -0.000486231984308
 Root     11 :     8.481076211972427   Change is   -0.002289419732591
 Root     12 :     8.564446580685686   Change is   -0.000377432009660
 Root     13 :     8.957939325030411   Change is   -0.011036143856153
 Root     14 :     8.989924412570357   Change is   -0.001319420265621
 Root     15 :     9.149868299546144   Change is   -0.007614050706739
 Root     16 :     9.713430666725866   Change is   -0.008963208620105
 Root     17 :     9.850051298261285   Change is   -0.021729161610986
 Root     18 :    10.013406248319900   Change is   -0.002753251252983
 Root     19 :    10.404136283665800   Change is   -0.002843455855833
 Root     20 :    10.644876706781290   Change is   -0.003504511156394
 Root     21 :    10.649542951071830   Change is   -0.002235849256258
 Root     22 :    10.808114920094340   Change is   -0.014002471118803
 Root     23 :    11.195333211744640   Change is   -0.000772038015950
 Root     24 :    11.466449706815530   Change is   -0.007375631801997
 Root     25 :    11.892998480687930   Change is   -0.022615987857854
 Root     26 :    12.004767200328860   Change is   -0.004261299143583
 Root     27 :    12.108873997099060   Change is   -0.003308914572765
 Root     28 :    12.202064605903760   Change is   -0.004904961261873
 Root     29 :    12.629049055712360   Change is   -0.007535577917101
 Root     30 :    12.852777709001920   Change is   -0.006197823053137
 Iteration     3 Dimension   240 NMult   180 NNew     60
 CISAX will form    60 AO SS matrices at one time.
 NMat=    60 NSing=    60 JSym2X=-1.
 Root      1 has converged.
 Root      2 has converged.
 Root      3 has converged.
 Root      4 has converged.
 Root      5 has converged.
 Root      6 has converged.
 Root      7 has converged.
 Root      8 has converged.
 Root      9 has converged.
 Root     10 has converged.
 Root     11 has converged.
 Root     12 has converged.
 Root     13 has converged.
 Root     14 has converged.
 Root     15 has converged.
 Root     16 has converged.
 Root     17 has converged.
 Root     18 has converged.
 Root     19 has converged.
 Root     20 has converged.
 Root     21 has converged.
 Root     22 has converged.
 Root     23 has converged.
 Root     24 has converged.
 Root     25 has converged.
 Root     26 has converged.
 Root     27 has converged.
 Root     28 has converged.
 Root     29 has converged.
 Root     30 has converged.
 Excitation Energies [eV] at current iteration:
 Root      1 :     1.261252394966045   Change is   -0.000001015080492
 Root      2 :     3.318790190407128   Change is   -0.000015386794414
 Root      3 :     3.613218697878767   Change is   -0.000007207808161
 Root      4 :     3.775893830786833   Change is   -0.000005873522265
 Root      5 :     4.390748170848116   Change is   -0.000005274152964
 Root      6 :     6.872287529250042   Change is   -0.000000791022364
 Root      7 :     6.879249673218850   Change is   -0.000004612107528
 Root      8 :     7.314624241940551   Change is   -0.000000363282978
 Root      9 :     7.998366294286577   Change is   -0.000001373962864
 Root     10 :     8.430892402916852   Change is   -0.000000218172684
 Root     11 :     8.481075147356290   Change is   -0.000001064616139
 Root     12 :     8.564446503825264   Change is   -0.000000076860423
 Root     13 :     8.957923354835867   Change is   -0.000015970194544
 Root     14 :     8.989923858282392   Change is   -0.000000554287965
 Root     15 :     9.149853317909402   Change is   -0.000014981636742
 Root     16 :     9.713416179299379   Change is   -0.000014487426488
 Root     17 :     9.850027258686337   Change is   -0.000024039574949
 Root     18 :    10.013403487619060   Change is   -0.000002760700840
 Root     19 :    10.404133236010020   Change is   -0.000003047655775
 Root     20 :    10.644872754620810   Change is   -0.000003952160476
 Root     21 :    10.649540126106220   Change is   -0.000002824965616
 Root     22 :    10.808082711418070   Change is   -0.000032208676271
 Root     23 :    11.195332887757000   Change is   -0.000000323987637
 Root     24 :    11.466444030697550   Change is   -0.000005676117980
 Root     25 :    11.892947217810730   Change is   -0.000051262877198
 Root     26 :    12.004765418361950   Change is   -0.000001781966910
 Root     27 :    12.108869658614960   Change is   -0.000004338484108
 Root     28 :    12.202057505915820   Change is   -0.000007099987933
 Root     29 :    12.629028656108970   Change is   -0.000020399603391
 Root     30 :    12.852762657716560   Change is   -0.000015051285361
 Convergence achieved on expansion vectors.
 ***********************************************************************
 Excited states from <AA,BB:AA,BB> singles matrix:
 ***********************************************************************
 
 1PDM for each excited state written to RWF  633
 Ground to excited state transition densities written to RWF  633
 Ground to excited state transition electric dipole moments (Au):
       state          X           Y           Z        Dip. S.      Osc.
         1         0.0000     -0.0000     -0.0000      0.0000      0.0000
         2        -0.0000     -0.0000      0.6057      0.3669      0.0298
         3         0.0000     -0.1644     -0.0000      0.0270      0.0024
         4         0.0440      0.0000     -0.0000      0.0019      0.0002
         5        -0.2494     -0.0000     -0.0000      0.0622      0.0067
         6        -0.0000     -0.1117     -0.0000      0.0125      0.0021
         7         0.0000      0.0000     -0.0000      0.0000      0.0000
         8        -0.6098      0.0000      0.0000      0.3719      0.0666
         9         0.0000     -0.0000     -0.3186      0.1015      0.0199
        10        -0.0000      0.0000      0.0000      0.0000      0.0000
        11        -0.0000     -0.4242      0.0000      0.1799      0.0374
        12         0.0000      0.0000      0.0000      0.0000      0.0000
        13         0.0000      0.0000      1.0933      1.1953      0.2623
        14        -0.4315      0.0000      0.0000      0.1862      0.0410
        15        -0.0000     -0.0000     -0.9285      0.8621      0.1932
        16        -0.0000     -0.0000     -0.5457      0.2978      0.0709
        17         0.0000      0.0431     -0.0000      0.0019      0.0004
        18        -0.0000     -0.2653     -0.0000      0.0704      0.0173
        19        -0.4447     -0.0000      0.0000      0.1978      0.0504
        20         0.0000     -0.2316      0.0000      0.0537      0.0140
        21         0.0000     -0.0000      0.0000      0.0000      0.0000
        22        -0.0000     -0.0000     -0.8752      0.7659      0.2028
        23        -0.0708      0.0000      0.0000      0.0050      0.0014
        24         0.0000     -0.1127      0.0000      0.0127      0.0036
        25         0.0000     -0.0000      1.1200      1.2544      0.3655
        26         0.0000     -0.0000     -0.0000      0.0000      0.0000
        27         0.0736     -0.0000      0.0000      0.0054      0.0016
        28        -0.0000     -0.6730     -0.0000      0.4529      0.1354
        29        -0.0000     -0.0000      0.3881      0.1506      0.0466
        30        -0.0000     -0.0000     -0.5180      0.2684      0.0845
 Ground to excited state transition velocity dipole moments (Au):
       state          X           Y           Z        Dip. S.      Osc.
         1        -0.0000      0.0000     -0.0000      0.0000      0.0000
         2        -0.0000      0.0000     -0.0636      0.0041      0.0221
         3        -0.0000      0.0190      0.0000      0.0004      0.0018
         4        -0.0281     -0.0000      0.0000      0.0008      0.0038
         5         0.0381      0.0000     -0.0000      0.0015      0.0060
         6         0.0000      0.0235      0.0000      0.0006      0.0015
         7        -0.0000     -0.0000      0.0000      0.0000      0.0000
         8         0.1668     -0.0000      0.0000      0.0278      0.0690
         9         0.0000      0.0000      0.0910      0.0083      0.0188
        10         0.0000     -0.0000     -0.0000      0.0000      0.0000
        11         0.0000      0.1344     -0.0000      0.0181      0.0387
        12        -0.0000     -0.0000     -0.0000      0.0000      0.0000
        13        -0.0000     -0.0000     -0.3590      0.1289      0.2610
        14         0.1511     -0.0000     -0.0000      0.0228      0.0460
        15         0.0000      0.0000      0.3150      0.0993      0.1968
        16         0.0000      0.0000      0.2024      0.0410      0.0765
        17        -0.0000     -0.0202      0.0000      0.0004      0.0008
        18         0.0000      0.1033      0.0000      0.0107      0.0193
        19         0.1527     -0.0000     -0.0000      0.0233      0.0407
        20        -0.0000      0.0899     -0.0000      0.0081      0.0138
        21        -0.0000     -0.0000     -0.0000      0.0000      0.0000
        22         0.0000      0.0000      0.3486      0.1215      0.2040
        23         0.0233     -0.0000     -0.0000      0.0005      0.0009
        24         0.0000      0.0421     -0.0000      0.0018      0.0028
        25        -0.0000      0.0000     -0.4695      0.2205      0.3363
        26        -0.0000      0.0000      0.0000      0.0000      0.0000
        27        -0.0226     -0.0000     -0.0000      0.0005      0.0008
        28         0.0000      0.2985      0.0000      0.0891      0.1324
        29         0.0000      0.0000     -0.1717      0.0295      0.0423
        30        -0.0000      0.0000      0.2312      0.0534      0.0754
 Ground to excited state transition magnetic dipole moments (Au):
       state          X           Y           Z
         1        -0.0000      0.0000      0.9518
         2        -0.0000     -0.0000      0.0000
         3         0.5674     -0.0000     -0.0000
         4        -0.0000     -1.9722      0.0000
         5         0.0000     -0.1676      0.0000
         6        -0.3048      0.0000     -0.0000
         7         0.0000     -0.0000     -1.0825
         8         0.0000     -0.1448     -0.0000
         9        -0.0000      0.0000      0.0000
        10        -0.0000     -0.0000      0.0241
        11        -0.5280     -0.0000     -0.0000
        12        -0.0000     -0.0000     -0.0016
        13         0.0000     -0.0000     -0.0000
        14         0.0000      0.2583      0.0000
        15         0.0000      0.0000      0.0000
        16        -0.0000      0.0000     -0.0000
        17         0.8425     -0.0000      0.0000
        18         0.0670     -0.0000      0.0000
        19        -0.0000      0.1721     -0.0000
        20         0.0766     -0.0000      0.0000
        21        -0.0000     -0.0000     -0.0746
        22         0.0000      0.0000      0.0000
        23         0.0000      0.0707     -0.0000
        24         0.0175     -0.0000      0.0000
        25         0.0000      0.0000     -0.0000
        26         0.0000      0.0000     -0.0281
        27        -0.0000      0.0992     -0.0000
        28         0.7704      0.0000      0.0000
        29         0.0000     -0.0000     -0.0000
        30         0.0000     -0.0000     -0.0000
 Ground to excited state transition velocity quadrupole moments (Au):
       state          XX          YY          ZZ          XY          XZ          YZ
         1         0.0000      0.0000     -0.0000     -0.0249      0.0000      0.0000
         2         0.0457     -0.0071     -0.0272     -0.0000     -0.0000      0.0000
         3         0.0000     -0.0000     -0.0000      0.0000     -0.0000      0.0239
         4         0.0000     -0.0000     -0.0000     -0.0000     -0.0375     -0.0000
         5         0.0000     -0.0000     -0.0000     -0.0000      0.1345      0.0000
         6         0.0000      0.0000     -0.0000      0.0000     -0.0000      0.2302
         7         0.0000     -0.0000     -0.0000      0.1725      0.0000     -0.0000
         8        -0.0000     -0.0000     -0.0000      0.0000     -0.1799     -0.0000
         9         0.0351      0.1132     -0.2000     -0.0000      0.0000      0.0000
        10        -0.0000     -0.0000      0.0000      0.2857     -0.0000     -0.0000
        11         0.0000     -0.0000     -0.0000      0.0000     -0.0000      0.2438
        12        -0.0000     -0.0000      0.0000      0.0599     -0.0000      0.0000
        13         0.5970      0.0557      0.0140      0.0000     -0.0000     -0.0000
        14        -0.0000     -0.0000      0.0000      0.0000      0.3355      0.0000
        15         0.5263      0.0438     -0.3473      0.0000      0.0000      0.0000
        16         0.2912      0.2157      0.6343      0.0000      0.0000     -0.0000
        17         0.0000      0.0000      0.0000      0.0000     -0.0000      0.3958
        18         0.0000      0.0000     -0.0000     -0.0000     -0.0000     -0.1112
        19         0.0000      0.0000     -0.0000      0.0000     -0.0660     -0.0000
        20         0.0000      0.0000      0.0000      0.0000      0.0000     -0.3262
        21         0.0000      0.0000     -0.0000     -0.2775     -0.0000     -0.0000
        22        -0.1010     -0.4186     -0.0867      0.0000     -0.0000     -0.0000
        23         0.0000      0.0000      0.0000     -0.0000     -0.1628      0.0000
        24        -0.0000      0.0000     -0.0000     -0.0000      0.0000      0.4644
        25        -0.2842      0.4183     -0.2884      0.0000      0.0000     -0.0000
        26         0.0000     -0.0000     -0.0000      0.3727      0.0000      0.0000
        27        -0.0000      0.0000      0.0000     -0.0000      0.3895     -0.0000
        28         0.0000     -0.0000      0.0000     -0.0000      0.0000     -0.8329
        29        -0.2447      0.0778      0.1897      0.0000     -0.0000     -0.0000
        30        -0.3130      0.1833      0.1655      0.0000      0.0000     -0.0000
 <0|del|b> * <b|rxdel|0> + <0|del|b> * <b|delr+rdel|0>
 Rotatory Strengths (R) in cgs (10**-40 erg-esu-cm/Gauss)
       state          XX          YY          ZZ    R(velocity)    E-M Angle
         1        -0.0000     -0.0000      0.0000     -0.0000       90.00
         2         0.0000     -0.0000     -0.0000     -0.0000       90.00
         3        -0.0000     -0.0000     -0.0000     -0.0000       90.00
         4         0.0000      0.0000      0.0000      0.0000       90.00
         5        -0.0000      0.0000      0.0000     -0.0000       90.00
         6         0.0000     -0.0000     -0.0000     -0.0000       90.00
         7        -0.0000     -0.0000     -0.0000     -0.0000       90.00
         8        -0.0000      0.0000      0.0000      0.0000       90.00
         9        -0.0000      0.0000     -0.0000      0.0000       90.00
        10        -0.0000      0.0000      0.0000     -0.0000       90.00
        11         0.0000     -0.0000     -0.0000     -0.0000       90.00
        12        -0.0000      0.0000      0.0000      0.0000       90.00
        13        -0.0000      0.0000     -0.0000      0.0000       90.00
        14         0.0000      0.0000     -0.0000      0.0000       90.00
        15         0.0000     -0.0000      0.0000      0.0000       90.00
        16         0.0000     -0.0000     -0.0000     -0.0000       90.00
        17        -0.0000     -0.0000     -0.0000     -0.0000       90.00
        18        -0.0000     -0.0000     -0.0000     -0.0000       90.00
        19        -0.0000     -0.0000     -0.0000     -0.0000       90.00
        20        -0.0000      0.0000     -0.0000     -0.0000       90.00
        21         0.0000     -0.0000      0.0000      0.0000       90.00
        22         0.0000      0.0000      0.0000      0.0000       90.00
        23        -0.0000      0.0000     -0.0000      0.0000       90.00
        24        -0.0000      0.0000     -0.0000     -0.0000       90.00
        25        -0.0000      0.0000     -0.0000      0.0000       90.00
        26         0.0000     -0.0000      0.0000     -0.0000       90.00
        27         0.0000      0.0000     -0.0000     -0.0000       90.00
        28         0.0000     -0.0000      0.0000      0.0000       90.00
        29         0.0000      0.0000      0.0000      0.0000       90.00
        30         0.0000     -0.0000     -0.0000     -0.0000       90.00
 1/2[<0|r|b>*<b|rxdel|0> + (<0|rxdel|b>*<b|r|0>)*]
 Rotatory Strengths (R) in cgs (10**-40 erg-esu-cm/Gauss)
       state          XX          YY          ZZ     R(length)
         1         0.0000      0.0000      0.0000      0.0000
         2        -0.0000     -0.0000     -0.0000     -0.0000
         3        -0.0000     -0.0000     -0.0000     -0.0000
         4         0.0000      0.0000      0.0000      0.0000
         5         0.0000     -0.0000      0.0000      0.0000
         6        -0.0000      0.0000     -0.0000     -0.0000
         7        -0.0000      0.0000     -0.0000     -0.0000
         8         0.0000      0.0000      0.0000      0.0000
         9         0.0000      0.0000      0.0000      0.0000
        10        -0.0000      0.0000     -0.0000     -0.0000
        11        -0.0000     -0.0000      0.0000     -0.0000
        12         0.0000      0.0000      0.0000      0.0000
        13        -0.0000      0.0000      0.0000      0.0000
        14         0.0000     -0.0000     -0.0000      0.0000
        15         0.0000      0.0000      0.0000      0.0000
        16        -0.0000      0.0000     -0.0000     -0.0000
        17        -0.0000      0.0000      0.0000     -0.0000
        18         0.0000     -0.0000      0.0000     -0.0000
        19        -0.0000      0.0000      0.0000     -0.0000
        20        -0.0000     -0.0000     -0.0000     -0.0000
        21         0.0000     -0.0000      0.0000      0.0000
        22         0.0000      0.0000      0.0000      0.0000
        23         0.0000     -0.0000      0.0000      0.0000
        24        -0.0000     -0.0000     -0.0000     -0.0000
        25        -0.0000      0.0000      0.0000      0.0000
        26        -0.0000      0.0000     -0.0000     -0.0000
        27         0.0000      0.0000      0.0000      0.0000
        28         0.0000      0.0000      0.0000      0.0000
        29         0.0000     -0.0000      0.0000      0.0000
        30         0.0000     -0.0000     -0.0000     -0.0000
  1/2[<0|del|b>*<b|r|0> + (<0|r|b>*<b|del|0>)*] (Au)
       state          X           Y           Z        Dip. S.   Osc.(frdel)
         1        -0.0000     -0.0000      0.0000      0.0000      0.0000
         2         0.0000     -0.0000     -0.0385      0.0385      0.0257
         3        -0.0000     -0.0031     -0.0000      0.0031      0.0021
         4        -0.0012     -0.0000     -0.0000      0.0012      0.0008
         5        -0.0095     -0.0000      0.0000      0.0095      0.0063
         6        -0.0000     -0.0026     -0.0000      0.0026      0.0017
         7        -0.0000     -0.0000     -0.0000      0.0000      0.0000
         8        -0.1017     -0.0000      0.0000      0.1017      0.0678
         9         0.0000     -0.0000     -0.0290      0.0290      0.0193
        10        -0.0000     -0.0000     -0.0000      0.0000      0.0000
        11        -0.0000     -0.0570     -0.0000      0.0570      0.0380
        12        -0.0000     -0.0000     -0.0000      0.0000      0.0000
        13        -0.0000     -0.0000     -0.3925      0.3925      0.2617
        14        -0.0652     -0.0000     -0.0000      0.0652      0.0435
        15        -0.0000     -0.0000     -0.2925      0.2925      0.1950
        16        -0.0000     -0.0000     -0.1104      0.1104      0.0736
        17        -0.0000     -0.0009     -0.0000      0.0009      0.0006
        18        -0.0000     -0.0274     -0.0000      0.0274      0.0183
        19        -0.0679      0.0000     -0.0000      0.0679      0.0453
        20        -0.0000     -0.0208     -0.0000      0.0208      0.0139
        21        -0.0000      0.0000     -0.0000     -0.0000     -0.0000
        22        -0.0000     -0.0000     -0.3051      0.3051      0.2034
        23        -0.0016     -0.0000     -0.0000      0.0016      0.0011
        24         0.0000     -0.0047     -0.0000      0.0047      0.0032
        25        -0.0000     -0.0000     -0.5259      0.5259      0.3506
        26        -0.0000     -0.0000     -0.0000      0.0000      0.0000
        27        -0.0017      0.0000     -0.0000      0.0017      0.0011
        28        -0.0000     -0.2009     -0.0000      0.2009      0.1339
        29        -0.0000     -0.0000     -0.0666      0.0666      0.0444
        30         0.0000     -0.0000     -0.1197      0.1197      0.0798

 Excitation energies and oscillator strengths:
 
 Excited State   1:      Singlet-A2     1.2613 eV  983.02 nm  f=0.0000  <S**2>=0.000
       3 -> 27         0.00070
       3 -> 38         0.00043
       3 -> 46         0.00334
       4 -> 27         0.00037
       4 -> 46        -0.00094
       5 ->  9         0.00152
       5 -> 13         0.00110
       5 -> 18         0.00166
       5 -> 23         0.00135
       5 -> 28         0.00127
       5 -> 37         0.00072
       5 -> 44         0.00020
       5 -> 52         0.00017
       6 -> 27        -0.00057
       6 -> 38        -0.00055
       6 -> 46         0.00093
       7 -> 12        -0.00130
       7 -> 16         0.00532
       7 -> 19        -0.00471
       7 -> 22        -0.00112
       7 -> 25        -0.00055
       7 -> 29        -0.00193
       7 -> 33         0.00027
       7 -> 49         0.00013
       7 -> 53         0.00038
       8 ->  9         0.71096
       8 -> 13        -0.00661
       8 -> 18         0.02076
       8 -> 23        -0.00089
       8 -> 28         0.01024
       8 -> 31         0.00161
       8 -> 37         0.00048
       8 -> 48        -0.00029
       8 -> 52         0.00185
       3 <- 27         0.00019
       3 <- 38         0.00021
       3 <- 46         0.00336
       4 <- 27         0.00070
       4 <- 38         0.00019
       4 <- 46        -0.00073
       5 <-  9         0.00038
       5 <- 13        -0.00033
       5 <- 18        -0.00037
       5 <- 23         0.00016
       5 <- 28        -0.00028
       5 <- 31         0.00022
       5 <- 37         0.00042
       6 <- 38        -0.00042
       6 <- 46         0.00068
       7 <- 12         0.00185
       7 <- 16        -0.01054
       7 <- 19         0.00565
       7 <- 22         0.00566
       7 <- 25        -0.00063
       7 <- 29         0.00563
       7 <- 33        -0.00034
       7 <- 35         0.00014
       7 <- 40        -0.00010
       7 <- 42        -0.00010
       7 <- 49        -0.00048
       7 <- 53         0.00145
       8 <-  9        -0.07641
       8 <- 13        -0.00047
       8 <- 18        -0.00776
       8 <- 23        -0.00035
       8 <- 28        -0.00276
       8 <- 31        -0.00082
       8 <- 37        -0.00020
       8 <- 48         0.00013
       8 <- 52         0.00044
 This state for optimization and/or second-order correction.
 Total Energy, E(TD-HF/TD-DFT) =  -114.295611414    
 Copying the excited state density for this state as the 1-particle RhoCI density.
 
 Excited State   2:      Singlet-A1     3.3188 eV  373.58 nm  f=0.0298  <S**2>=0.000
       3 -> 10        -0.01433
       3 -> 11        -0.00299
       3 -> 14         0.00126
       3 -> 15         0.00040
       3 -> 17        -0.00305
       3 -> 20        -0.00350
       3 -> 21         0.00047
       3 -> 24         0.00048
       3 -> 26         0.00127
       3 -> 30        -0.00050
       3 -> 32         0.00276
       3 -> 34        -0.00106
       3 -> 36        -0.00097
       3 -> 39        -0.00041
       3 -> 43         0.00051
       3 -> 45        -0.00101
       3 -> 47         0.00231
       3 -> 50         0.00156
       4 -> 10        -0.00145
       4 -> 11         0.01029
       4 -> 14         0.00182
       4 -> 15        -0.00767
       4 -> 17         0.00220
       4 -> 20         0.00207
       4 -> 21         0.00026
       4 -> 24        -0.00378
       4 -> 26         0.00325
       4 -> 30         0.00030
       4 -> 32        -0.00121
       4 -> 34         0.00077
       4 -> 36         0.00011
       4 -> 39        -0.00021
       4 -> 43        -0.00046
       4 -> 45         0.00077
       4 -> 47        -0.00076
       4 -> 50        -0.00027
       4 -> 54         0.00014
       5 -> 12         0.00948
       5 -> 16         0.00256
       5 -> 19         0.00114
       5 -> 22         0.00676
       5 -> 25        -0.00451
       5 -> 29         0.00034
       5 -> 33        -0.00240
       5 -> 35         0.00273
       5 -> 40        -0.00098
       5 -> 42        -0.00098
       5 -> 49         0.00013
       5 -> 51        -0.00086
       6 -> 10         0.25192
       6 -> 11         0.03658
       6 -> 14        -0.04112
       6 -> 15        -0.02269
       6 -> 17        -0.01562
       6 -> 20        -0.00144
       6 -> 21         0.00532
       6 -> 24        -0.00781
       6 -> 26        -0.00311
       6 -> 30        -0.00391
       6 -> 32         0.00414
       6 -> 34        -0.00138
       6 -> 36         0.00052
       6 -> 39        -0.00137
       6 -> 41        -0.00010
       6 -> 43         0.00081
       6 -> 45        -0.00089
       6 -> 47         0.00078
       6 -> 50         0.00055
       6 -> 54        -0.00097
       7 ->  9         0.67568
       7 -> 13        -0.00702
       7 -> 18        -0.01020
       7 -> 23        -0.00267
       7 -> 28         0.00129
       7 -> 31        -0.00328
       7 -> 37         0.00133
       7 -> 44        -0.00096
       7 -> 52         0.00105
       8 -> 12        -0.00746
       8 -> 16         0.03594
       8 -> 19        -0.01832
       8 -> 22        -0.01232
       8 -> 29        -0.00789
       8 -> 33         0.00095
       8 -> 35        -0.00069
       8 -> 40         0.00026
       8 -> 42         0.00024
       8 -> 51         0.00014
       8 -> 53        -0.00050
       3 <- 10        -0.01134
       3 <- 11        -0.00271
       3 <- 14         0.00106
       3 <- 17        -0.00175
       3 <- 20        -0.00304
       3 <- 26         0.00036
       3 <- 32         0.00239
       3 <- 34        -0.00055
       3 <- 36        -0.00099
       3 <- 39        -0.00036
       3 <- 43         0.00056
       3 <- 45        -0.00114
       3 <- 47         0.00232
       3 <- 50         0.00157
       4 <- 10         0.00018
       4 <- 11         0.00759
       4 <- 14         0.00144
       4 <- 15        -0.00530
       4 <- 17         0.00133
       4 <- 20         0.00254
       4 <- 24        -0.00290
       4 <- 26         0.00288
       4 <- 30        -0.00028
       4 <- 32        -0.00126
       4 <- 34         0.00065
       4 <- 36         0.00039
       4 <- 39        -0.00024
       4 <- 43        -0.00041
       4 <- 45         0.00071
       4 <- 47        -0.00046
       4 <- 50        -0.00014
       4 <- 54         0.00012
       5 <- 12         0.00576
       5 <- 16         0.00172
       5 <- 19         0.00092
       5 <- 22         0.00489
       5 <- 25        -0.00354
       5 <- 29         0.00035
       5 <- 33        -0.00201
       5 <- 35         0.00237
       5 <- 40        -0.00089
       5 <- 42        -0.00087
       5 <- 49         0.00013
       5 <- 51        -0.00081
       6 <- 10         0.08650
       6 <- 11         0.01541
       6 <- 14        -0.02016
       6 <- 15        -0.01225
       6 <- 17        -0.00951
       6 <- 20        -0.00221
       6 <- 21         0.00375
       6 <- 24        -0.00520
       6 <- 26        -0.00157
       6 <- 30        -0.00252
       6 <- 32         0.00400
       6 <- 34        -0.00154
       6 <- 39        -0.00124
       6 <- 41        -0.00010
       6 <- 43         0.00068
       6 <- 45        -0.00065
       6 <- 47         0.00044
       6 <- 50         0.00041
       6 <- 54        -0.00089
       7 <-  9        -0.13087
       7 <- 13         0.00326
       7 <- 18        -0.01123
       7 <- 23         0.00072
       7 <- 28        -0.00165
       7 <- 31        -0.00159
       7 <- 37         0.00063
       7 <- 44        -0.00079
       7 <- 48        -0.00042
       7 <- 52         0.00097
       8 <- 12        -0.00313
       8 <- 16         0.01827
       8 <- 19        -0.01071
       8 <- 22        -0.00823
       8 <- 25         0.00013
       8 <- 29        -0.00635
       8 <- 33         0.00076
       8 <- 35        -0.00054
       8 <- 40         0.00020
       8 <- 42         0.00019
       8 <- 51         0.00012
       8 <- 53        -0.00047
 
 Excited State   3:      Singlet-B2     3.6132 eV  343.14 nm  f=0.0024  <S**2>=0.000
       3 -> 12        -0.00121
       3 -> 16         0.00127
       3 -> 19        -0.00390
       3 -> 22         0.00106
       3 -> 25        -0.00087
       3 -> 29        -0.00258
       3 -> 33         0.00023
       3 -> 35         0.00140
       3 -> 40        -0.00129
       3 -> 42        -0.00049
       3 -> 49        -0.00387
       3 -> 51         0.00017
       3 -> 53         0.00027
       4 -> 12         0.00039
       4 -> 16        -0.00147
       4 -> 19         0.00037
       4 -> 22         0.00177
       4 -> 25         0.00064
       4 -> 29         0.00090
       4 -> 33        -0.00033
       4 -> 35         0.00043
       4 -> 40         0.00028
       4 -> 42         0.00012
       4 -> 49         0.00073
       5 -> 10         0.01007
       5 -> 11         0.00130
       5 -> 14        -0.00343
       5 -> 15         0.00318
       5 -> 17        -0.00051
       5 -> 20         0.00197
       5 -> 21         0.00310
       5 -> 24         0.00142
       5 -> 26        -0.00053
       5 -> 30        -0.00210
       5 -> 32        -0.00127
       5 -> 34         0.00026
       5 -> 39         0.00066
       5 -> 41         0.00042
       5 -> 47        -0.00040
       5 -> 50         0.00026
       5 -> 54        -0.00019
       6 -> 12         0.00247
       6 -> 16        -0.00275
       6 -> 19         0.00414
       6 -> 22        -0.00062
       6 -> 25         0.00113
       6 -> 29         0.00015
       6 -> 33        -0.00013
       6 -> 35        -0.00125
       6 -> 40         0.00083
       6 -> 42         0.00065
       6 -> 49         0.00123
       6 -> 53        -0.00045
       7 -> 27        -0.00054
       7 -> 38         0.00034
       7 -> 46         0.00306
       8 -> 10         0.70306
       8 -> 11         0.05957
       8 -> 14        -0.05552
       8 -> 15        -0.02247
       8 -> 17        -0.01648
       8 -> 20         0.00489
       8 -> 21         0.00600
       8 -> 24        -0.00582
       8 -> 26        -0.00445
       8 -> 30        -0.01307
       8 -> 32        -0.00128
       8 -> 34         0.00119
       8 -> 36         0.00143
       8 -> 39         0.00052
       8 -> 41        -0.00016
       8 -> 45        -0.00083
       8 -> 47        -0.00377
       8 -> 50         0.00145
       8 -> 54        -0.00243
       3 <- 12        -0.00043
       3 <- 16         0.00044
       3 <- 19        -0.00193
       3 <- 22         0.00093
       3 <- 25        -0.00078
       3 <- 29        -0.00105
       3 <- 33         0.00023
       3 <- 35         0.00094
       3 <- 40        -0.00111
       3 <- 42        -0.00035
       3 <- 49        -0.00393
       3 <- 51         0.00016
       3 <- 53         0.00073
       4 <- 12         0.00010
       4 <- 16        -0.00170
       4 <- 19         0.00018
       4 <- 22         0.00209
       4 <- 25         0.00036
       4 <- 29         0.00112
       4 <- 33        -0.00035
       4 <- 35         0.00062
       4 <- 40         0.00012
       4 <- 49         0.00051
       5 <- 10        -0.00092
       5 <- 11        -0.00066
       5 <- 14        -0.00047
       5 <- 15         0.00250
       5 <- 17         0.00020
       5 <- 20         0.00077
       5 <- 21         0.00164
       5 <- 24         0.00162
       5 <- 26        -0.00012
       5 <- 30        -0.00045
       5 <- 32        -0.00029
       5 <- 39         0.00030
       5 <- 41         0.00044
       5 <- 45        -0.00022
       5 <- 47        -0.00041
       5 <- 50         0.00014
       6 <- 12        -0.00077
       6 <- 16         0.00774
       6 <- 19        -0.00416
       6 <- 22        -0.00516
       6 <- 25         0.00122
       6 <- 29        -0.00608
       6 <- 33         0.00022
       6 <- 35        -0.00108
       6 <- 40         0.00083
       6 <- 42         0.00067
       6 <- 49         0.00171
       6 <- 53        -0.00141
       7 <- 27        -0.00054
       7 <- 38         0.00028
       7 <- 46         0.00264
       8 <- 10        -0.04347
       8 <- 11        -0.00744
       8 <- 14         0.00769
       8 <- 15         0.00224
       8 <- 17         0.00197
       8 <- 20        -0.00325
       8 <- 21        -0.00134
       8 <- 24         0.00153
       8 <- 26         0.00121
       8 <- 30         0.00166
       8 <- 32         0.00282
       8 <- 34        -0.00085
       8 <- 36        -0.00079
       8 <- 39        -0.00109
       8 <- 41         0.00022
       8 <- 43         0.00041
       8 <- 45        -0.00157
       8 <- 47        -0.00312
       8 <- 50         0.00118
       8 <- 54        -0.00065
 
 Excited State   4:      Singlet-B1     3.7759 eV  328.36 nm  f=0.0002  <S**2>=0.000
       3 ->  9        -0.02270
       3 -> 13         0.00083
       3 -> 18        -0.00373
       3 -> 23         0.00122
       3 -> 28        -0.00104
       3 -> 31        -0.00083
       3 -> 37         0.00016
       3 -> 44         0.00034
       3 -> 52         0.00069
       4 ->  9         0.00501
       4 -> 13        -0.00126
       4 -> 18         0.00017
       4 -> 23        -0.00116
       4 -> 28         0.00058
       4 -> 31        -0.00114
       4 -> 37        -0.00022
       4 -> 48        -0.00040
       4 -> 52        -0.00027
       5 -> 27        -0.00058
       5 -> 38         0.00126
       5 -> 46         0.00043
       6 ->  9         0.63760
       6 -> 13        -0.01615
       6 -> 18         0.01370
       6 -> 23        -0.00974
       6 -> 28         0.00366
       6 -> 31         0.00181
       6 -> 37        -0.00122
       6 -> 44        -0.00162
       6 -> 48         0.00319
       6 -> 52         0.00085
       7 -> 10         0.30938
       7 -> 11         0.02917
       7 -> 14        -0.02833
       7 -> 15        -0.01061
       7 -> 17        -0.01072
       7 -> 20         0.00391
       7 -> 21         0.00203
       7 -> 24        -0.00370
       7 -> 26        -0.00342
       7 -> 30        -0.00563
       7 -> 32         0.00043
       7 -> 34        -0.00024
       7 -> 36         0.00131
       7 -> 39        -0.00015
       7 -> 41        -0.00017
       7 -> 43         0.00048
       7 -> 45        -0.00073
       7 -> 47         0.00350
       7 -> 50         0.00119
       7 -> 54        -0.00039
       8 -> 27         0.00012
       8 -> 46         0.00428
       3 <-  9        -0.00758
       3 <- 13        -0.00077
       3 <- 18        -0.00248
       3 <- 23        -0.00045
       3 <- 28        -0.00060
       3 <- 31        -0.00077
       3 <- 37         0.00015
       3 <- 48         0.00018
       3 <- 52         0.00069
       4 <-  9         0.00367
       4 <- 13        -0.00012
       4 <- 18         0.00136
       4 <- 23        -0.00040
       4 <- 28         0.00145
       4 <- 31        -0.00082
       4 <- 37        -0.00012
       4 <- 44        -0.00020
       4 <- 48        -0.00038
       4 <- 52        -0.00013
       5 <- 27        -0.00088
       5 <- 38         0.00112
       5 <- 46         0.00039
       6 <-  9        -0.04543
       6 <- 13         0.00223
       6 <- 18        -0.00534
       6 <- 23         0.00033
       6 <- 28        -0.00412
       6 <- 31        -0.00047
       6 <- 37        -0.00093
       6 <- 44        -0.00030
       6 <- 48         0.00291
       6 <- 52        -0.00016
       7 <- 10        -0.05274
       7 <- 11        -0.00913
       7 <- 14         0.01295
       7 <- 15         0.00783
       7 <- 17         0.00326
       7 <- 20         0.00213
       7 <- 21        -0.00327
       7 <- 24         0.00385
       7 <- 26         0.00180
       7 <- 30         0.00219
       7 <- 32         0.00025
       7 <- 34        -0.00075
       7 <- 36         0.00099
       7 <- 39        -0.00057
       7 <- 41         0.00020
       7 <- 43         0.00027
       7 <- 45        -0.00046
       7 <- 47         0.00324
       7 <- 50         0.00134
       7 <- 54         0.00070
       8 <- 27         0.00054
       8 <- 46         0.00398
 
 Excited State   5:      Singlet-B1     4.3907 eV  282.38 nm  f=0.0067  <S**2>=0.000
       3 ->  9        -0.00232
       3 -> 18        -0.00163
       3 -> 23         0.00029
       3 -> 28        -0.00238
       3 -> 31        -0.00132
       3 -> 48        -0.00319
       3 -> 52        -0.00025
       4 ->  9        -0.03017
       4 -> 13         0.00599
       4 -> 18         0.00083
       4 -> 23         0.00469
       4 -> 28         0.00093
       4 -> 31         0.00045
       4 -> 37         0.00034
       4 -> 44        -0.00041
       4 -> 48         0.00090
       4 -> 52         0.00018
       5 -> 27        -0.00623
       5 -> 38        -0.00354
       5 -> 46         0.00014
       6 ->  9        -0.30844
       6 -> 13         0.00392
       6 -> 18        -0.00093
       6 -> 23         0.00285
       6 -> 28         0.00249
       6 -> 31        -0.00404
       6 -> 37         0.00251
       6 -> 44         0.00095
       6 -> 48        -0.00070
       6 -> 52        -0.00089
       7 -> 10         0.63232
       7 -> 11         0.04583
       7 -> 14        -0.04541
       7 -> 15        -0.02729
       7 -> 17        -0.00803
       7 -> 20        -0.00224
       7 -> 21         0.00287
       7 -> 24        -0.00867
       7 -> 26        -0.00520
       7 -> 30        -0.00712
       7 -> 32        -0.00107
       7 -> 34         0.00358
       7 -> 36        -0.00138
       7 -> 39         0.00062
       7 -> 43         0.00046
       7 -> 45        -0.00087
       7 -> 47         0.00044
       7 -> 50         0.00018
       7 -> 54        -0.00167
       8 -> 27         0.00057
       8 -> 38         0.00019
       8 -> 46         0.00055
       3 <-  9        -0.00022
       3 <- 13         0.00077
       3 <- 18        -0.00049
       3 <- 23         0.00064
       3 <- 28        -0.00167
       3 <- 37        -0.00026
       3 <- 44        -0.00010
       3 <- 48        -0.00331
       3 <- 52         0.00017
       4 <-  9        -0.01412
       4 <- 13         0.00287
       4 <- 23         0.00286
       4 <- 28         0.00085
       4 <- 31         0.00026
       4 <- 37         0.00036
       4 <- 44        -0.00059
       4 <- 48         0.00050
       4 <- 52         0.00015
       5 <- 27        -0.00451
       5 <- 38        -0.00293
       5 <- 46         0.00016
       6 <-  9        -0.02539
       6 <- 13        -0.00042
       6 <- 18        -0.00304
       6 <- 23         0.00062
       6 <- 28         0.00017
       6 <- 31        -0.00474
       6 <- 37         0.00238
       6 <- 44         0.00089
       6 <- 52        -0.00129
       7 <- 10        -0.01415
       7 <- 11        -0.00197
       7 <- 14         0.00105
       7 <- 15        -0.00492
       7 <- 17         0.00050
       7 <- 20        -0.00475
       7 <- 21        -0.00087
       7 <- 24        -0.00254
       7 <- 26        -0.00018
       7 <- 30        -0.00022
       7 <- 32         0.00121
       7 <- 34         0.00208
       7 <- 36        -0.00236
       7 <- 41         0.00013
       7 <- 43         0.00049
       7 <- 45        -0.00085
       7 <- 47         0.00022
       7 <- 50        -0.00010
       7 <- 54        -0.00092
       8 <- 27         0.00025
       8 <- 46         0.00018
 
 Excited State   6:      Singlet-B2     6.8723 eV  180.41 nm  f=0.0021  <S**2>=0.000
       3 -> 12         0.00155
       3 -> 16         0.00078
       3 -> 19        -0.00032
       3 -> 22        -0.00019
       3 -> 25        -0.00058
       3 -> 29        -0.00155
       3 -> 33         0.00018
       3 -> 40        -0.00014
       3 -> 49        -0.00023
       4 -> 12        -0.00055
       4 -> 16         0.00091
       4 -> 19         0.00067
       4 -> 22        -0.00112
       4 -> 25        -0.00075
       4 -> 29         0.00057
       5 -> 10        -0.00237
       5 -> 11        -0.00700
       5 -> 14         0.00341
       5 -> 15         0.00297
       5 -> 17         0.00012
       5 -> 20         0.00047
       5 -> 21        -0.00046
       5 -> 24        -0.00038
       5 -> 26        -0.00015
       5 -> 30        -0.00043
       5 -> 32        -0.00078
       5 -> 34        -0.00063
       5 -> 39         0.00023
       5 -> 41        -0.00024
       5 -> 43        -0.00021
       5 -> 45        -0.00013
       6 -> 12        -0.00379
       6 -> 16        -0.00153
       6 -> 19        -0.00056
       6 -> 29        -0.00023
       6 -> 35         0.00047
       6 -> 49         0.00064
       7 -> 27        -0.00047
       7 -> 38        -0.00033
       7 -> 46         0.00081
       8 -> 10        -0.05596
       8 -> 11         0.70256
       8 -> 14         0.05162
       8 -> 15        -0.01941
       8 -> 17        -0.00252
       8 -> 20         0.01157
       8 -> 21         0.00234
       8 -> 24        -0.00211
       8 -> 26         0.00258
       8 -> 30        -0.00148
       8 -> 32        -0.00018
       8 -> 34         0.00027
       8 -> 36        -0.00041
       8 -> 41        -0.00023
       8 -> 43         0.00025
       8 -> 45        -0.00053
       8 -> 47        -0.00103
       8 -> 50         0.00042
       8 -> 54        -0.00020
       3 <- 16         0.00048
       3 <- 19        -0.00036
       3 <- 22        -0.00033
       3 <- 25        -0.00020
       3 <- 29        -0.00088
       3 <- 33         0.00010
       3 <- 49        -0.00022
       3 <- 53         0.00010
       4 <- 12         0.00042
       4 <- 16         0.00072
       4 <- 19         0.00066
       4 <- 22        -0.00070
       4 <- 25        -0.00050
       4 <- 29         0.00040
       4 <- 42         0.00012
       4 <- 51        -0.00010
       5 <- 10        -0.00150
       5 <- 14         0.00059
       5 <- 15        -0.00013
       5 <- 20         0.00016
       5 <- 21         0.00018
       5 <- 24        -0.00073
       5 <- 26         0.00025
       5 <- 30        -0.00016
       5 <- 32        -0.00029
       5 <- 34        -0.00056
       5 <- 41        -0.00017
       5 <- 43        -0.00015
       5 <- 45        -0.00012
       5 <- 47        -0.00015
       6 <- 12        -0.00052
       6 <- 19        -0.00044
       6 <- 29        -0.00049
       6 <- 35         0.00033
       6 <- 49         0.00059
       7 <- 27        -0.00032
       7 <- 38        -0.00024
       7 <- 46         0.00070
       8 <- 10        -0.00341
       8 <- 11        -0.00102
       8 <- 15         0.00029
       8 <- 17        -0.00105
       8 <- 20        -0.00198
       8 <- 21         0.00030
       8 <- 24         0.00026
       8 <- 32         0.00129
       8 <- 34        -0.00037
       8 <- 36        -0.00096
       8 <- 39        -0.00013
       8 <- 45        -0.00034
       8 <- 47        -0.00082
       8 <- 50         0.00043
 
 Excited State   7:      Singlet-A2     6.8792 eV  180.23 nm  f=0.0000  <S**2>=0.000
       3 -> 27        -0.00107
       3 -> 38        -0.00031
       3 -> 46         0.00014
       4 -> 27        -0.00599
       4 -> 38         0.00043
       4 -> 46        -0.00020
       5 ->  9         0.70632
       5 -> 13        -0.02550
       5 -> 18         0.00375
       5 -> 23        -0.01573
       5 -> 28         0.00130
       5 -> 31        -0.00216
       5 -> 37        -0.00567
       5 -> 44        -0.00215
       5 -> 48         0.00030
       6 -> 27        -0.00072
       6 -> 38         0.00240
       6 -> 46         0.00016
       7 -> 12         0.01350
       7 -> 16         0.01292
       7 -> 19         0.00104
       7 -> 22        -0.00421
       7 -> 25        -0.00024
       7 -> 29        -0.00047
       7 -> 33        -0.00050
       7 -> 35        -0.00014
       7 -> 40        -0.00013
       7 -> 42         0.00027
       7 -> 51        -0.00078
       8 ->  9        -0.00160
       8 -> 13         0.00738
       8 -> 18         0.00225
       8 -> 23         0.00155
       8 -> 28         0.00037
       8 -> 31         0.00066
       8 -> 37         0.00104
       8 -> 44         0.00016
       8 -> 52         0.00018
       3 <- 27        -0.00118
       3 <- 38        -0.00041
       3 <- 46         0.00019
       4 <- 27        -0.00555
       5 <-  9        -0.01455
       5 <- 13         0.00208
       5 <- 18         0.00023
       5 <- 23         0.00011
       5 <- 28         0.00213
       5 <- 31        -0.00325
       5 <- 37        -0.00353
       5 <- 44        -0.00049
       6 <- 27        -0.00135
       6 <- 38         0.00179
       7 <- 12        -0.00336
       7 <- 16        -0.00040
       7 <- 19        -0.00082
       7 <- 22        -0.00405
       7 <- 25         0.00341
       7 <- 33         0.00032
       7 <- 35        -0.00072
       7 <- 40         0.00012
       7 <- 42         0.00088
       7 <- 49        -0.00014
       7 <- 51        -0.00090
       8 <-  9         0.00039
       8 <- 13        -0.00044
       8 <- 18        -0.00112
       8 <- 23        -0.00036
       8 <- 28        -0.00117
       8 <- 31         0.00072
       8 <- 37         0.00056
 
 Excited State   8:      Singlet-B1     7.3146 eV  169.50 nm  f=0.0666  <S**2>=0.000
       3 ->  9        -0.00083
       3 -> 13         0.00161
       3 -> 18        -0.00072
       3 -> 23        -0.00024
       3 -> 28        -0.00157
       3 -> 31        -0.00081
       3 -> 44        -0.00019
       3 -> 48        -0.00010
       3 -> 52        -0.00016
       4 ->  9         0.00105
       4 -> 13         0.00164
       4 -> 23        -0.00145
       4 -> 28         0.00016
       4 -> 31         0.00053
       4 -> 37        -0.00038
       4 -> 44        -0.00043
       5 -> 27        -0.00032
       5 -> 38         0.00035
       6 ->  9        -0.00563
       6 -> 13        -0.00192
       6 -> 18        -0.00016
       6 -> 23         0.00049
       6 -> 28         0.00036
       6 -> 31        -0.00035
       6 -> 44         0.00039
       6 -> 48         0.00015
       7 -> 10        -0.05342
       7 -> 11         0.70388
       7 -> 14         0.02168
       7 -> 15        -0.03395
       7 -> 17        -0.00350
       7 -> 20         0.00367
       7 -> 21         0.00384
       7 -> 24        -0.00618
       7 -> 26         0.00188
       7 -> 30        -0.00053
       7 -> 34         0.00032
       7 -> 36        -0.00079
       7 -> 41        -0.00030
       7 -> 43         0.00030
       7 -> 45        -0.00043
       7 -> 47         0.00024
       7 -> 54        -0.00020
       8 -> 38        -0.00019
       8 -> 46         0.00035
       3 <-  9         0.00038
       3 <- 18        -0.00048
       3 <- 23        -0.00043
       3 <- 28        -0.00104
       3 <- 31        -0.00038
       3 <- 48        -0.00011
       4 <-  9        -0.00366
       4 <- 13         0.00074
       4 <- 18         0.00011
       4 <- 23        -0.00046
       4 <- 31         0.00053
       4 <- 37        -0.00030
       5 <- 27        -0.00012
       5 <- 38         0.00030
       6 <-  9        -0.00391
       6 <- 13         0.00088
       6 <- 18        -0.00037
       6 <- 23         0.00135
       6 <- 31        -0.00043
       6 <- 44         0.00045
       6 <- 48         0.00020
       6 <- 52        -0.00013
       7 <- 10        -0.00257
       7 <- 11        -0.00160
       7 <- 14        -0.00118
       7 <- 15         0.00039
       7 <- 17        -0.00046
       7 <- 20        -0.00351
       7 <- 21        -0.00015
       7 <- 26        -0.00130
       7 <- 30         0.00039
       7 <- 32         0.00093
       7 <- 34        -0.00026
       7 <- 36        -0.00086
       7 <- 45        -0.00021
       7 <- 47         0.00021
       7 <- 50         0.00011
       8 <- 38        -0.00012
       8 <- 46         0.00025
 
 Excited State   9:      Singlet-A1     7.9984 eV  155.01 nm  f=0.0199  <S**2>=0.000
       3 -> 10        -0.00286
       3 -> 11         0.00121
       3 -> 14         0.00174
       3 -> 15        -0.00018
       3 -> 17        -0.00030
       3 -> 20        -0.00025
       3 -> 21         0.00024
       3 -> 26        -0.00045
       3 -> 30        -0.00021
       3 -> 32         0.00021
       3 -> 34        -0.00030
       3 -> 36        -0.00048
       3 -> 39         0.00014
       3 -> 41        -0.00017
       3 -> 47        -0.00021
       3 -> 54        -0.00015
       4 -> 10         0.00143
       4 -> 11        -0.00187
       4 -> 14        -0.00130
       4 -> 15         0.00013
       4 -> 17         0.00069
       4 -> 21         0.00024
       4 -> 24        -0.00187
       4 -> 26         0.00021
       4 -> 30         0.00031
       4 -> 32        -0.00017
       4 -> 39        -0.00024
       4 -> 41        -0.00010
       5 -> 12        -0.00606
       5 -> 16        -0.00254
       5 -> 19         0.00056
       5 -> 22        -0.00287
       5 -> 25        -0.00033
       5 -> 33         0.00023
       5 -> 35         0.00032
[...]
  46        4PY        -0.00000   0.00000  -0.01305  -0.03784  -0.06094
  47        4PZ        -0.00398   0.00000   0.01997   0.03037   0.01983
  48        5S         -0.00192   0.00000   0.00861   0.01325   0.00962
  49        5PX        -0.00000   0.00000   0.00000   0.00000   0.00000
  50        5PY        -0.00000   0.00000  -0.00679  -0.01418  -0.01540
  51        5PZ        -0.00004   0.00000   0.00164   0.00203  -0.00035
  52        6D 0        0.00018   0.00000  -0.00045  -0.00085  -0.00107
  53        6D+1       -0.00000  -0.00000   0.00000   0.00000   0.00000
  54        6D-1        0.00000   0.00000  -0.00064  -0.00066   0.00057
  55        6D+2        0.00001   0.00000  -0.00001   0.00000   0.00000
  56        6D-2        0.00000   0.00000   0.00000   0.00000   0.00000
                          26        27        28        29        30
  26        4PX         0.00027
  27        4PY         0.00000   0.00106
  28        4PZ         0.00000  -0.00043   0.00064
  29 3   H  1S          0.00000  -0.00185  -0.00304   0.07710
  30        2S          0.00000  -0.00163  -0.00493   0.10882   0.15602
  31        3S          0.00000   0.00097  -0.00267   0.03019   0.04834
  32        4PX         0.00027   0.00000   0.00000   0.00000   0.00000
  33        4PY         0.00000  -0.00061  -0.00010   0.00820   0.01106
  34        4PZ         0.00000   0.00010   0.00001   0.00450   0.00627
  35 4   O  1S          0.00000   0.00006  -0.00009   0.00073   0.00003
  36        2S          0.00000   0.00014  -0.00010   0.00115  -0.00004
  37        2PX         0.00581   0.00000   0.00000   0.00000   0.00000
  38        2PY         0.00000  -0.00043   0.00043   0.00929   0.02815
  39        2PZ         0.00000  -0.00216  -0.00440   0.01698   0.02589
  40        3S          0.00000  -0.00055  -0.00004  -0.00353   0.00034
  41        3PX         0.00836   0.00000   0.00000   0.00000   0.00000
  42        3PY         0.00000  -0.00062   0.00062   0.01312   0.03991
  43        3PZ         0.00000  -0.00317  -0.00657   0.02500   0.03818
  44        4S          0.00000  -0.00077  -0.00052  -0.00041   0.00384
  45        4PX         0.00755   0.00000   0.00000   0.00000   0.00000
  46        4PY         0.00000  -0.00047   0.00046   0.01305   0.03784
  47        4PZ         0.00000  -0.00254  -0.00514   0.01997   0.03037
  48        5S          0.00000  -0.00099  -0.00261   0.00861   0.01325
  49        5PX         0.00145   0.00000   0.00000   0.00000   0.00000
  50        5PY         0.00000   0.00017  -0.00022   0.00679   0.01418
  51        5PZ         0.00000  -0.00034   0.00026   0.00164   0.00203
  52        6D 0        0.00000   0.00002   0.00033  -0.00045  -0.00085
  53        6D+1       -0.00021   0.00000   0.00000   0.00000   0.00000
  54        6D-1        0.00000   0.00007  -0.00008   0.00064   0.00066
  55        6D+2        0.00000  -0.00000   0.00000  -0.00001   0.00000
  56        6D-2        0.00000   0.00000   0.00000   0.00000   0.00000
                          31        32        33        34        35
  31        3S          0.02686
  32        4PX         0.00000   0.00027
  33        4PY         0.00212   0.00000   0.00106
  34        4PZ         0.00102   0.00000   0.00043   0.00064
  35 4   O  1S         -0.00032   0.00000  -0.00006  -0.00009   0.64194
  36        2S         -0.00060   0.00000  -0.00014  -0.00010   0.57277
  37        2PX         0.00000   0.00581   0.00000   0.00000   0.00000
  38        2PY         0.04698   0.00000  -0.00043  -0.00043  -0.00000
  39        2PZ         0.01700   0.00000   0.00216  -0.00440  -0.00799
  40        3S          0.00270   0.00000   0.00055  -0.00004  -0.14960
  41        3PX         0.00000   0.00836   0.00000   0.00000   0.00000
  42        3PY         0.06679   0.00000  -0.00062  -0.00062  -0.00000
  43        3PZ         0.02526   0.00000   0.00317  -0.00657  -0.00966
  44        4S          0.00417   0.00000   0.00077  -0.00052  -0.14000
  45        4PX         0.00000   0.00755   0.00000   0.00000   0.00000
  46        4PY         0.06094   0.00000  -0.00047  -0.00046  -0.00000
  47        4PZ         0.01983   0.00000   0.00254  -0.00514  -0.00610
  48        5S          0.00962   0.00000   0.00099  -0.00261   0.00918
  49        5PX         0.00000   0.00145   0.00000   0.00000   0.00000
  50        5PY         0.01540   0.00000   0.00017   0.00022  -0.00000
  51        5PZ        -0.00035   0.00000   0.00034   0.00026  -0.00595
  52        6D 0       -0.00107   0.00000  -0.00002   0.00033  -0.00101
  53        6D+1        0.00000  -0.00021   0.00000   0.00000   0.00000
  54        6D-1       -0.00057   0.00000   0.00007   0.00008   0.00000
  55        6D+2        0.00000   0.00000   0.00000   0.00000  -0.00079
  56        6D-2        0.00000  -0.00000   0.00000   0.00000   0.00000
                          36        37        38        39        40
  36        2S          0.52935
  37        2PX         0.00000   0.12645
  38        2PY        -0.00000   0.00000   0.19506
  39        2PZ        -0.01252   0.00000  -0.00000   0.08695
  40        3S         -0.25072   0.00000   0.00000   0.03959   0.78573
  41        3PX         0.00000   0.18198   0.00000   0.00000   0.00000
  42        3PY        -0.00000   0.00000   0.27755   0.00000   0.00000
  43        3PZ        -0.01601   0.00000  -0.00000   0.12914   0.05436
  44        4S         -0.21890   0.00000   0.00000   0.04198   0.63492
  45        4PX         0.00000   0.16438   0.00000   0.00000   0.00000
  46        4PY        -0.00000   0.00000   0.25067   0.00000   0.00000
  47        4PZ        -0.01070   0.00000  -0.00000   0.10115   0.03882
  48        5S          0.00989   0.00000   0.00000   0.04828  -0.01115
  49        5PX         0.00000   0.03157   0.00000   0.00000   0.00000
  50        5PY        -0.00000   0.00000   0.05502  -0.00000   0.00000
  51        5PZ        -0.00853   0.00000  -0.00000  -0.00139   0.02187
  52        6D 0       -0.00155  -0.00000   0.00000  -0.00539   0.00414
  53        6D+1        0.00000  -0.00447   0.00000   0.00000  -0.00000
  54        6D-1       -0.00000   0.00000  -0.00416  -0.00000   0.00000
  55        6D+2       -0.00127  -0.00000   0.00000   0.00015   0.00378
  56        6D-2        0.00000  -0.00000   0.00000   0.00000   0.00000
                          41        42        43        44        45
  41        3PX         0.26191
  42        3PY         0.00000   0.39491
  43        3PZ         0.00000  -0.00000   0.19182
  44        4S          0.00000   0.00000   0.05874   0.51483
  45        4PX         0.23657   0.00000   0.00000   0.00000   0.21368
  46        4PY         0.00000   0.35666   0.00000   0.00000   0.00000
  47        4PZ         0.00000  -0.00000   0.15028   0.04298   0.00000
  48        5S          0.00000   0.00000   0.07193  -0.00352   0.00000
  49        5PX         0.04543   0.00000   0.00000   0.00000   0.04104
  50        5PY         0.00000   0.07828  -0.00000   0.00000   0.00000
  51        5PZ         0.00000  -0.00000  -0.00222   0.01747   0.00000
  52        6D 0       -0.00000   0.00000  -0.00806   0.00270  -0.00000
  53        6D+1       -0.00643   0.00000   0.00000  -0.00000  -0.00581
  54        6D-1        0.00000  -0.00592  -0.00000   0.00000   0.00000
  55        6D+2       -0.00000   0.00000   0.00020   0.00305  -0.00000
  56        6D-2       -0.00000   0.00000   0.00000   0.00000  -0.00000
                          46        47        48        49        50
  46        4PY         0.32214
  47        4PZ        -0.00000   0.11775
  48        5S          0.00000   0.05650   0.02840
  49        5PX         0.00000   0.00000   0.00000   0.00788
  50        5PY         0.07081  -0.00000  -0.00000   0.00000   0.01590
  51        5PZ        -0.00000  -0.00182  -0.00187   0.00000  -0.00000
  52        6D 0        0.00000  -0.00634  -0.00332  -0.00000   0.00000
  53        6D+1        0.00000   0.00000   0.00000  -0.00112   0.00000
  54        6D-1       -0.00533  -0.00000  -0.00000   0.00000  -0.00110
  55        6D+2        0.00000   0.00014  -0.00008  -0.00000   0.00000
  56        6D-2        0.00000   0.00000   0.00000  -0.00000   0.00000
                          51        52        53        54        55
  51        5PZ         0.00087
  52        6D 0        0.00034   0.00041
  53        6D+1       -0.00000   0.00000   0.00016
  54        6D-1        0.00000  -0.00000   0.00000   0.00010
  55        6D+2        0.00011   0.00002   0.00000  -0.00000   0.00002
  56        6D-2        0.00000   0.00000   0.00000  -0.00000   0.00000
                          56
  56        6D-2        0.00000
          Condensed to atoms (all electrons):
               1          2          3          4
     1  C    5.142783   0.352436   0.352436   0.251925
     2  H    0.352436   0.514513  -0.045471  -0.014220
     3  H    0.352436  -0.045471   0.514513  -0.014220
     4  O    0.251925  -0.014220  -0.014220   8.062420
 Mulliken charges:
               1
     1  C   -0.099580
     2  H    0.192742
     3  H    0.192742
     4  O   -0.285905
 Sum of Mulliken charges =  -0.00000
 Mulliken charges with hydrogens summed into heavy atoms:
               1
     1  C    0.285905
     4  O   -0.285905
 Electronic spatial extent (au):  <R**2>=             91.4139
 Charge=              0.0000 electrons
 Dipole moment (field-independent basis, Debye):
    X=             -0.0000    Y=              0.0000    Z=             -4.2049  Tot=              4.2049
 Quadrupole moment (field-independent basis, Debye-Ang):
   XX=            -13.0532   YY=            -12.0502   ZZ=            -10.5913
   XY=              0.0000   XZ=              0.0000   YZ=              0.0000
 Traceless Quadrupole moment (field-independent basis, Debye-Ang):
   XX=             -1.1550   YY=             -0.1519   ZZ=              1.3069
   XY=              0.0000   XZ=              0.0000   YZ=              0.0000
 Octapole moment (field-independent basis, Debye-Ang**2):
  XXX=              0.0000  YYY=              0.0000  ZZZ=             -3.0141  XYY=             -0.0000
  XXY=             -0.0000  XXZ=              0.4345  XZZ=             -0.0000  YZZ=             -0.0000
  YYZ=             -2.7020  XYZ=             -0.0000
 Hexadecapole moment (field-independent basis, Debye-Ang**3):
 XXXX=            -14.2217 YYYY=            -18.5994 ZZZZ=            -78.5974 XXXY=             -0.0000
 XXXZ=             -0.0000 YYYX=             -0.0000 YYYZ=             -0.0000 ZZZX=              0.0000
 ZZZY=             -0.0000 XXYY=             -5.9246 XXZZ=            -16.6917 YYZZ=            -14.6458
 XXYZ=              0.0000 YYXZ=              0.0000 ZZXY=              0.0000
 N-N= 2.302302113342D+01 E-N=-3.144513763767D+02  KE= 1.133107915837D+02
 Symmetry A1   KE= 1.026691231093D+02
 Symmetry A2   KE= 2.444928382910D-35
 Symmetry B1   KE= 3.751354335495D+00
 Symmetry B2   KE= 6.890314138816D+00
 Leave Link  601 at Fri Sep 17 10:53:10 2021, MaxMem=   268435456 cpu:               0.0 elap:               0.0
 (Enter /software/gaussian/g16-a03/l9999.exe)
 Electronic transition elements 
                 1             2             3             4             5 
      1  -0.114296D+03 -0.114220D+03 -0.114209D+03 -0.114203D+03 -0.114181D+03
      2   0.000000D+00  0.000000D+00  0.000000D+00  0.440389D-01 -0.249365D+00
      3   0.000000D+00  0.000000D+00 -0.164427D+00  0.000000D+00  0.000000D+00
      4   0.000000D+00  0.605708D+00  0.000000D+00  0.000000D+00  0.000000D+00
      5   0.000000D+00  0.000000D+00  0.000000D+00 -0.281048D-01  0.381083D-01
      6   0.000000D+00  0.000000D+00  0.190139D-01  0.000000D+00  0.000000D+00
      7   0.000000D+00 -0.636408D-01  0.000000D+00  0.000000D+00  0.000000D+00
      8   0.000000D+00  0.000000D+00  0.567353D+00  0.000000D+00  0.000000D+00
      9   0.000000D+00  0.000000D+00  0.000000D+00 -0.197219D+01 -0.167574D+00
     10   0.951839D+00  0.000000D+00  0.000000D+00  0.000000D+00  0.000000D+00
     11   0.000000D+00  0.456531D-01  0.000000D+00  0.000000D+00  0.000000D+00
     12   0.000000D+00 -0.709858D-02  0.000000D+00  0.000000D+00  0.000000D+00
     13   0.000000D+00 -0.271674D-01  0.000000D+00  0.000000D+00  0.000000D+00
     14  -0.249162D-01  0.000000D+00  0.000000D+00  0.000000D+00  0.000000D+00
     15   0.000000D+00  0.000000D+00  0.000000D+00 -0.375063D-01  0.134502D+00
     16   0.000000D+00  0.000000D+00  0.239292D-01  0.000000D+00  0.000000D+00
                 6             7             8             9            10 
      1  -0.114089D+03 -0.114089D+03 -0.114073D+03 -0.114048D+03 -0.114032D+03
      2   0.000000D+00  0.000000D+00 -0.609807D+00  0.000000D+00  0.000000D+00
      3  -0.111721D+00  0.000000D+00  0.000000D+00  0.000000D+00  0.000000D+00
      4   0.000000D+00  0.000000D+00  0.000000D+00 -0.318585D+00  0.000000D+00
      5   0.000000D+00  0.000000D+00  0.166842D+00  0.000000D+00  0.000000D+00
      6   0.234714D-01  0.000000D+00  0.000000D+00  0.000000D+00  0.000000D+00
      7   0.000000D+00  0.000000D+00  0.000000D+00  0.909899D-01  0.000000D+00
      8  -0.304764D+00  0.000000D+00  0.000000D+00  0.000000D+00  0.000000D+00
      9   0.000000D+00  0.000000D+00 -0.144782D+00  0.000000D+00  0.000000D+00
     10   0.000000D+00 -0.108251D+01  0.000000D+00  0.000000D+00  0.240654D-01
     11   0.000000D+00  0.000000D+00  0.000000D+00  0.350733D-01  0.000000D+00
     12   0.000000D+00  0.000000D+00  0.000000D+00  0.113196D+00  0.000000D+00
     13   0.000000D+00  0.000000D+00  0.000000D+00 -0.199959D+00  0.000000D+00
     14   0.000000D+00  0.172509D+00  0.000000D+00  0.000000D+00  0.285655D+00
     15   0.000000D+00  0.000000D+00 -0.179932D+00  0.000000D+00  0.000000D+00
     16   0.230162D+00  0.000000D+00  0.000000D+00  0.000000D+00  0.000000D+00
                11            12            13            14            15 
      1  -0.114030D+03 -0.114027D+03 -0.114013D+03 -0.114012D+03 -0.114006D+03
      2   0.000000D+00  0.000000D+00  0.000000D+00 -0.431509D+00  0.000000D+00
      3  -0.424181D+00  0.000000D+00  0.000000D+00  0.000000D+00  0.000000D+00
      4   0.000000D+00  0.000000D+00  0.109328D+01  0.000000D+00 -0.928471D+00
      5   0.000000D+00  0.000000D+00  0.000000D+00  0.151063D+00  0.000000D+00
      6   0.134440D+00  0.000000D+00  0.000000D+00  0.000000D+00  0.000000D+00
      7   0.000000D+00  0.000000D+00 -0.359002D+00  0.000000D+00  0.315048D+00
      8  -0.527957D+00  0.000000D+00  0.000000D+00  0.000000D+00  0.000000D+00
      9   0.000000D+00  0.000000D+00  0.000000D+00  0.258253D+00  0.000000D+00
     10   0.000000D+00 -0.160927D-02  0.000000D+00  0.000000D+00  0.000000D+00
     11   0.000000D+00  0.000000D+00  0.597016D+00  0.000000D+00  0.526271D+00
     12   0.000000D+00  0.000000D+00  0.557299D-01  0.000000D+00  0.438434D-01
     13   0.000000D+00  0.000000D+00  0.139781D-01  0.000000D+00 -0.347269D+00
     14   0.000000D+00  0.599294D-01  0.000000D+00  0.000000D+00  0.000000D+00
     15   0.000000D+00  0.000000D+00  0.000000D+00  0.335532D+00  0.000000D+00
     16   0.243823D+00  0.000000D+00  0.000000D+00  0.000000D+00  0.000000D+00
                16            17            18            19            20 
      1  -0.113985D+03 -0.113980D+03 -0.113974D+03 -0.113960D+03 -0.113951D+03
      2   0.000000D+00  0.000000D+00  0.000000D+00 -0.444747D+00  0.000000D+00
      3   0.000000D+00  0.431016D-01 -0.265306D+00  0.000000D+00 -0.231650D+00
      4  -0.545711D+00  0.000000D+00  0.000000D+00  0.000000D+00  0.000000D+00
      5   0.000000D+00  0.000000D+00  0.000000D+00  0.152720D+00  0.000000D+00
      6   0.000000D+00 -0.202217D-01  0.103311D+00  0.000000D+00  0.898632D-01
      7   0.202383D+00  0.000000D+00  0.000000D+00  0.000000D+00  0.000000D+00
      8   0.000000D+00  0.842547D+00  0.670345D-01  0.000000D+00  0.766205D-01
      9   0.000000D+00  0.000000D+00  0.000000D+00  0.172068D+00  0.000000D+00
     10   0.000000D+00  0.000000D+00  0.000000D+00  0.000000D+00  0.000000D+00
     11   0.291210D+00  0.000000D+00  0.000000D+00  0.000000D+00  0.000000D+00
     12   0.215706D+00  0.000000D+00  0.000000D+00  0.000000D+00  0.000000D+00
     13   0.634328D+00  0.000000D+00  0.000000D+00  0.000000D+00  0.000000D+00
     14   0.000000D+00  0.000000D+00  0.000000D+00  0.000000D+00  0.000000D+00
     15   0.000000D+00  0.000000D+00  0.000000D+00 -0.660072D-01  0.000000D+00
     16   0.000000D+00  0.395767D+00 -0.111181D+00  0.000000D+00 -0.326165D+00
                21            22            23            24            25 
      1  -0.113951D+03 -0.113945D+03 -0.113931D+03 -0.113921D+03 -0.113905D+03
      2   0.000000D+00  0.000000D+00 -0.708398D-01  0.000000D+00  0.000000D+00
      3   0.000000D+00  0.000000D+00  0.000000D+00 -0.112699D+00  0.000000D+00
      4   0.000000D+00 -0.875179D+00  0.000000D+00  0.000000D+00  0.112001D+01
      5   0.000000D+00  0.000000D+00  0.232552D-01  0.000000D+00  0.000000D+00
      6   0.000000D+00  0.000000D+00  0.000000D+00  0.420524D-01  0.000000D+00
      7   0.000000D+00  0.348614D+00  0.000000D+00  0.000000D+00 -0.469547D+00
      8   0.000000D+00  0.000000D+00  0.000000D+00  0.175329D-01  0.000000D+00
      9   0.000000D+00  0.000000D+00  0.706786D-01  0.000000D+00  0.000000D+00
     10  -0.746024D-01  0.000000D+00  0.000000D+00  0.000000D+00  0.000000D+00
     11   0.000000D+00 -0.100954D+00  0.000000D+00  0.000000D+00 -0.284230D+00
     12   0.000000D+00 -0.418562D+00  0.000000D+00  0.000000D+00  0.418256D+00
     13   0.000000D+00 -0.866686D-01  0.000000D+00  0.000000D+00 -0.288356D+00
     14  -0.277500D+00  0.000000D+00  0.000000D+00  0.000000D+00  0.000000D+00
     15   0.000000D+00  0.000000D+00 -0.162835D+00  0.000000D+00  0.000000D+00
     16   0.000000D+00  0.000000D+00  0.000000D+00  0.464419D+00  0.000000D+00
                26            27            28            29            30 
      1  -0.113901D+03 -0.113897D+03 -0.113894D+03 -0.113878D+03 -0.113870D+03
      2   0.000000D+00  0.736343D-01  0.000000D+00  0.000000D+00  0.000000D+00
      3   0.000000D+00  0.000000D+00 -0.672966D+00  0.000000D+00  0.000000D+00
      4   0.000000D+00  0.000000D+00  0.000000D+00  0.388106D+00 -0.518034D+00
      5   0.000000D+00 -0.225760D-01  0.000000D+00  0.000000D+00  0.000000D+00
      6   0.000000D+00  0.000000D+00  0.298469D+00  0.000000D+00  0.000000D+00
      7   0.000000D+00  0.000000D+00  0.000000D+00 -0.171681D+00  0.231160D+00
      8   0.000000D+00  0.000000D+00  0.770416D+00  0.000000D+00  0.000000D+00
      9   0.000000D+00  0.991621D-01  0.000000D+00  0.000000D+00  0.000000D+00
     10  -0.280506D-01  0.000000D+00  0.000000D+00  0.000000D+00  0.000000D+00
     11   0.000000D+00  0.000000D+00  0.000000D+00 -0.244677D+00 -0.313027D+00
     12   0.000000D+00  0.000000D+00  0.000000D+00  0.777519D-01  0.183256D+00
     13   0.000000D+00  0.000000D+00  0.000000D+00  0.189723D+00  0.165513D+00
     14   0.372698D+00  0.000000D+00  0.000000D+00  0.000000D+00  0.000000D+00
     15   0.000000D+00  0.389522D+00  0.000000D+00  0.000000D+00  0.000000D+00
     16   0.000000D+00  0.000000D+00 -0.832858D+00  0.000000D+00  0.000000D+00

 Test job not archived.
 1\1\GINC-BHD0007\SP\RB3LYP TD-FC\6-311+G(d,p)\C1H2O1\BWEIGHT\17-Sep-20
 21\0\\#p B3LYP/6-311+G** #p TD=(singlets,nstates=30)IOp(6/8=3) IOp(9/4
 0=4)\\Scan Step 269, Bond Length 1.845\\0,1\C,0,0.,0.,-0.52736\H,0,0.,
 0.93726,-1.11871\H,0,0.,-0.93726,-1.11871\O,0,0.,0.,1.31764\\Version=E
 S64L-G16RevA.03\State=1-A1\HF=-114.3419616\RMSD=9.807e-09\PG=C02V [C2(
 C1O1),SGV(H2)]\\@


 IF IT HAPPENS, IT MUST BE POSSIBLE.

 -- THE UNNAMED LAW FROM PAUL DICKSON'S 
    "THE OFFICIAL RULES"
 Job cpu time:       0 days  0 hours  0 minutes 25.7 seconds.
 Elapsed time:       0 days  0 hours  0 minutes 26.1 seconds.
 File lengths (MBytes):  RWF=     79 Int=      0 D2E=      0 Chk=     32 Scr=      1
 Normal termination of Gaussian 16 at Fri Sep 17 10:53:10 2021.
