 Entering Gaussian System, Link 0=g16
 Initial command:
 /software/gaussian/g16-c01/sse4/g16/l1.exe "/local_scratch/24665247/Gau-12840.inp" -scrdir="/local_scratch/24665247/"
 Entering Link 1 = /software/gaussian/g16-c01/sse4/g16/l1.exe PID=     13081.
  
 Copyright (c) 1988-2019, Gaussian, Inc.  All Rights Reserved.
  
 This is part of the Gaussian(R) 16 program.  It is based on
 the Gaussian(R) 09 system (copyright 2009, Gaussian, Inc.),
 the Gaussian(R) 03 system (copyright 2003, Gaussian, Inc.),
 the Gaussian(R) 98 system (copyright 1998, Gaussian, Inc.),
 the Gaussian(R) 94 system (copyright 1995, Gaussian, Inc.),
 the Gaussian 92(TM) system (copyright 1992, Gaussian, Inc.),
 the Gaussian 90(TM) system (copyright 1990, Gaussian, Inc.),
 the Gaussian 88(TM) system (copyright 1988, Gaussian, Inc.),
 the Gaussian 86(TM) system (copyright 1986, Carnegie Mellon
 University), and the Gaussian 82(TM) system (copyright 1983,
 Carnegie Mellon University). Gaussian is a federally registered
 trademark of Gaussian, Inc.
  
 This software contains proprietary and confidential information,
 including trade secrets, belonging to Gaussian, Inc.
  
 This software is provided under written license and may be
 used, copied, transmitted, or stored only in accord with that
 written license.
  
 The following legend is applicable only to US Government
 contracts under FAR:
  
                    RESTRICTED RIGHTS LEGEND
  
 Use, reproduction and disclosure by the US Government is
 subject to restrictions as set forth in subparagraphs (a)
 and (c) of the Commercial Computer Software - Restricted
 Rights clause in FAR 52.227-19.
  
 Gaussian, Inc.
 340 Quinnipiac St., Bldg. 40, Wallingford CT 06492
  
  
 ---------------------------------------------------------------
 Warning -- This program may not be used in any manner that
 competes with the business of Gaussian, Inc. or will provide
 assistance to any competitor of Gaussian, Inc.  The licensee
 of this program is prohibited from giving any competitor of
 Gaussian, Inc. access to this program.  By using this program,
 the user acknowledges that Gaussian, Inc. is engaged in the
 business of creating and licensing software in the field of
 computational chemistry and represents and warrants to the
 licensee that it is not a competitor of Gaussian, Inc. and that
 it will not use this program in any manner prohibited above.
 ---------------------------------------------------------------
  

 Cite this work as:
 Gaussian 16, Revision C.01,
 M. J. Frisch, G. W. Trucks, H. B. Schlegel, G. E. Scuseria, 
 M. A. Robb, J. R. Cheeseman, G. Scalmani, V. Barone, 
 G. A. Petersson, H. Nakatsuji, X. Li, M. Caricato, A. V. Marenich, 
 J. Bloino, B. G. Janesko, R. Gomperts, B. Mennucci, H. P. Hratchian, 
 J. V. Ortiz, A. F. Izmaylov, J. L. Sonnenberg, D. Williams-Young, 
 F. Ding, F. Lipparini, F. Egidi, J. Goings, B. Peng, A. Petrone, 
 T. Henderson, D. Ranasinghe, V. G. Zakrzewski, J. Gao, N. Rega, 
 G. Zheng, W. Liang, M. Hada, M. Ehara, K. Toyota, R. Fukuda, 
 J. Hasegawa, M. Ishida, T. Nakajima, Y. Honda, O. Kitao, H. Nakai, 
 T. Vreven, K. Throssell, J. A. Montgomery, Jr., J. E. Peralta, 
 F. Ogliaro, M. J. Bearpark, J. J. Heyd, E. N. Brothers, K. N. Kudin, 
 V. N. Staroverov, T. A. Keith, R. Kobayashi, J. Normand, 
 K. Raghavachari, A. P. Rendell, J. C. Burant, S. S. Iyengar, 
 J. Tomasi, M. Cossi, J. M. Millam, M. Klene, C. Adamo, R. Cammi, 
 J. W. Ochterski, R. L. Martin, K. Morokuma, O. Farkas, 
 J. B. Foresman, and D. J. Fox, Gaussian, Inc., Wallingford CT, 2019.
 
 ******************************************
 Gaussian 16:  ES64L-G16RevC.01  3-Jul-2019
                 2-May-2024 
 ******************************************
 %chk=geometry.chk
 %mem=1GB
 %nprocshared=12
 Will use up to   12 processors via shared memory.
 ----------------------------------------
 #P wB97XD/6-311+G* NoSymm #P Field=X-155
 ----------------------------------------
 1/38=1,172=1/1;
 2/12=2,15=1,17=6,18=5,40=1/2;
 3/5=4,6=6,7=11,11=2,14=1,15=-155,25=1,30=1,74=-58/1,2,3;
 4//1;
 5/5=2,38=5/2;
 6/7=2,8=2,9=2,10=2,28=1/1;
 99/5=1,9=1/99;
 Leave Link    1 at Thu May  2 13:57:31 2024, MaxMem=   134217728 cpu:               1.4 elap:               1.4
 (Enter /software/gaussian/g16-c01/sse4/g16/l101.exe)
 -------
 TitleMe
 -------
 Symbolic Z-matrix:
 Charge =  1 Multiplicity = 1
 C                     0.5193    1.233    -0.0319 
 C                     1.9445    1.2692   -0.0367 
 C                     2.6204    0.0928   -0.025 
 C                    -0.196     0.0301    0.001 
 H                    -0.0207    2.1742   -0.0434 
 H                     2.4828    2.2089   -0.0361 
 H                    -1.2777    0.0399    0.0117 
 N                     4.0921    0.0959    0.0366 
 O                     4.6393   -1.0217    0.1446 
 O                     4.6649    1.1984   -0.0233 
 C                     0.4943   -1.1671    0.021 
 H                    -0.0325   -2.1149    0.0545 
 C                     1.9629   -1.2165   -0.0211 
 H                     2.4436   -1.9631    0.6151 
 Br                    2.173    -1.9491   -1.9062 
 
 ITRead=  0  0  0  0  0  0  0  0  0  0  0  0  0  0  0
 MicOpt= -1 -1 -1 -1 -1 -1 -1 -1 -1 -1 -1 -1 -1 -1 -1
 NAtoms=     15 NQM=       15 NQMF=       0 NMMI=      0 NMMIF=      0
                NMic=       0 NMicF=      0.
                    Isotopes and Nuclear Properties:
 (Nuclear quadrupole moments (NQMom) in fm**2, nuclear magnetic moments (NMagM)
  in nuclear magnetons)

  Atom         1           2           3           4           5           6           7           8           9          10
 IAtWgt=          12          12          12          12           1           1           1          14          16          16
 AtmWgt=  12.0000000  12.0000000  12.0000000  12.0000000   1.0078250   1.0078250   1.0078250  14.0030740  15.9949146  15.9949146
 NucSpn=           0           0           0           0           1           1           1           2           0           0
 AtZEff=  -0.0000000  -0.0000000  -0.0000000  -0.0000000  -0.0000000  -0.0000000  -0.0000000  -0.0000000  -0.0000000  -0.0000000
 NQMom=    0.0000000   0.0000000   0.0000000   0.0000000   0.0000000   0.0000000   0.0000000   2.0440000   0.0000000   0.0000000
 NMagM=    0.0000000   0.0000000   0.0000000   0.0000000   2.7928460   2.7928460   2.7928460   0.4037610   0.0000000   0.0000000
 AtZNuc=   6.0000000   6.0000000   6.0000000   6.0000000   1.0000000   1.0000000   1.0000000   7.0000000   8.0000000   8.0000000

  Atom        11          12          13          14          15
 IAtWgt=          12           1          12           1          79
 AtmWgt=  12.0000000   1.0078250  12.0000000   1.0078250  78.9183361
 NucSpn=           0           1           0           1           3
 AtZEff=  -0.0000000  -0.0000000  -0.0000000  -0.0000000  -0.0000000
 NQMom=    0.0000000   0.0000000   0.0000000   0.0000000  31.3000000
 NMagM=    0.0000000   2.7928460   0.0000000   2.7928460   2.1063990
 AtZNuc=   6.0000000   1.0000000   6.0000000   1.0000000  35.0000000
 Leave Link  101 at Thu May  2 13:57:35 2024, MaxMem=   134217728 cpu:               1.6 elap:               1.6
 (Enter /software/gaussian/g16-c01/sse4/g16/l202.exe)
                          Input orientation:                          
 ---------------------------------------------------------------------
 Center     Atomic      Atomic             Coordinates (Angstroms)
 Number     Number       Type             X           Y           Z
 ---------------------------------------------------------------------
      1          6           0        0.519300    1.233000   -0.031900
      2          6           0        1.944500    1.269200   -0.036700
      3          6           0        2.620400    0.092800   -0.025000
      4          6           0       -0.196000    0.030100    0.001000
      5          1           0       -0.020700    2.174200   -0.043400
      6          1           0        2.482800    2.208900   -0.036100
      7          1           0       -1.277700    0.039900    0.011700
      8          7           0        4.092100    0.095900    0.036600
      9          8           0        4.639300   -1.021700    0.144600
     10          8           0        4.664900    1.198400   -0.023300
     11          6           0        0.494300   -1.167100    0.021000
     12          1           0       -0.032500   -2.114900    0.054500
     13          6           0        1.962900   -1.216500   -0.021100
     14          1           0        2.443600   -1.963100    0.615100
     15         35           0        2.173000   -1.949100   -1.906200
 ---------------------------------------------------------------------
                    Distance matrix (angstroms):
                    1          2          3          4          5
     1  C    0.000000
     2  C    1.425668   0.000000
     3  C    2.390549   1.356796   0.000000
     4  C    1.399895   2.473566   2.817218   0.000000
     5  H    1.085168   2.163581   3.362733   2.151712   0.000000
     6  H    2.192654   1.082960   2.120598   3.453189   2.503751
     7  H    2.157452   3.449071   3.898632   1.081797   2.477564
     8  N    3.750012   2.448304   1.472992   4.288753   4.608780
     9  O    4.699917   3.541615   2.312322   4.950458   5.653735
    10  O    4.145753   2.721354   2.324292   4.999386   4.786171
    11  C    2.400813   2.835836   2.471794   1.382101   3.381369
    12  H    3.394169   3.920329   3.452266   2.151887   4.290233
    13  C    2.843264   2.485817   1.465124   2.493060   3.928360
    14  H    3.786370   3.334922   2.160489   3.364142   4.860416
    15  Br   4.046416   3.728900   2.812194   3.628609   5.028314
                    6          7          8          9         10
     6  H    0.000000
     7  H    4.341452   0.000000
     8  N    2.657047   5.370150   0.000000
     9  O    3.888434   6.012948   1.249048   0.000000
    10  O    2.404752   6.054572   1.243863   2.226587   0.000000
    11  C    3.918516   2.144043   3.813080   4.149391   4.794941
    12  H    5.003018   2.489080   4.679774   4.798846   5.748876
    13  C    3.464662   3.475788   2.501842   2.688591   3.623886
    14  H    4.222698   4.268978   2.700314   2.434893   3.916224
    15  Br   4.569706   4.420610   3.411663   3.338935   4.434144
                   11         12         13         14         15
    11  C    0.000000
    12  H    1.084880   0.000000
    13  C    1.470034   2.189625   0.000000
    14  H    2.187771   2.543302   1.092353   0.000000
    15  Br   2.672762   2.955683   2.033334   2.535818   0.000000
 Symmetry turned off by external request.
 Stoichiometry    C6H5BrNO2(1+)
 Framework group  C1[X(C6H5BrNO2)]
 Deg. of freedom    39
 Full point group                 C1      NOp   1
 Rotational constants (GHZ):           1.1632986           0.9594224           0.5957624
 Leave Link  202 at Thu May  2 13:57:36 2024, MaxMem=   134217728 cpu:               1.3 elap:               1.3
 (Enter /software/gaussian/g16-c01/sse4/g16/l301.exe)
 Standard basis: 6-311+G(d) (5D, 7F)
 Ernie: Thresh=  0.10000D-02 Tol=  0.10000D-05 Strict=F.
 The following finite field(s) will be applied:
 An electric field of             -0.0155  0.0000  0.0000
   261 basis functions,   443 primitive gaussians,   273 cartesian basis functions
    49 alpha electrons       49 beta electrons
       nuclear repulsion energy       772.8945969580 Hartrees.
 IExCor= 4639 DFT=T Ex+Corr=wB97XD ExCW=0 ScaHFX=  1.000000
 ScaDFX=  1.000000  1.000000  1.000000  1.000000 ScalE2=  1.000000  1.000000
 IRadAn=      5 IRanWt=     -1 IRanGd=            0 ICorTp=0 IEmpDi=121
 HFx  wShort=  0.000000 wLong=  0.200000 cFull=  0.222036 cShort=  0.000000 cLong=  0.777964
 DFx  wShort=  0.000000 wLong=  0.200000 cFull=  0.000000 cShort=  0.000000 cLong=  1.000000
 NAtoms=   15 NActive=   15 NUniq=   15 SFac= 1.00D+00 NAtFMM=   60 NAOKFM=F Big=F
 Integral buffers will be    131072 words long.
 Raffenetti 2 integral format.
 Two-electron integral symmetry is turned off.
 R6Disp:  Grimme-D2 Dispersion energy=       -0.0080346408 Hartrees.
 Nuclear repulsion after empirical dispersion term =      772.8865623173 Hartrees.
 Leave Link  301 at Thu May  2 13:57:38 2024, MaxMem=   134217728 cpu:               1.2 elap:               1.2
 (Enter /software/gaussian/g16-c01/sse4/g16/l302.exe)
 NPDir=0 NMtPBC=     1 NCelOv=     1 NCel=       1 NClECP=     1 NCelD=      1
         NCelK=      1 NCelE2=     1 NClLst=     1 CellRange=     0.0.
 One-electron integrals computed using PRISM.
 NBasis=   261 RedAO= T EigKep=  2.52D-06  NBF=   261
 NBsUse=   261 1.00D-06 EigRej= -1.00D+00 NBFU=   261
 Precomputing XC quadrature grid using
 IXCGrd= 4 IRadAn=           5 IRanWt=          -1 IRanGd=           0 AccXCQ= 0.00D+00.
 Generated NRdTot=       0 NPtTot=           0 NUsed=           0 NTot=          32
 NSgBfM=   273   273   273   273   273 MxSgAt=    15 MxSgA2=    15.
 Leave Link  302 at Thu May  2 13:58:00 2024, MaxMem=   134217728 cpu:              21.8 elap:              21.8
 (Enter /software/gaussian/g16-c01/sse4/g16/l303.exe)
 DipDrv:  MaxL=1.
 The nuclear repulsion energy is now       766.2433839501 hartrees.
 Leave Link  303 at Thu May  2 13:58:03 2024, MaxMem=   134217728 cpu:               3.3 elap:               3.3
 (Enter /software/gaussian/g16-c01/sse4/g16/l401.exe)
 ExpMin= 3.50D-02 ExpMax= 4.40D+05 ExpMxC= 1.51D+04 IAcc=3 IRadAn=         5 AccDes= 0.00D+00
 Harris functional with IExCor= 4639 and IRadAn=       5 diagonalized for initial guess.
 HarFok:  IExCor= 4639 AccDes= 0.00D+00 IRadAn=         5 IDoV= 1 UseB2=F ITyADJ=14
 ICtDFT=  3500011 ScaDFX=  1.000000  1.000000  1.000000  1.000000
 FoFCou: FMM=F IPFlag=           0 FMFlag=      100000 FMFlg1=           0
         NFxFlg=           0 DoJE=T BraDBF=F KetDBF=T FulRan=T
         wScrn=  0.000000 ICntrl=       500 IOpCl=  0 I1Cent=   200000004 NGrid=           0
         NMat0=    1 NMatS0=      1 NMatT0=    0 NMatD0=    1 NMtDS0=    0 NMtDT0=    0
 Symmetry not used in FoFCou.
 Harris En= -2970.81068818792    
 JPrj=0 DoOrth=F DoCkMO=F.
 Leave Link  401 at Thu May  2 13:58:34 2024, MaxMem=   134217728 cpu:              31.5 elap:              31.6
 (Enter /software/gaussian/g16-c01/sse4/g16/l502.exe)
 Two-electron integral symmetry not used.
 Closed shell SCF:
 Using DIIS extrapolation, IDIIS=  1040.
 NGot=   134217728 LenX=   134063053 LenY=   133988083
 Requested convergence on RMS density matrix=1.00D-08 within 128 cycles.
 Requested convergence on MAX density matrix=1.00D-06.
 Requested convergence on             energy=1.00D-06.
 No special actions if energy rises.
 Fock matrices will be formed incrementally for  20 cycles.

 Cycle   1  Pass 1  IDiag  1:
 FoFJK:  IHMeth= 1 ICntrl=       0 DoSepK=T KAlg= 0 I1Cent=           0 FoldK=F
 IRaf=         1 NMat=       1 IRICut=       1 DoRegI=T DoRafI=F ISym2E= 0 IDoP0=0 IntGTp=1.
 FoFCou: FMM=F IPFlag=           0 FMFlag=      100000 FMFlg1=           0
         NFxFlg=           0 DoJE=T BraDBF=F KetDBF=F FulRan=T
         wScrn=  0.000000 ICntrl=       500 IOpCl=  0 I1Cent=           0 NGrid=           0
         NMat0=    1 NMatS0=      1 NMatT0=    0 NMatD0=    1 NMtDS0=    0 NMtDT0=    0
 Symmetry not used in FoFCou.
 E= -3005.63348818267    
 DIIS: error= 2.90D-01 at cycle   1 NSaved=   1.
 NSaved= 1 IEnMin= 1 EnMin= -3005.63348818267     IErMin= 1 ErrMin= 2.90D-01
 ErrMax= 2.90D-01  0.00D+00 EMaxC= 1.00D-01 BMatC= 1.35D+01 BMatP= 1.35D+01
 IDIUse=3 WtCom= 0.00D+00 WtEn= 1.00D+00
 Coeff-Com:  0.100D+01
 Coeff-En:   0.100D+01
 Coeff:      0.100D+01
 Gap=     0.058 Goal=   None    Shift=    0.000
 GapD=    0.058 DampG=0.500 DampE=0.250 DampFc=0.2500 IDamp=-1.
 Damping current iteration by 2.50D-01
 RMSDP=5.83D+00 MaxDP=3.45D+02              OVMax= 9.92D-01

 Cycle   2  Pass 1  IDiag  1:
 RMSU=  1.64D-01    CP:  7.59D-01
 E= -3006.34504754412     Delta-E=       -0.711559361445 Rises=F Damp=T
 DIIS: error= 2.18D-01 at cycle   2 NSaved=   2.
 NSaved= 2 IEnMin= 2 EnMin= -3006.34504754412     IErMin= 2 ErrMin= 2.18D-01
 ErrMax= 2.18D-01  0.00D+00 EMaxC= 1.00D-01 BMatC= 5.63D+00 BMatP= 1.35D+01
 IDIUse=3 WtCom= 0.00D+00 WtEn= 1.00D+00
 Coeff-Com: -0.590D+00 0.159D+01
 Coeff-En:   0.412D+00 0.588D+00
 Coeff:      0.412D+00 0.588D+00
 Gap=     0.545 Goal=   None    Shift=    0.000
 RMSDP=4.53D+00 MaxDP=2.64D+02 DE=-7.12D-01 OVMax= 9.38D-01

 Cycle   3  Pass 1  IDiag  1:
 RMSU=  6.53D-02    CP:  4.65D-03  5.96D-01
 E= -3007.59092579174     Delta-E=       -1.245878247621 Rises=F Damp=F
 DIIS: error= 8.90D-02 at cycle   3 NSaved=   3.
 NSaved= 3 IEnMin= 3 EnMin= -3007.59092579174     IErMin= 3 ErrMin= 8.90D-02
 ErrMax= 8.90D-02  0.00D+00 EMaxC= 1.00D-01 BMatC= 3.55D+00 BMatP= 5.63D+00
 IDIUse=3 WtCom= 1.10D-01 WtEn= 8.90D-01
 EnCoef did   100 forward-backward iterations
 Coeff-Com:  0.302D+00-0.654D-02 0.704D+00
 Coeff-En:   0.403D+00 0.437D-02 0.592D+00
 Coeff:      0.392D+00 0.318D-02 0.605D+00
 Gap=     0.147 Goal=   None    Shift=    0.000
 RMSDP=5.41D-02 MaxDP=5.06D+00 DE=-1.25D+00 OVMax= 9.35D-01

 Cycle   4  Pass 1  IDiag  1:
 RMSU=  3.57D-02    CP:  8.40D-03  5.13D-01  5.26D-01
 E= -3009.45687243001     Delta-E=       -1.865946638274 Rises=F Damp=F
 DIIS: error= 7.19D-02 at cycle   4 NSaved=   4.
 NSaved= 4 IEnMin= 4 EnMin= -3009.45687243001     IErMin= 4 ErrMin= 7.19D-02
 ErrMax= 7.19D-02  0.00D+00 EMaxC= 1.00D-01 BMatC= 8.20D-01 BMatP= 3.55D+00
 IDIUse=3 WtCom= 2.81D-01 WtEn= 7.19D-01
 Coeff-Com:  0.266D-01 0.963D-01 0.276D+00 0.601D+00
 Coeff-En:   0.000D+00 0.000D+00 0.304D+00 0.696D+00
 Coeff:      0.749D-02 0.271D-01 0.296D+00 0.669D+00
 Gap=     0.143 Goal=   None    Shift=    0.000
 RMSDP=4.74D-02 MaxDP=4.12D+00 DE=-1.87D+00 OVMax= 8.99D-01

 Cycle   5  Pass 1  IDiag  1:
 RMSU=  2.14D-02    CP:  4.41D-03  3.98D-01  7.26D-01  2.63D-01
 E= -3010.15653770528     Delta-E=       -0.699665275268 Rises=F Damp=F
 DIIS: error= 6.72D-02 at cycle   5 NSaved=   5.
 NSaved= 5 IEnMin= 5 EnMin= -3010.15653770528     IErMin= 5 ErrMin= 6.72D-02
 ErrMax= 6.72D-02  0.00D+00 EMaxC= 1.00D-01 BMatC= 5.74D-01 BMatP= 8.20D-01
 IDIUse=3 WtCom= 3.28D-01 WtEn= 6.72D-01
 Coeff-Com: -0.663D-01 0.943D-01 0.408D-01 0.458D+00 0.473D+00
 Coeff-En:   0.000D+00 0.000D+00 0.000D+00 0.294D+00 0.706D+00
 Coeff:     -0.218D-01 0.309D-01 0.134D-01 0.348D+00 0.629D+00
 Gap=     0.181 Goal=   None    Shift=    0.000
 RMSDP=2.01D-02 MaxDP=1.92D+00 DE=-7.00D-01 OVMax= 1.88D-01

 Cycle   6  Pass 1  IDiag  1:
 RMSU=  1.35D-02    CP:  5.72D-03  4.53D-01  6.67D-01  4.87D-01  9.58D-01
 E= -3010.50488139738     Delta-E=       -0.348343692097 Rises=F Damp=F
 DIIS: error= 2.21D-02 at cycle   6 NSaved=   6.
 NSaved= 6 IEnMin= 6 EnMin= -3010.50488139738     IErMin= 6 ErrMin= 2.21D-02
 ErrMax= 2.21D-02  0.00D+00 EMaxC= 1.00D-01 BMatC= 7.11D-02 BMatP= 5.74D-01
 IDIUse=3 WtCom= 7.79D-01 WtEn= 2.21D-01
 Coeff-Com:  0.690D-02-0.126D-01-0.727D-02 0.179D+00 0.292D+00 0.542D+00
 Coeff-En:   0.000D+00 0.000D+00 0.000D+00 0.000D+00 0.000D+00 0.100D+01
 Coeff:      0.537D-02-0.981D-02-0.566D-02 0.139D+00 0.227D+00 0.644D+00
 Gap=     0.195 Goal=   None    Shift=    0.000
 RMSDP=1.63D-02 MaxDP=1.84D+00 DE=-3.48D-01 OVMax= 1.16D-01

 Cycle   7  Pass 1  IDiag  1:
 RMSU=  6.21D-03    CP:  5.69D-03  3.84D-01  5.45D-01  5.86D-01  8.69D-01
                    CP:  6.87D-01
 E= -3010.52919547802     Delta-E=       -0.024314080636 Rises=F Damp=F
 DIIS: error= 2.22D-02 at cycle   7 NSaved=   7.
 NSaved= 7 IEnMin= 7 EnMin= -3010.52919547802     IErMin= 6 ErrMin= 2.21D-02
 ErrMax= 2.22D-02  0.00D+00 EMaxC= 1.00D-01 BMatC= 4.03D-02 BMatP= 7.11D-02
 IDIUse=3 WtCom= 7.79D-01 WtEn= 2.21D-01
 Coeff-Com:  0.208D-01-0.269D-01-0.197D-01 0.418D-01 0.607D-01 0.457D+00
 Coeff-Com:  0.466D+00
 Coeff-En:   0.000D+00 0.000D+00 0.000D+00 0.000D+00 0.000D+00 0.343D+00
 Coeff-En:   0.657D+00
 Coeff:      0.162D-01-0.209D-01-0.153D-01 0.326D-01 0.473D-01 0.432D+00
 Coeff:      0.508D+00
 Gap=     0.210 Goal=   None    Shift=    0.000
 RMSDP=7.45D-03 MaxDP=9.01D-01 DE=-2.43D-02 OVMax= 9.34D-02

 Cycle   8  Pass 1  IDiag  1:
 RMSU=  2.31D-03    CP:  6.18D-03  4.13D-01  5.15D-01  6.50D-01  8.53D-01
                    CP:  9.00D-01  8.76D-01
 E= -3010.55747145937     Delta-E=       -0.028275981356 Rises=F Damp=F
 DIIS: error= 7.47D-03 at cycle   8 NSaved=   8.
 NSaved= 8 IEnMin= 8 EnMin= -3010.55747145937     IErMin= 8 ErrMin= 7.47D-03
 ErrMax= 7.47D-03  0.00D+00 EMaxC= 1.00D-01 BMatC= 3.97D-03 BMatP= 4.03D-02
 IDIUse=3 WtCom= 9.25D-01 WtEn= 7.47D-02
 Coeff-Com:  0.523D-02-0.610D-02-0.499D-02 0.262D-02-0.441D-01 0.687D-02
 Coeff-Com:  0.283D+00 0.757D+00
 Coeff-En:   0.000D+00 0.000D+00 0.000D+00 0.000D+00 0.000D+00 0.000D+00
 Coeff-En:   0.597D-02 0.994D+00
 Coeff:      0.484D-02-0.564D-02-0.461D-02 0.242D-02-0.408D-01 0.636D-02
 Coeff:      0.262D+00 0.775D+00
 Gap=     0.208 Goal=   None    Shift=    0.000
 RMSDP=2.31D-03 MaxDP=2.01D-01 DE=-2.83D-02 OVMax= 2.94D-02

 Cycle   9  Pass 1  IDiag  1:
 RMSU=  1.13D-03    CP:  6.33D-03  4.12D-01  5.05D-01  6.86D-01  8.49D-01
                    CP:  8.92D-01  1.04D+00  9.06D-01
 E= -3010.56141464041     Delta-E=       -0.003943181039 Rises=F Damp=F
 DIIS: error= 1.45D-03 at cycle   9 NSaved=   9.
 NSaved= 9 IEnMin= 9 EnMin= -3010.56141464041     IErMin= 9 ErrMin= 1.45D-03
 ErrMax= 1.45D-03  0.00D+00 EMaxC= 1.00D-01 BMatC= 4.52D-04 BMatP= 3.97D-03
 IDIUse=3 WtCom= 9.86D-01 WtEn= 1.45D-02
 Coeff-Com:  0.991D-03-0.129D-02 0.346D-02-0.371D-03-0.273D-01-0.687D-01
 Coeff-Com:  0.413D-01 0.386D+00 0.666D+00
 Coeff-En:   0.000D+00 0.000D+00 0.000D+00 0.000D+00 0.000D+00 0.000D+00
 Coeff-En:   0.000D+00 0.000D+00 0.100D+01
 Coeff:      0.977D-03-0.127D-02 0.341D-02-0.365D-03-0.270D-01-0.677D-01
 Coeff:      0.407D-01 0.381D+00 0.670D+00
 Gap=     0.206 Goal=   None    Shift=    0.000
 RMSDP=7.58D-04 MaxDP=6.01D-02 DE=-3.94D-03 OVMax= 1.42D-02

 Cycle  10  Pass 1  IDiag  1:
 RMSU=  3.37D-04    CP:  6.38D-03  4.12D-01  5.00D-01  6.96D-01  8.39D-01
                    CP:  8.96D-01  1.08D+00  9.23D-01  1.15D+00
 E= -3010.56206677633     Delta-E=       -0.000652135922 Rises=F Damp=F
 DIIS: error= 3.52D-04 at cycle  10 NSaved=  10.
 NSaved=10 IEnMin=10 EnMin= -3010.56206677633     IErMin=10 ErrMin= 3.52D-04
 ErrMax= 3.52D-04  0.00D+00 EMaxC= 1.00D-01 BMatC= 2.83D-05 BMatP= 4.52D-04
 IDIUse=3 WtCom= 9.96D-01 WtEn= 3.52D-03
 Coeff-Com: -0.130D-02 0.197D-02 0.836D-03 0.564D-03-0.900D-03-0.866D-02
 Coeff-Com: -0.111D-01-0.403D-02 0.107D+00 0.916D+00
 Coeff-En:   0.000D+00 0.000D+00 0.000D+00 0.000D+00 0.000D+00 0.000D+00
 Coeff-En:   0.000D+00 0.000D+00 0.000D+00 0.100D+01
 Coeff:     -0.129D-02 0.196D-02 0.833D-03 0.562D-03-0.897D-03-0.863D-02
 Coeff:     -0.110D-01-0.401D-02 0.107D+00 0.916D+00
 Gap=     0.207 Goal=   None    Shift=    0.000
 RMSDP=4.34D-04 MaxDP=4.04D-02 DE=-6.52D-04 OVMax= 1.18D-02

 Cycle  11  Pass 1  IDiag  1:
 RMSU=  1.59D-04    CP:  6.37D-03  4.11D-01  5.03D-01  6.93D-01  8.36D-01
                    CP:  8.90D-01  1.09D+00  8.61D-01  1.28D+00  1.61D+00
 E= -3010.56224738588     Delta-E=       -0.000180609551 Rises=F Damp=F
 DIIS: error= 1.80D-04 at cycle  11 NSaved=  11.
 NSaved=11 IEnMin=11 EnMin= -3010.56224738588     IErMin=11 ErrMin= 1.80D-04
 ErrMax= 1.80D-04  0.00D+00 EMaxC= 1.00D-01 BMatC= 1.26D-05 BMatP= 2.83D-05
 IDIUse=3 WtCom= 9.98D-01 WtEn= 1.80D-03
 Coeff-Com: -0.131D-02 0.187D-02-0.110D-02 0.496D-03 0.430D-02 0.148D-01
 Coeff-Com:  0.127D-02-0.453D-01-0.118D+00-0.138D+00 0.128D+01
 Coeff-En:   0.000D+00 0.000D+00 0.000D+00 0.000D+00 0.000D+00 0.000D+00
 Coeff-En:   0.000D+00 0.000D+00 0.000D+00 0.000D+00 0.100D+01
 Coeff:     -0.131D-02 0.187D-02-0.109D-02 0.495D-03 0.429D-02 0.148D-01
 Coeff:      0.126D-02-0.452D-01-0.118D+00-0.138D+00 0.128D+01
 Gap=     0.208 Goal=   None    Shift=    0.000
 RMSDP=4.88D-04 MaxDP=4.32D-02 DE=-1.81D-04 OVMax= 1.19D-02

 Cycle  12  Pass 1  IDiag  1:
 RMSU=  6.59D-05    CP:  6.36D-03  4.10D-01  5.06D-01  6.89D-01  8.35D-01
                    CP:  8.84D-01  1.09D+00  7.96D-01  1.40D+00  2.28D+00
                    CP:  1.92D+00
 E= -3010.56235610194     Delta-E=       -0.000108716061 Rises=F Damp=F
 DIIS: error= 9.39D-05 at cycle  12 NSaved=  12.
 NSaved=12 IEnMin=12 EnMin= -3010.56235610194     IErMin=12 ErrMin= 9.39D-05
 ErrMax= 9.39D-05  0.00D+00 EMaxC= 1.00D-01 BMatC= 3.02D-06 BMatP= 1.26D-05
 IDIUse=1 WtCom= 1.00D+00 WtEn= 0.00D+00
 Coeff-Com:  0.800D-04-0.140D-03-0.166D-03-0.318D-03-0.112D-03 0.473D-02
 Coeff-Com:  0.401D-02-0.139D-03-0.431D-01-0.331D+00 0.167D+00 0.120D+01
 Coeff:      0.800D-04-0.140D-03-0.166D-03-0.318D-03-0.112D-03 0.473D-02
 Coeff:      0.401D-02-0.139D-03-0.431D-01-0.331D+00 0.167D+00 0.120D+01
 Gap=     0.209 Goal=   None    Shift=    0.000
 RMSDP=3.31D-04 MaxDP=3.37D-02 DE=-1.09D-04 OVMax= 9.49D-03

 Cycle  13  Pass 1  IDiag  1:
 RMSU=  4.18D-05    CP:  6.35D-03  4.09D-01  5.08D-01  6.87D-01  8.33D-01
                    CP:  8.78D-01  1.10D+00  7.63D-01  1.48D+00  2.75D+00
                    CP:  2.62D+00  1.71D+00
 E= -3010.56239720326     Delta-E=       -0.000041101318 Rises=F Damp=F
 DIIS: error= 7.49D-05 at cycle  13 NSaved=  13.
 NSaved=13 IEnMin=13 EnMin= -3010.56239720326     IErMin=13 ErrMin= 7.49D-05
 ErrMax= 7.49D-05  0.00D+00 EMaxC= 1.00D-01 BMatC= 5.60D-07 BMatP= 3.02D-06
 IDIUse=1 WtCom= 1.00D+00 WtEn= 0.00D+00
 Coeff-Com:  0.204D-03-0.297D-03 0.268D-04-0.234D-03-0.317D-03-0.154D-03
 Coeff-Com:  0.106D-02 0.109D-02-0.416D-03-0.522D-01-0.107D+00 0.210D+00
 Coeff-Com:  0.949D+00
 Coeff:      0.204D-03-0.297D-03 0.268D-04-0.234D-03-0.317D-03-0.154D-03
 Coeff:      0.106D-02 0.109D-02-0.416D-03-0.522D-01-0.107D+00 0.210D+00
 Coeff:      0.949D+00
 Gap=     0.209 Goal=   None    Shift=    0.000
 RMSDP=1.04D-04 MaxDP=9.08D-03 DE=-4.11D-05 OVMax= 3.35D-03

 Cycle  14  Pass 1  IDiag  1:
 RMSU=  1.59D-05    CP:  6.35D-03  4.09D-01  5.08D-01  6.87D-01  8.33D-01
                    CP:  8.77D-01  1.11D+00  7.51D-01  1.52D+00  2.91D+00
                    CP:  2.82D+00  2.16D+00  1.32D+00
 E= -3010.56240350961     Delta-E=       -0.000006306352 Rises=F Damp=F
 DIIS: error= 4.27D-05 at cycle  14 NSaved=  14.
 NSaved=14 IEnMin=14 EnMin= -3010.56240350961     IErMin=14 ErrMin= 4.27D-05
 ErrMax= 4.27D-05  0.00D+00 EMaxC= 1.00D-01 BMatC= 2.10D-07 BMatP= 5.60D-07
 IDIUse=1 WtCom= 1.00D+00 WtEn= 0.00D+00
 Coeff-Com:  0.534D-04-0.827D-04-0.382D-04-0.840D-04 0.286D-03-0.441D-03
 Coeff-Com: -0.780D-03-0.473D-02 0.264D-02 0.769D-01-0.195D-01-0.328D+00
 Coeff-Com:  0.192D+00 0.108D+01
 Coeff:      0.534D-04-0.827D-04-0.382D-04-0.840D-04 0.286D-03-0.441D-03
 Coeff:     -0.780D-03-0.473D-02 0.264D-02 0.769D-01-0.195D-01-0.328D+00
 Coeff:      0.192D+00 0.108D+01
 Gap=     0.209 Goal=   None    Shift=    0.000
 RMSDP=6.31D-05 MaxDP=4.15D-03 DE=-6.31D-06 OVMax= 2.17D-03

 Cycle  15  Pass 1  IDiag  1:
 RMSU=  1.05D-05    CP:  6.35D-03  4.09D-01  5.08D-01  6.87D-01  8.32D-01
                    CP:  8.76D-01  1.11D+00  7.48D-01  1.55D+00  3.00D+00
                    CP:  2.88D+00  2.40D+00  1.72D+00  1.51D+00
 E= -3010.56240558153     Delta-E=       -0.000002071915 Rises=F Damp=F
 DIIS: error= 1.53D-05 at cycle  15 NSaved=  15.
 NSaved=15 IEnMin=15 EnMin= -3010.56240558153     IErMin=15 ErrMin= 1.53D-05
 ErrMax= 1.53D-05  0.00D+00 EMaxC= 1.00D-01 BMatC= 4.50D-08 BMatP= 2.10D-07
 IDIUse=1 WtCom= 1.00D+00 WtEn= 0.00D+00
 Coeff-Com:  0.247D-05-0.216D-05-0.467D-04 0.680D-05 0.235D-03 0.115D-03
 Coeff-Com: -0.428D-03-0.206D-02-0.210D-02 0.193D-01 0.391D-01-0.130D+00
 Coeff-Com: -0.203D+00 0.244D+00 0.103D+01
 Coeff:      0.247D-05-0.216D-05-0.467D-04 0.680D-05 0.235D-03 0.115D-03
 Coeff:     -0.428D-03-0.206D-02-0.210D-02 0.193D-01 0.391D-01-0.130D+00
 Coeff:     -0.203D+00 0.244D+00 0.103D+01
 Gap=     0.209 Goal=   None    Shift=    0.000
 RMSDP=3.19D-05 MaxDP=2.34D-03 DE=-2.07D-06 OVMax= 1.16D-03

 Cycle  16  Pass 1  IDiag  1:
 RMSU=  1.63D-05    CP:  6.35D-03  4.09D-01  5.09D-01  6.87D-01  8.32D-01
                    CP:  8.76D-01  1.11D+00  7.45D-01  1.56D+00  3.00D+00
                    CP:  2.93D+00  2.50D+00  1.91D+00  1.82D+00  1.31D+00
 E= -3010.56240600293     Delta-E=       -0.000000421403 Rises=F Damp=F
 DIIS: error= 6.64D-06 at cycle  16 NSaved=  16.
 NSaved=16 IEnMin=16 EnMin= -3010.56240600293     IErMin=16 ErrMin= 6.64D-06
 ErrMax= 6.64D-06  0.00D+00 EMaxC= 1.00D-01 BMatC= 1.09D-08 BMatP= 4.50D-08
 IDIUse=1 WtCom= 1.00D+00 WtEn= 0.00D+00
 Coeff-Com:  0.229D-05-0.347D-05-0.332D-05 0.547D-05 0.127D-04 0.110D-03
 Coeff-Com: -0.734D-04-0.870D-04-0.903D-03-0.202D-02 0.222D-01 0.417D-02
 Coeff-Com: -0.102D+00-0.120D+00 0.335D+00 0.863D+00
 Coeff:      0.229D-05-0.347D-05-0.332D-05 0.547D-05 0.127D-04 0.110D-03
 Coeff:     -0.734D-04-0.870D-04-0.903D-03-0.202D-02 0.222D-01 0.417D-02
 Coeff:     -0.102D+00-0.120D+00 0.335D+00 0.863D+00
 Gap=     0.209 Goal=   None    Shift=    0.000
 RMSDP=9.01D-06 MaxDP=8.04D-04 DE=-4.21D-07 OVMax= 2.16D-04

 Cycle  17  Pass 1  IDiag  1:
 RMSU=  2.18D-06    CP:  6.35D-03  4.09D-01  5.08D-01  6.87D-01  8.32D-01
                    CP:  8.76D-01  1.11D+00  7.46D-01  1.56D+00  3.00D+00
                    CP:  2.93D+00  2.50D+00  1.96D+00  1.88D+00  1.56D+00
                    CP:  1.12D+00
 E= -3010.56240605216     Delta-E=       -0.000000049223 Rises=F Damp=F
 DIIS: error= 2.89D-06 at cycle  17 NSaved=  17.
 NSaved=17 IEnMin=17 EnMin= -3010.56240605216     IErMin=17 ErrMin= 2.89D-06
 ErrMax= 2.89D-06  0.00D+00 EMaxC= 1.00D-01 BMatC= 1.75D-09 BMatP= 1.09D-08
 IDIUse=1 WtCom= 1.00D+00 WtEn= 0.00D+00
 Coeff-Com: -0.841D-07 0.101D-06 0.834D-05 0.881D-06-0.382D-04 0.235D-04
 Coeff-Com:  0.595D-04 0.174D-03-0.292D-03-0.636D-02-0.188D-03 0.295D-01
 Coeff-Com:  0.234D-01-0.907D-01-0.146D+00 0.230D+00 0.960D+00
 Coeff:     -0.841D-07 0.101D-06 0.834D-05 0.881D-06-0.382D-04 0.235D-04
 Coeff:      0.595D-04 0.174D-03-0.292D-03-0.636D-02-0.188D-03 0.295D-01
 Coeff:      0.234D-01-0.907D-01-0.146D+00 0.230D+00 0.960D+00
 Gap=     0.209 Goal=   None    Shift=    0.000
 RMSDP=3.02D-06 MaxDP=2.15D-04 DE=-4.92D-08 OVMax= 1.12D-04

 Cycle  18  Pass 1  IDiag  1:
 RMSU=  1.18D-06    CP:  6.35D-03  4.09D-01  5.08D-01  6.87D-01  8.32D-01
                    CP:  8.76D-01  1.11D+00  7.46D-01  1.56D+00  3.00D+00
                    CP:  2.93D+00  2.49D+00  1.97D+00  1.90D+00  1.64D+00
                    CP:  1.14D+00  1.70D+00
 E= -3010.56240606410     Delta-E=       -0.000000011942 Rises=F Damp=F
 DIIS: error= 1.23D-06 at cycle  18 NSaved=  18.
 NSaved=18 IEnMin=18 EnMin= -3010.56240606410     IErMin=18 ErrMin= 1.23D-06
 ErrMax= 1.23D-06  0.00D+00 EMaxC= 1.00D-01 BMatC= 3.55D-10 BMatP= 1.75D-09
 IDIUse=1 WtCom= 1.00D+00 WtEn= 0.00D+00
 Coeff-Com: -0.121D-06 0.381D-06 0.148D-05-0.195D-05-0.154D-04-0.660D-05
 Coeff-Com:  0.680D-04 0.126D-03 0.161D-03-0.160D-02-0.450D-02 0.662D-02
 Coeff-Com:  0.262D-01-0.131D-02-0.997D-01-0.989D-01 0.231D+00 0.942D+00
 Coeff:     -0.121D-06 0.381D-06 0.148D-05-0.195D-05-0.154D-04-0.660D-05
 Coeff:      0.680D-04 0.126D-03 0.161D-03-0.160D-02-0.450D-02 0.662D-02
 Coeff:      0.262D-01-0.131D-02-0.997D-01-0.989D-01 0.231D+00 0.942D+00
 Gap=     0.209 Goal=   None    Shift=    0.000
 RMSDP=2.82D-06 MaxDP=3.39D-04 DE=-1.19D-08 OVMax= 4.32D-05

 Cycle  19  Pass 1  IDiag  1:
 RMSU=  5.18D-07    CP:  6.35D-03  4.09D-01  5.08D-01  6.87D-01  8.32D-01
                    CP:  8.76D-01  1.11D+00  7.46D-01  1.56D+00  3.00D+00
                    CP:  2.93D+00  2.48D+00  1.98D+00  1.90D+00  1.66D+00
                    CP:  1.16D+00  2.07D+00  1.22D+00
 E= -3010.56240606676     Delta-E=       -0.000000002668 Rises=F Damp=F
 DIIS: error= 5.57D-07 at cycle  19 NSaved=  19.
 NSaved=19 IEnMin=19 EnMin= -3010.56240606676     IErMin=19 ErrMin= 5.57D-07
 ErrMax= 5.57D-07  0.00D+00 EMaxC= 1.00D-01 BMatC= 1.11D-10 BMatP= 3.55D-10
 IDIUse=1 WtCom= 1.00D+00 WtEn= 0.00D+00
 Coeff-Com:  0.407D-07-0.617D-07-0.255D-06-0.766D-06 0.110D-05-0.840D-05
 Coeff-Com:  0.160D-04 0.608D-04 0.194D-03 0.817D-03-0.183D-02-0.285D-02
 Coeff-Com:  0.584D-02 0.164D-01-0.115D-01-0.855D-01-0.155D+00 0.326D+00
 Coeff-Com:  0.907D+00
 Coeff:      0.407D-07-0.617D-07-0.255D-06-0.766D-06 0.110D-05-0.840D-05
 Coeff:      0.160D-04 0.608D-04 0.194D-03 0.817D-03-0.183D-02-0.285D-02
 Coeff:      0.584D-02 0.164D-01-0.115D-01-0.855D-01-0.155D+00 0.326D+00
 Coeff:      0.907D+00
 Gap=     0.209 Goal=   None    Shift=    0.000
 RMSDP=1.36D-06 MaxDP=1.47D-04 DE=-2.67D-09 OVMax= 3.13D-05

 Cycle  20  Pass 1  IDiag  1:
 RMSU=  1.73D-07    CP:  6.35D-03  4.09D-01  5.08D-01  6.87D-01  8.32D-01
                    CP:  8.76D-01  1.11D+00  7.46D-01  1.56D+00  3.00D+00
                    CP:  2.93D+00  2.48D+00  1.98D+00  1.90D+00  1.67D+00
                    CP:  1.15D+00  2.30D+00  1.46D+00  1.42D+00
 E= -3010.56240606751     Delta-E=       -0.000000000744 Rises=F Damp=F
 DIIS: error= 1.96D-07 at cycle  20 NSaved=  20.
 NSaved=20 IEnMin=20 EnMin= -3010.56240606751     IErMin=20 ErrMin= 1.96D-07
 ErrMax= 1.96D-07  0.00D+00 EMaxC= 1.00D-01 BMatC= 2.05D-11 BMatP= 1.11D-10
 IDIUse=1 WtCom= 1.00D+00 WtEn= 0.00D+00
 Coeff-Com:  0.267D-06-0.493D-06-0.530D-06-0.586D-06 0.316D-05-0.319D-05
 Coeff-Com: -0.154D-04-0.124D-04 0.575D-05 0.552D-03 0.508D-03-0.248D-02
 Coeff-Com: -0.350D-02 0.461D-02 0.162D-01 0.124D-02-0.835D-01-0.110D+00
 Coeff-Com:  0.280D+00 0.896D+00
 Coeff:      0.267D-06-0.493D-06-0.530D-06-0.586D-06 0.316D-05-0.319D-05
 Coeff:     -0.154D-04-0.124D-04 0.575D-05 0.552D-03 0.508D-03-0.248D-02
 Coeff:     -0.350D-02 0.461D-02 0.162D-01 0.124D-02-0.835D-01-0.110D+00
 Coeff:      0.280D+00 0.896D+00
 Gap=     0.209 Goal=   None    Shift=    0.000
 RMSDP=4.35D-07 MaxDP=3.92D-05 DE=-7.44D-10 OVMax= 9.61D-06

 Cycle  21  Pass 1  IDiag  1:
 Restarting incremental Fock formation.
 E= -3010.56240606758     Delta-E=       -0.000000000074 Rises=F Damp=F
 DIIS: error= 9.43D-08 at cycle  21 NSaved=  20.
 NSaved=20 IEnMin=20 EnMin= -3010.56240606758     IErMin=20 ErrMin= 9.43D-08
 ErrMax= 9.43D-08  0.00D+00 EMaxC= 1.00D-01 BMatC= 2.99D-12 BMatP= 2.05D-11
 IDIUse=1 WtCom= 1.00D+00 WtEn= 0.00D+00
 Coeff-Com: -0.219D-07-0.237D-06-0.160D-06 0.617D-06 0.109D-05-0.678D-05
 Coeff-Com: -0.206D-04-0.579D-04-0.253D-04 0.584D-03-0.120D-03-0.146D-02
 Coeff-Com: -0.204D-02 0.441D-02 0.129D-01 0.110D-01-0.857D-01-0.908D-01
 Coeff-Com:  0.111D+00 0.104D+01
 Coeff:     -0.219D-07-0.237D-06-0.160D-06 0.617D-06 0.109D-05-0.678D-05
 Coeff:     -0.206D-04-0.579D-04-0.253D-04 0.584D-03-0.120D-03-0.146D-02
 Coeff:     -0.204D-02 0.441D-02 0.129D-01 0.110D-01-0.857D-01-0.908D-01
 Coeff:      0.111D+00 0.104D+01
 Gap=     0.209 Goal=   None    Shift=    0.000
 RMSDP=2.46D-07 MaxDP=1.97D-05 DE=-7.37D-11 OVMax= 4.89D-06

 Cycle  22  Pass 1  IDiag  1:
 RMSU=  2.10D-07    CP:  1.00D+00
 E= -3010.56240606766     Delta-E=       -0.000000000074 Rises=F Damp=F
 DIIS: error= 4.45D-08 at cycle  22 NSaved=  20.
 NSaved=20 IEnMin=20 EnMin= -3010.56240606766     IErMin=20 ErrMin= 4.45D-08
 ErrMax= 4.45D-08  0.00D+00 EMaxC= 1.00D-01 BMatC= 5.15D-13 BMatP= 2.99D-12
 IDIUse=1 WtCom= 1.00D+00 WtEn= 0.00D+00
 Coeff-Com: -0.267D-08 0.279D-07 0.941D-08 0.145D-05 0.527D-06-0.478D-05
 Coeff-Com: -0.203D-04-0.598D-04 0.599D-04 0.202D-03 0.153D-03-0.842D-03
 Coeff-Com: -0.797D-03 0.179D-02 0.134D-01-0.103D-02-0.465D-01-0.126D+00
 Coeff-Com:  0.211D+00 0.948D+00
 Coeff:     -0.267D-08 0.279D-07 0.941D-08 0.145D-05 0.527D-06-0.478D-05
 Coeff:     -0.203D-04-0.598D-04 0.599D-04 0.202D-03 0.153D-03-0.842D-03
 Coeff:     -0.797D-03 0.179D-02 0.134D-01-0.103D-02-0.465D-01-0.126D+00
 Coeff:      0.211D+00 0.948D+00
 Gap=     0.209 Goal=   None    Shift=    0.000
 RMSDP=6.74D-08 MaxDP=6.31D-06 DE=-7.41D-11 OVMax= 1.81D-06

 Cycle  23  Pass 1  IDiag  1:
 RMSU=  3.15D-08    CP:  1.00D+00  1.16D+00
 E= -3010.56240606763     Delta-E=        0.000000000027 Rises=F Damp=F
 DIIS: error= 3.12D-08 at cycle  23 NSaved=  20.
 NSaved=20 IEnMin=19 EnMin= -3010.56240606766     IErMin=20 ErrMin= 3.12D-08
 ErrMax= 3.12D-08  0.00D+00 EMaxC= 1.00D-01 BMatC= 1.23D-13 BMatP= 5.15D-13
 IDIUse=1 WtCom= 1.00D+00 WtEn= 0.00D+00
 Coeff-Com: -0.466D-07 0.469D-07 0.742D-06 0.911D-06 0.174D-05 0.188D-06
 Coeff-Com: -0.171D-04-0.590D-04 0.746D-04 0.244D-03 0.187D-03-0.925D-03
 Coeff-Com: -0.201D-02 0.198D-02 0.136D-01 0.239D-02-0.595D-01-0.110D+00
 Coeff-Com:  0.298D+00 0.856D+00
 Coeff:     -0.466D-07 0.469D-07 0.742D-06 0.911D-06 0.174D-05 0.188D-06
 Coeff:     -0.171D-04-0.590D-04 0.746D-04 0.244D-03 0.187D-03-0.925D-03
 Coeff:     -0.201D-02 0.198D-02 0.136D-01 0.239D-02-0.595D-01-0.110D+00
 Coeff:      0.298D+00 0.856D+00
 Gap=     0.209 Goal=   None    Shift=    0.000
 RMSDP=2.70D-08 MaxDP=2.24D-06 DE= 2.73D-11 OVMax= 8.43D-07

 Cycle  24  Pass 1  IDiag  1:
 RMSU=  1.12D-08    CP:  1.00D+00  1.20D+00  1.60D+00
 E= -3010.56240606764     Delta-E=       -0.000000000010 Rises=F Damp=F
 DIIS: error= 1.43D-08 at cycle  24 NSaved=  20.
 NSaved=20 IEnMin=18 EnMin= -3010.56240606766     IErMin=20 ErrMin= 1.43D-08
 ErrMax= 1.43D-08  0.00D+00 EMaxC= 1.00D-01 BMatC= 2.26D-14 BMatP= 1.23D-13
 IDIUse=1 WtCom= 1.00D+00 WtEn= 0.00D+00
 Coeff-Com:  0.129D-06 0.148D-07-0.296D-06 0.122D-05 0.245D-05 0.473D-05
 Coeff-Com: -0.120D-04-0.271D-04-0.279D-04 0.171D-03 0.528D-04-0.545D-03
 Coeff-Com: -0.146D-02 0.177D-02 0.595D-02 0.149D-01-0.467D-01-0.127D+00
 Coeff-Com:  0.772D-01 0.108D+01
 Coeff:      0.129D-06 0.148D-07-0.296D-06 0.122D-05 0.245D-05 0.473D-05
 Coeff:     -0.120D-04-0.271D-04-0.279D-04 0.171D-03 0.528D-04-0.545D-03
 Coeff:     -0.146D-02 0.177D-02 0.595D-02 0.149D-01-0.467D-01-0.127D+00
 Coeff:      0.772D-01 0.108D+01
 Gap=     0.209 Goal=   None    Shift=    0.000
 RMSDP=1.61D-08 MaxDP=1.48D-06 DE=-1.05D-11 OVMax= 5.51D-07

 Cycle  25  Pass 1  IDiag  1:
 RMSU=  9.90D-09    CP:  1.00D+00  1.18D+00  1.93D+00  1.27D+00
 E= -3010.56240606762     Delta-E=        0.000000000018 Rises=F Damp=F
 DIIS: error= 6.51D-09 at cycle  25 NSaved=  20.
 NSaved=20 IEnMin=17 EnMin= -3010.56240606766     IErMin=20 ErrMin= 6.51D-09
 ErrMax= 6.51D-09  0.00D+00 EMaxC= 1.00D-01 BMatC= 4.55D-15 BMatP= 2.26D-14
 IDIUse=1 WtCom= 1.00D+00 WtEn= 0.00D+00
 Large coefficients: NSaved= 20 BigCof=    0.00 CofMax=   10.00 Det=-6.38D-15
 Inversion failed.  Reducing to 19 matrices.
 Large coefficients: NSaved= 19 BigCof=    0.00 CofMax=   10.00 Det=-6.60D-15
 Inversion failed.  Reducing to 18 matrices.
 Large coefficients: NSaved= 18 BigCof=    0.00 CofMax=   10.00 Det=-6.82D-15
 Inversion failed.  Reducing to 17 matrices.
 Large coefficients: NSaved= 17 BigCof=    0.00 CofMax=   10.00 Det=-9.78D-15
 Inversion failed.  Reducing to 16 matrices.
 Large coefficients: NSaved= 16 BigCof=    0.00 CofMax=   10.00 Det=-9.80D-15
 Inversion failed.  Reducing to 15 matrices.
 Coeff-Com: -0.474D-05-0.359D-05 0.382D-04 0.349D-04-0.897D-04-0.339D-03
 Coeff-Com: -0.862D-04 0.829D-03-0.309D-03 0.432D-02 0.267D-02-0.351D-01
 Coeff-Com: -0.127D+00 0.732D-01 0.108D+01
 Coeff:     -0.474D-05-0.359D-05 0.382D-04 0.349D-04-0.897D-04-0.339D-03
 Coeff:     -0.862D-04 0.829D-03-0.309D-03 0.432D-02 0.267D-02-0.351D-01
 Coeff:     -0.127D+00 0.732D-01 0.108D+01
 Gap=     0.209 Goal=   None    Shift=    0.000
 RMSDP=6.14D-09 MaxDP=4.60D-07 DE= 1.77D-11 OVMax= 2.51D-07

 SCF Done:  E(RwB97XD) =  -3010.56240607     A.U. after   25 cycles
            NFock= 25  Conv=0.61D-08     -V/T= 2.0016
 KE= 3.005826776570D+03 PE=-8.692188433079D+03 EE= 1.909555866492D+03
 Leave Link  502 at Thu May  2 14:24:26 2024, MaxMem=   134217728 cpu:            1550.1 elap:            1551.4
 (Enter /software/gaussian/g16-c01/sse4/g16/l601.exe)
 Copying SCF densities to generalized density rwf, IOpCl= 0 IROHF=0.

 **********************************************************************

            Population analysis using the SCF Density.

 **********************************************************************

 Alpha  occ. eigenvalues -- -483.25833 -62.80835 -56.60542 -56.59960 -56.59941
 Alpha  occ. eigenvalues --  -19.36684 -19.36581 -14.76267 -10.53713 -10.52987
 Alpha  occ. eigenvalues --  -10.52696 -10.52507 -10.49345 -10.47562  -8.96625
 Alpha  occ. eigenvalues --   -6.79337  -6.77429  -6.77373  -2.89232  -2.88737
 Alpha  occ. eigenvalues --   -2.88692  -2.87166  -2.87165  -1.40384  -1.23228
 Alpha  occ. eigenvalues --   -1.17344  -1.07950  -1.06943  -0.99375  -0.94200
 Alpha  occ. eigenvalues --   -0.90497  -0.85320  -0.79264  -0.75091  -0.73661
 Alpha  occ. eigenvalues --   -0.72641  -0.71594  -0.70225  -0.67173  -0.66347
 Alpha  occ. eigenvalues --   -0.64167  -0.62496  -0.58744  -0.54399  -0.50652
 Alpha  occ. eigenvalues --   -0.49820  -0.47510  -0.46049  -0.45877
 Alpha virt. eigenvalues --   -0.24992  -0.14012  -0.11017  -0.09962  -0.07000
 Alpha virt. eigenvalues --   -0.06440  -0.04669  -0.03029  -0.01484  -0.00289
 Alpha virt. eigenvalues --    0.00746   0.01348   0.02655   0.03564   0.04902
 Alpha virt. eigenvalues --    0.05326   0.06249   0.06652   0.06682   0.07490
 Alpha virt. eigenvalues --    0.08527   0.09508   0.09756   0.10522   0.10930
 Alpha virt. eigenvalues --    0.11792   0.12372   0.12809   0.13853   0.14690
 Alpha virt. eigenvalues --    0.15206   0.15558   0.16455   0.17161   0.17720
 Alpha virt. eigenvalues --    0.19067   0.20082   0.20614   0.21640   0.22384
 Alpha virt. eigenvalues --    0.23343   0.23941   0.25226   0.25518   0.25952
 Alpha virt. eigenvalues --    0.26647   0.29816   0.30299   0.31502   0.32873
 Alpha virt. eigenvalues --    0.34118   0.36186   0.36535   0.36918   0.38198
 Alpha virt. eigenvalues --    0.38888   0.39865   0.41782   0.42196   0.43136
 Alpha virt. eigenvalues --    0.44012   0.44642   0.45772   0.46979   0.47280
 Alpha virt. eigenvalues --    0.47960   0.50363   0.50982   0.51553   0.53558
 Alpha virt. eigenvalues --    0.54991   0.55929   0.57472   0.58478   0.59314
 Alpha virt. eigenvalues --    0.60835   0.61740   0.63578   0.63847   0.64629
 Alpha virt. eigenvalues --    0.66490   0.68226   0.70533   0.71262   0.73131
 Alpha virt. eigenvalues --    0.74256   0.75381   0.76751   0.78836   0.79857
 Alpha virt. eigenvalues --    0.82318   0.83616   0.86856   0.89244   0.90722
 Alpha virt. eigenvalues --    0.92756   0.95439   0.98757   1.00349   1.06113
 Alpha virt. eigenvalues --    1.07885   1.09690   1.09867   1.11847   1.13619
 Alpha virt. eigenvalues --    1.17358   1.21347   1.22089   1.23250   1.27076
 Alpha virt. eigenvalues --    1.29670   1.32210   1.34328   1.38854   1.41501
 Alpha virt. eigenvalues --    1.41925   1.44678   1.48446   1.60663   1.61883
 Alpha virt. eigenvalues --    1.64419   1.65577   1.68532   1.70076   1.70930
 Alpha virt. eigenvalues --    1.75821   1.76864   1.79542   1.82615   1.84937
 Alpha virt. eigenvalues --    1.87159   1.91616   1.93702   2.00781   2.02070
 Alpha virt. eigenvalues --    2.04832   2.08659   2.08938   2.13606   2.14261
 Alpha virt. eigenvalues --    2.18244   2.19801   2.27121   2.29812   2.32141
 Alpha virt. eigenvalues --    2.38329   2.46293   2.48950   2.50737   2.57881
 Alpha virt. eigenvalues --    2.63085   2.68601   2.70846   2.73776   2.79964
 Alpha virt. eigenvalues --    2.81697   2.85261   2.85470   2.87018   2.90686
 Alpha virt. eigenvalues --    2.98529   3.04734   3.09707   3.12029   3.14310
 Alpha virt. eigenvalues --    3.19178   3.20486   3.23301   3.30971   3.33503
 Alpha virt. eigenvalues --    3.36693   3.45114   3.50730   3.56315   3.63177
 Alpha virt. eigenvalues --    3.65086   3.78389   3.83618   3.88785   3.92674
 Alpha virt. eigenvalues --    4.15556   4.16411   4.24982   4.29082   4.48952
 Alpha virt. eigenvalues --    4.54893   4.59964   4.68281   5.03565   5.06466
 Alpha virt. eigenvalues --    5.15303   5.19776   5.71619   6.25069   6.73553
 Alpha virt. eigenvalues --    7.54438   7.56752   7.66811  23.26963  23.66307
 Alpha virt. eigenvalues --   23.77380  23.82577  23.99755  24.07696  35.40883
 Alpha virt. eigenvalues --   47.99536  49.94870  50.03532 289.87153 289.89488
 Alpha virt. eigenvalues --  290.021011021.00684
          Condensed to atoms (all electrons):
               1          2          3          4          5          6
     1  C    9.402933  -3.453582   1.310536  -0.429823   0.292684   0.071103
     2  C   -3.453582  19.845238  -5.598139   0.275427   0.015702   0.146330
     3  C    1.310536  -5.598139  23.178625  -1.783660   0.030420   0.124828
     4  C   -0.429823   0.275427  -1.783660   7.085154  -0.004726  -0.010562
     5  H    0.292684   0.015702   0.030420  -0.004726   0.372706  -0.001683
     6  H    0.071103   0.146330   0.124828  -0.010562  -0.001683   0.294146
     7  H    0.047637  -0.047295   0.035463   0.288586  -0.004068  -0.000010
     8  N   -0.216422   0.117753  -1.934855   0.053253  -0.000430  -0.030837
     9  O   -0.024828   0.241196  -0.049264  -0.034487  -0.000044  -0.002805
    10  O    0.370139  -0.221394  -0.230712  -0.026494   0.000089   0.028299
    11  C    1.321006  -0.404390   3.251749  -0.884658  -0.031086   0.007621
    12  H   -0.013637   0.005358   0.036344  -0.002402  -0.000001  -0.000016
    13  C   -2.565072  -4.877560 -12.179975   1.779571   0.026269   0.003943
    14  H   -0.005459  -0.009334  -0.049403   0.004801  -0.000031   0.000010
    15  Br  -0.009460  -0.192885  -0.159373   0.002122  -0.000071  -0.000336
               7          8          9         10         11         12
     1  C    0.047637  -0.216422  -0.024828   0.370139   1.321006  -0.013637
     2  C   -0.047295   0.117753   0.241196  -0.221394  -0.404390   0.005358
     3  C    0.035463  -1.934855  -0.049264  -0.230712   3.251749   0.036344
     4  C    0.288586   0.053253  -0.034487  -0.026494  -0.884658  -0.002402
     5  H   -0.004068  -0.000430  -0.000044   0.000089  -0.031086  -0.000001
     6  H   -0.000010  -0.030837  -0.002805   0.028299   0.007621  -0.000016
     7  H    0.420116  -0.000130   0.000017  -0.000002   0.051762  -0.003301
     8  N   -0.000130   8.063759  -0.115032   0.068203  -0.615120   0.001243
     9  O    0.000017  -0.115032   7.914128   0.025732   0.408334   0.000068
    10  O   -0.000002   0.068203   0.025732   7.818659  -0.003501  -0.000024
    11  C    0.051762  -0.615120   0.408334  -0.003501  10.177466   0.274910
    12  H   -0.003301   0.001243   0.000068  -0.000024   0.274910   0.370672
    13  C   -0.040041   1.712603  -0.470917   0.026225  -7.443271   0.024477
    14  H   -0.000044  -0.024560   0.016002  -0.001965   0.084714  -0.005550
    15  Br  -0.000233   0.163601  -0.056585   0.002201   0.091566  -0.005725
              13         14         15
     1  C   -2.565072  -0.005459  -0.009460
     2  C   -4.877560  -0.009334  -0.192885
     3  C  -12.179975  -0.049403  -0.159373
     4  C    1.779571   0.004801   0.002122
     5  H    0.026269  -0.000031  -0.000071
     6  H    0.003943   0.000010  -0.000336
     7  H   -0.040041  -0.000044  -0.000233
     8  N    1.712603  -0.024560   0.163601
     9  O   -0.470917   0.016002  -0.056585
    10  O    0.026225  -0.001965   0.002201
    11  C   -7.443271   0.084714   0.091566
    12  H    0.024477  -0.005550  -0.005725
    13  C   29.816168   0.293896   0.316612
    14  H    0.293896   0.299128  -0.032871
    15  Br   0.316612  -0.032871  34.660573
 Mulliken charges:
               1
     1  C   -0.097754
     2  C    0.157575
     3  C    0.017415
     4  C   -0.312101
     5  H    0.304270
     6  H    0.369968
     7  H    0.251543
     8  N   -0.243028
     9  O    0.148486
    10  O    0.144544
    11  C   -0.287100
    12  H    0.317585
    13  C   -0.422929
    14  H    0.430665
    15  Br   0.220862
 Sum of Mulliken charges =   1.00000
 Mulliken charges with hydrogens summed into heavy atoms:
               1
     1  C    0.206516
     2  C    0.527543
     3  C    0.017415
     4  C   -0.060558
     8  N   -0.243028
     9  O    0.148486
    10  O    0.144544
    11  C    0.030484
    13  C    0.007736
    15  Br   0.220862
 Electronic spatial extent (au):  <R**2>=           3932.9595
 Charge=              1.0000 electrons
 Dipole moment (field-independent basis, Debye):
    X=              7.2469    Y=             -1.1340    Z=             -0.9784  Tot=              7.4000
 Quadrupole moment (field-independent basis, Debye-Ang):
   XX=            -50.7944   YY=            -50.9130   ZZ=            -61.7415
   XY=             -4.0006   XZ=             -3.7981   YZ=              2.9997
 Traceless Quadrupole moment (field-independent basis, Debye-Ang):
   XX=              3.6886   YY=              3.5699   ZZ=             -7.2585
   XY=             -4.0006   XZ=             -3.7981   YZ=              2.9997
 Octapole moment (field-independent basis, Debye-Ang**2):
  XXX=           -426.2454  YYY=             90.3723  ZZZ=             81.3111  XYY=           -126.1335
  XXY=             21.6896  XXZ=             21.2940  XZZ=           -126.7840  YZZ=             15.6388
  YYZ=             24.3586  XYZ=             10.6398
 Hexadecapole moment (field-independent basis, Debye-Ang**3):
 XXXX=          -3023.7858 YYYY=           -701.1330 ZZZZ=           -391.6261 XXXY=            174.2563
 XXXZ=            170.7670 YYYX=            177.6534 YYYZ=           -168.3567 ZZZX=            159.1525
 ZZZY=           -140.7481 XXYY=           -583.5484 XXZZ=           -505.5231 YYZZ=           -168.3885
 XXYZ=            -32.1846 YYXZ=             42.7914 ZZXY=             21.8802
 N-N= 7.662433839501D+02 E-N=-8.692188433668D+03  KE= 3.005826776570D+03
 No NMR shielding tensors so no spin-rotation constants.
 Leave Link  601 at Thu May  2 14:24:33 2024, MaxMem=   134217728 cpu:               7.3 elap:               7.3
 (Enter /software/gaussian/g16-c01/sse4/g16/l9999.exe)
 Unable to Open any file for archive entry.
 1\1\GINC-BHX0004\SP\RwB97XD\6-311+G(d)\C6H5Br1N1O2(1+)\BWEIGHT\02-May-
 2024\0\\#P wB97XD/6-311+G* NoSymm #P Field=X-155\\TitleMe\\1,1\C,0,0.5
 193,1.233,-0.0319\C,0,1.9445,1.2692,-0.0367\C,0,2.6204,0.0928,-0.025\C
 ,0,-0.196,0.0301,0.001\H,0,-0.0207,2.1742,-0.0434\H,0,2.4828,2.2089,-0
 .0361\H,0,-1.2777,0.0399,0.0117\N,0,4.0921,0.0959,0.0366\O,0,4.6393,-1
 .0217,0.1446\O,0,4.6649,1.1984,-0.0233\C,0,0.4943,-1.1671,0.021\H,0,-0
 .0325,-2.1149,0.0545\C,0,1.9629,-1.2165,-0.0211\H,0,2.4436,-1.9631,0.6
 151\Br,0,2.173,-1.9491,-1.9062\\Version=ES64L-G16RevC.01\HF=-3010.5624
 061\RMSD=6.142e-09\Dipole=-1.4780795,0.7819676,0.8642744\Quadrupole=2.
 7423836,2.6541376,-5.3965211,-2.9743254,-2.8237973,2.230183\PG=C01 [X(
 C6H5Br1N1O2)]\\@
 The archive entry for this job was punched.


 MY DESCRIPTION OF EXPERIENCE IS NOT WHAT HAPPENS
 TO A MAN.  EXPERIENCE IS WHAT A MAN DOES WITH WHAT
 HAPPENS TO HIM.
                         - CHUCK KNOX, SEATTLE SEAHAWKS, 1985
 Job cpu time:       0 days  0 hours 27 minutes  0.3 seconds.
 Elapsed time:       0 days  0 hours 27 minutes  1.6 seconds.
 File lengths (MBytes):  RWF=     40 Int=      0 D2E=      0 Chk=     32 Scr=      1
 Normal termination of Gaussian 16 at Thu May  2 14:24:34 2024.
