
Running Job 1 of 1 QCHEM.in
qchem QCHEM.in_31052.0 /local_scratch/16807771/QCLOCALSCR/save/ 0
/gpfs/fs2/scratch/phuo_lab/Program/Qchem/exe/qcprog.exe_s QCHEM.in_31052.0 /local_scratch/16807771/QCLOCALSCR/save/
                  Welcome to Q-Chem
     A Quantum Leap Into The Future Of Chemistry


 Q-Chem 6.0, Q-Chem, Inc., Pleasanton, CA (2022)

 License issued to: SRG Frank Huo, University of Rochester

 E. Epifanovsky,  A. T. B. Gilbert,  Xintian Feng,  Joonho Lee,  Yuezhi Mao,  
 N. Mardirossian,  P. Pokhilko,  A. White,  M. Wormit,  M. P. Coons,  
 A. L. Dempwolff,  Zhengting Gan,  D. Hait,  P. R. Horn,  L. D. Jacobson,  
 I. Kaliman,  J. Kussmann,  A. W. Lange,  Ka Un Lao,  D. S. Levine,  Jie Liu,  
 S. C. McKenzie,  A. F. Morrison,  K. Nanda,  F. Plasser,  D. R. Rehn,  
 M. L. Vidal,  Zhi-Qiang You,  Ying Zhu,  B. Alam,  B. Albrecht,  
 A. Aldossary,  E. Alguire,  J. H. Andersen,  V. Athavale,  D. Barton,  
 K. Begam,  A. Behn,  N. Bellonzi,  Y. A. Bernard,  E. J. Berquist,  
 H. Burton,  A. Carreras,  K. Carter-Fenk,  Romit Chakraborty,  
 Chandrima Chakravarty,  Junhan Chen,  A. D. Chien,  K. D. Closser,  
 V. Cofer-Shabica,  L. Cunha,  S. Dasgupta,  Jia Deng,  M. de Wergifosse,  
 M. Diedenhofen,  Hainam Do,  S. Ehlert,  Po-Tung Fang,  S. Fatehi,  
 Qingguo Feng,  T. Friedhoff,  B. Ganoe,  J. Gayvert,  Qinghui Ge,  
 G. Gidofalvi,  M. Goldey,  J. Gomes,  C. Gonzalez-Espinoza,  S. Gulania,  
 A. Gunina,  J. A. Gyamfi,  M. W. D. Hanson-Heine,  P. H. P. Harbach,  
 A. W. Hauser,  M. F. Herbst,  M. Hernandez Vera,  M. Hodecker,  
 Z. C. Holden,  S. Houck,  Xunkun Huang,  Kerwin Hui,  B. C. Huynh,  
 K. Ikeda,  M. Ivanov,  Hyunjun Ji,  Zuxin Jin,  Hanjie Jiang,  B. Kaduk,  
 S. Kaehler,  R. Kang,  K. Khistyaev,  Jaehoon Kim,  Yongbin Kim,  
 P. Klunzinger,  Z. Koczor-Benda,  Joong Hoon Koh,  D. Kosenkov,  
 Saikiran Kotaru,  L. Koulias,  T. Kowalczyk,  C. M. Krauter,  K. Kue,  
 A. Kunitsa,  T. Kus,  A. Landau,  K. V. Lawler,  D. Lefrancois,  S. Lehtola,  
 Rain Li,  Shaozhi Li,  Yi-Pei Li,  Jiashu Liang,  M. Liebenthal,  
 Hung-Hsuan Lin,  You-Sheng Lin,  Fenglai Liu,  Kuan-Yu Liu,  
 M. Loipersberger,  A. Luenser,  C. Malbon,  A. Manjanath,  P. Manohar,  
 E. Mansoor,  S. F. Manzer,  Shan-Ping Mao,  A. V. Marenich,  T. Markovich,  
 S. Mason,  F. Matz,  S. A. Maurer,  P. F. McLaughlin,  M. F. S. J. Menger,  
 J.-M. Mewes,  S. A. Mewes,  P. Morgante,  Mohammad Mostafanejad,  
 J. W. Mullinax,  K. J. Oosterbaan,  G. Paran,  V. Parravicini,  
 Alexander C. Paul,  Suranjan K. Paul,  F. Pavosevic,  Zheng Pei,  S. Prager,  
 E. I. Proynov,  E. Ramos,  B. Rana,  A. E. Rask,  A. Rettig,  R. M. Richard,  
 F. Rob,  E. Rossomme,  T. Scheele,  M. Scheurer,  M. Schneider,  
 P. E. Schneider,  N. Sergueev,  S. M. Sharada,  Hengyuan Shen,  
 W. Skomorowski,  D. W. Small,  C. J. Stein,  Yingli Su,  Yu-Chuan Su,  
 E. J. Sundstrom,  Zhen Tao,  J. Thirman,  Hung-Yi Tsai,  T. Tsuchimochi,  
 N. M. Tubman,  C. Utku,  S. P. Veccham,  O. Vydrov,  J. Wenzel,  
 Jonathan Wong,  J. Witte,  A. Yamada,  Chou-Hsun Yang,  Kun Yao,  
 S. Yeganeh,  S. R. Yost,  A. Zech,  F. Zeller,  Igor Ying Zhang,  
 Xing Zhang,  Yu Zhang,  D. Zuev,  A. Aspuru-Guzik,  A. T. Bell,  
 N. A. Besley,  K. B. Bravaya,  B. R. Brooks,  D. Casanova,  Jeng-Da Chai,  
 Hsing-Ta Chen,  S. Coriani,  C. J. Cramer,  A. E. DePrince, III,  
 R. A. DiStasio Jr.,  A. Dreuw,  B. D. Dunietz,  T. R. Furlani,  
 W. A. Goddard III,  S. Grimme,  S. Hammes-Schiffer,  T. Head-Gordon,  
 W. J. Hehre,  Chao-Ping Hsu,  T.-C. Jagau,  Yousung Jung,  A. Klamt,  
 Jing Kong,  D. S. Lambrecht,  Xiangyuan Li,  WanZhen Liang,  N. J. Mayhall,  
 C. W. McCurdy,  J. B. Neaton,  T. Neudecker,  C. Ochsenfeld,  
 J. A. Parkhill,  R. Peverati,  V. A. Rassolov,  Haisheng Ren,  Yihan Shao,  
 L. V. Slipchenko,  R. P. Steele,  J. E. Subotnik,  A. J. W. Thom,  
 A. Tkatchenko,  D. G. Truhlar,  T. Van Voorhis,  Fan Wang,  
 T. A. Wesolowski,  K. B. Whaley,  H. L. Woodcock III,  P. M. Zimmerman,  
 S. Faraji,  P. M. W. Gill,  M. Head-Gordon,  J. M. Herbert,  A. I. Krylov

 Contributors to earlier versions of Q-Chem not listed above: 
 R. D. Adamson,  B. Austin,  R. Baer,  J. Baker,  G. J. O. Beran,  
 K. Brandhorst,  S. T. Brown,  E. F. C. Byrd,  Arup K. Chakraborty,  
 G. K. L. Chan,  Chun-Min Chang,  Yunqing Chen,  C.-L. Cheng,  
 Siu Hung Chien,  D. M. Chipman,  D. L. Crittenden,  H. Dachsel,  
 R. J. Doerksen,  A. D. Dutoi,  R. G. Edgar,  J. Fosso-Tande,  
 L. Fusti-Molnar,  D. Ghosh,  A. Ghysels,  A. Golubeva-Zadorozhnaya,  
 J. Gonthier,  M. S. Gordon,  S. R. Gwaltney,  G. Hawkins,  J. E. Herr,  
 A. Heyden,  S. Hirata,  E. G. Hohenstein,  G. Kedziora,  F. J. Keil,  
 C. Kelley,  Jihan Kim,  R. A. King,  R. Z. Khaliullin,  P. P. Korambath,  
 W. Kurlancheek,  A. Laurent,  A. M. Lee,  M. S. Lee,  S. V. Levchenko,  
 Ching Yeh Lin,  D. Liotard,  E. Livshits,  R. C. Lochan,  I. Lotan,  
 L. A. Martinez-Martinez,  P. E. Maslen,  N. Nair,  D. P. O'Neill,  
 D. Neuhauser,  E. Neuscamman,  C. M. Oana,  R. Olivares-Amaya,  R. Olson,  
 T. M. Perrine,  B. Peters,  P. A. Pieniazek,  A. Prociuk,  Y. M. Rhee,  
 J. Ritchie,  M. A. Rohrdanz,  E. Rosta,  N. J. Russ,  H. F. Schaefer III,  
 M. W. Schmidt,  N. E. Schultz,  S. Sharma,  N. Shenvi,  C. D. Sherrill,  
 A. C. Simmonett,  A. Sodt,  T. Stein,  D. Stuck,  K. S. Thanthiriwatte,  
 V. Vanovschi,  L. Vogt,  Tao Wang,  A. Warshel,  M. A. Watson,  
 C. F. Williams,  Q. Wu,  X. Xu,  Jun Yang,  W. Zhang,  Yan Zhao

   Please cite Q-Chem as follows:
  "Software for the frontiers of quantum chemistry:
   An overview of developments in the Q-Chem 5 package"
   J. Chem. Phys. 155, 084801 (2021)
   https://doi.org/10.1063/5.0055522 (open access)

 Q-Chem 6.0.2 for Intel X86 EM64T Linux

 Parts of Q-Chem use Armadillo 9.900.5 (Nocturnal Misbehaviour).
 http://arma.sourceforge.net/

 Q-Chem begins on Mon May 22 12:33:52 2023  

 Host: 
0

     Scratch files written to /local_scratch/16807771/QCLOCALSCR/save//
 Dec722 |scratch|qcdevops|jenkins|workspace|build_RNUM 9024   
 Processing $rem in /gpfs/fs2/scratch/phuo_lab/Program/Qchem/config/preferences:
 Processing $rem in /home/bweight/.qchemrc:

 Checking the input file for inconsistencies... 	...done.

--------------------------------------------------------------
User input:
--------------------------------------------------------------
$molecule
0 1
C                  0.73800500    1.28081960   -0.05304325
C                  2.13107735    1.27623482   -0.03775458
C                  2.78774418    0.04994967   -0.02233513
C                  2.10787290   -1.16395883   -0.02177557
C                  0.02715627    0.07955847   -0.05285920
H                  0.20350732    2.22257168   -0.06513515
H                  2.70574282    2.19227310   -0.03751535
H                  2.65503181   -2.09648975   -0.00950659
H                 -1.05554128    0.07960796   -0.06461677
N                  4.25078279    0.02984995   -0.00604320
O                  4.85312968    1.12722449   -0.00700032
O                  4.82301363   -1.08336832    0.00783743
C                  0.72203597   -1.12622675   -0.03726783
Br                -0.25419454   -2.77854143   -0.03668405
$end

$rem
!SCF_GUESS         read
!SKIP_CIS_RPA      TRUE
METHOD             wB97XD
RPA                TRUE
BASIS              6-311+G*
CIS_N_ROOTS        100
CIS_SINGLETS       TRUE
CIS_TRIPLETS       FALSE
MAKE_CUBE_FILES    TRUE
PLOTS              TRUE
STS_MOM            TRUE
SYM_IGNORE         TRUE
SYMMETRY           FALSE
NTO_PAIRS          1
$end

$plots
grid_points                    75 75 75
total_density                  0-100
transition_density             1-100
natural_transition_orbital     1-100
$end
































--------------------------------------------------------------
 ----------------------------------------------------------------
             Standard Nuclear Orientation (Angstroms)
    I     Atom           X                Y                Z
 ----------------------------------------------------------------
    1      C       0.7380050000     1.2808196000    -0.0530432500
    2      C       2.1310773500     1.2762348200    -0.0377545800
    3      C       2.7877441800     0.0499496700    -0.0223351300
    4      C       2.1078729000    -1.1639588300    -0.0217755700
    5      C       0.0271562700     0.0795584700    -0.0528592000
    6      H       0.2035073200     2.2225716800    -0.0651351500
    7      H       2.7057428200     2.1922731000    -0.0375153500
    8      H       2.6550318100    -2.0964897500    -0.0095065900
    9      H      -1.0555412800     0.0796079600    -0.0646167700
   10      N       4.2507827900     0.0298499500    -0.0060432000
   11      O       4.8531296800     1.1272244900    -0.0070003200
   12      O       4.8230136300    -1.0833683200     0.0078374300
   13      C       0.7220359700    -1.1262267500    -0.0372678300
   14      Br     -0.2541945400    -2.7785414300    -0.0366840500
 ----------------------------------------------------------------
 Nuclear Repulsion Energy =         706.45526610 hartrees
 There are       49 alpha and       49 beta electrons
 Requested basis set is 6-311+G(d)
 There are 85 shells and 258 basis functions

 Total QAlloc Memory Limit   2000 MB
 Mega-Array Size       188 MB
 MEM_STATIC part       192 MB


                       Distance Matrix (Angstroms)
             C (  1)   C (  2)   C (  3)   C (  4)   C (  5)   H (  6)
   C (  2)  1.393164
   C (  3)  2.391112  1.391123
   C (  4)  2.802580  2.440356  1.391330
   C (  5)  1.395827  2.420485  2.760915  2.424187
   H (  6)  1.082927  2.147517  3.376448  3.885496  2.150292
   H (  7)  2.168636  1.081373  2.143946  3.409104  3.411543  2.502571
   H (  8)  3.883697  3.413297  2.150577  1.081271  3.412154  4.966624
   H (  9)  2.158669  3.403994  3.843632  3.399336  1.082761  2.485457
   N ( 10)  3.729174  2.459193  1.463267  2.453057  4.224178  4.603473
   O ( 11)  4.118248  2.726301  2.329501  3.575776  4.938596  4.777254
   O ( 12)  4.720210  3.579990  2.329730  2.716498  4.935213  5.681056
   C ( 13)  2.407151  2.785179  2.377134  1.386437  1.391768  3.388820
   Br( 14)  4.178892  4.704331  4.153789  2.861199  2.871960  5.022094
             H (  7)   H (  8)   H (  9)   N ( 10)   O ( 11)   O ( 12)
   H (  8)  4.289154
   H (  9)  4.314087  4.301952
   N ( 10)  2.657859  2.658525  5.306881
   O ( 11)  2.397192  3.901791  6.001101  1.251820
   O ( 12)  3.900605  2.393086  5.992927  1.251757  2.210848
   C ( 13)  3.866204  2.163020  2.148154  3.713427  4.705836  4.101450
   Br( 14)  5.785346  2.988232  2.968494  5.308750  6.429669  5.352909
             C ( 13)
   Br( 14)  1.919159
 
 A cutoff of  1.0D-12 yielded   3035 shell pairs
 There are     29379 function pairs (     32047 Cartesian)
 Smallest overlap matrix eigenvalue = 2.57E-06

 Scale SEOQF with 1.000000e-01/1.000000e-01/1.000000e-01

 Standard Electronic Orientation quadrupole field applied
 Nucleus-field energy     =     0.0000000466 hartrees
 Guess from superposition of atomic densities
 Warning:  Energy on first SCF cycle will be non-variational
 SAD guess density has 98.000000 electrons

 -----------------------------------------------------------------------
  General SCF calculation program by
  Eric Jon Sundstrom, Paul Horn, Yuezhi Mao, Dmitri Zuev, Alec White,
  David Stuck, Shaama M.S., Shane Yost, Joonho Lee, David Small,
  Daniel Levine, Susi Lehtola, Hugh Burton, Evgeny Epifanovsky,
  Bang C. Huynh
 -----------------------------------------------------------------------
 Exchange:     0.2220 Hartree-Fock + 1.0000 wB97X-D + LR-HF
 Correlation:  1.0000 wB97X-D
 Using SG-2 standard quadrature grid
 Dispersion:   Grimme D
 using 12 threads for integral computing
 -------------------------------------------------------
 OpenMP Integral computing Module                
 Release: version 1.0, May 2013, Q-Chem Inc. Pittsburgh 
 -------------------------------------------------------
 A restricted SCF calculation will be
 performed using DIIS
 SCF converges when DIIS error is below 1.0e-08
 ---------------------------------------
  Cycle       Energy         DIIS error
 ---------------------------------------
    1   -3012.9437092388      4.06e-02  
    2   -3010.0273742511      6.16e-03  
    3   -3009.8110739361      9.27e-03  
    4   -3010.2666495835      5.33e-04  
    5   -3010.2679551197      3.60e-04  
    6   -3010.2688515603      8.07e-05  
    7   -3010.2688938464      5.11e-05  
    8   -3010.2689110231      1.85e-05  
    9   -3010.2689136178      8.10e-06  
   10   -3010.2689142913      1.85e-06  
   11   -3010.2689143356      7.01e-07  
   12   -3010.2689143429      1.97e-07  
   13   -3010.2689143434      9.75e-08  
   14   -3010.2689143435      2.24e-08  
   15   -3010.2689143435      6.02e-09  Convergence criterion met
 ---------------------------------------
 SCF time:   CPU 233.94s  wall 21.00s 
 SCF   energy in the final basis set =    -3010.2689143435
 Total energy in the final basis set =    -3010.2689143435
 
 MAX_CIS_SUBSPACE fits in available memory
 Direct TDDFT/TDA calculation will be performed
 Exchange:     0.2220 Hartree-Fock + 1.0000 wB97X-D + LR-HF
 Correlation:  1.0000 wB97X-D
 Using SG-2 standard quadrature grid
 Dispersion:   Grimme D
 Singlet excitation energies requested
 CIS energy converged when residual is below 10e- 6
 ---------------------------------------------------
 Iter    Rts Conv    Rts Left    Ttl Dev     Max Dev
 ---------------------------------------------------
   1         0         100      0.039792    0.001310
   2         0         100      0.012676    0.001021
   3         0         100      0.009068    0.000774
   4         1          99      0.005571    0.000416
   5        24          76      0.002176    0.000133
   6        50          50      0.000525    0.000048
   7        67          33      0.000132    0.000014
   8        94           6      0.000040    0.000004
   9       100           0      0.000026    0.000001    Roots Converged
 ---------------------------------------------------
 
 ---------------------------------------------------
         TDDFT/TDA Excitation Energies              
 ---------------------------------------------------

 Excited state   1: excitation energy (eV) =    3.6211
 Total energy for state  1:                 -3010.13584317 au
    Multiplicity: Singlet
    Trans. Mom.: -0.0002 X   0.0000 Y   0.0012 Z
    Strength   :     0.0000001379
    D(   46) --> V(    1) amplitude =  0.9034
    D(   46) --> V(    4) amplitude =  0.2616
    D(   47) --> V(    1) amplitude =  0.3194

 Excited state   2: excitation energy (eV) =    4.1975
 Total energy for state  2:                 -3010.11465938 au
    Multiplicity: Singlet
    Trans. Mom.: -0.0004 X   0.0002 Y   0.0472 Z
    Strength   :     0.0002286741
    D(   44) --> V(    1) amplitude =  0.9355
    D(   44) --> V(    4) amplitude =  0.2616

 Excited state   3: excitation energy (eV) =    4.5210
 Total energy for state  3:                 -3010.10277238 au
    Multiplicity: Singlet
    Trans. Mom.: -0.2712 X   0.4716 Y  -0.0061 Z
    Strength   :     0.0327841197
    D(   48) --> V(    1) amplitude = -0.2250
    D(   48) --> V(    2) amplitude = -0.2696
    D(   49) --> V(    1) amplitude =  0.9006

 Excited state   4: excitation energy (eV) =    5.1653
 Total energy for state  4:                 -3010.07909482 au
    Multiplicity: Singlet
    Trans. Mom.: -1.3948 X  -0.0527 Y  -0.0150 Z
    Strength   :     0.2465613395
    D(   48) --> V(    1) amplitude =  0.9075
    D(   49) --> V(    1) amplitude =  0.2445
    D(   49) --> V(    2) amplitude =  0.2242

 Excited state   5: excitation energy (eV) =    5.7756
 Total energy for state  5:                 -3010.05666592 au
    Multiplicity: Singlet
    Trans. Mom.: -0.0002 X  -0.0008 Y  -0.0414 Z
    Strength   :     0.0002422568
    D(   49) --> V(    3) amplitude =  0.9152
    D(   49) --> V(    5) amplitude = -0.2223

 Excited state   6: excitation energy (eV) =    6.0756
 Total energy for state  6:                 -3010.04564016 au
    Multiplicity: Singlet
    Trans. Mom.: -0.0008 X   0.0001 Y   0.0436 Z
    Strength   :     0.0002826799
    D(   46) --> V(    1) amplitude = -0.3033
    D(   47) --> V(    1) amplitude =  0.8902
    D(   47) --> V(    4) amplitude = -0.2502

 Excited state   7: excitation energy (eV) =    6.1290
 Total energy for state  7:                 -3010.04367882 au
    Multiplicity: Singlet
    Trans. Mom.:  0.8701 X   0.6874 Y   0.0050 Z
    Strength   :     0.1846174559
    D(   48) --> V(    1) amplitude = -0.2246
    D(   48) --> V(    2) amplitude =  0.4146
    D(   48) --> V(    4) amplitude = -0.2881
    D(   49) --> V(    1) amplitude =  0.2330
    D(   49) --> V(    2) amplitude =  0.6739
    D(   49) --> V(    4) amplitude =  0.2641

 Excited state   8: excitation energy (eV) =    6.4359
 Total energy for state  8:                 -3010.03239873 au
    Multiplicity: Singlet
    Trans. Mom.: -1.1600 X  -0.6965 Y  -0.0079 Z
    Strength   :     0.2886572613
    D(   45) --> V(    1) amplitude =  0.3055
    D(   48) --> V(    2) amplitude =  0.4586
    D(   49) --> V(    2) amplitude = -0.5215
    D(   49) --> V(    4) amplitude =  0.5371

 Excited state   9: excitation energy (eV) =    6.5306
 Total energy for state  9:                 -3010.02892073 au
    Multiplicity: Singlet
    Trans. Mom.: -0.0530 X   0.1360 Y  -0.0015 Z
    Strength   :     0.0034080221
    D(   43) --> V(    1) amplitude =  0.4925
    D(   45) --> V(    1) amplitude = -0.2218
    D(   46) --> V(    3) amplitude = -0.2173
    D(   47) --> V(    3) amplitude =  0.6860
    D(   47) --> V(    5) amplitude = -0.2208

 Excited state  10: excitation energy (eV) =    6.5678
 Total energy for state 10:                 -3010.02755170 au
    Multiplicity: Singlet
    Trans. Mom.:  0.2082 X  -0.4546 Y   0.0054 Z
    Strength   :     0.0402317323
    D(   43) --> V(    1) amplitude = -0.2765
    D(   45) --> V(    1) amplitude =  0.6893
    D(   47) --> V(    3) amplitude =  0.4046
    D(   48) --> V(    2) amplitude = -0.2331
    D(   49) --> V(    4) amplitude = -0.2382

 Excited state  11: excitation energy (eV) =    6.6023
 Total energy for state 11:                 -3010.02628576 au
    Multiplicity: Singlet
    Trans. Mom.: -0.1286 X  -0.5339 Y   0.0023 Z
    Strength   :     0.0487905158
    D(   43) --> V(    1) amplitude =  0.6240
    D(   45) --> V(    1) amplitude =  0.4649
    D(   47) --> V(    3) amplitude = -0.3450
    D(   49) --> V(    2) amplitude = -0.2161
    D(   49) --> V(    4) amplitude = -0.3270

 Excited state  12: excitation energy (eV) =    6.9043
 Total energy for state 12:                 -3010.01518522 au
    Multiplicity: Singlet
    Trans. Mom.:  0.0003 X  -0.0003 Y  -0.0266 Z
    Strength   :     0.0001200269
    D(   47) --> V(    2) amplitude =  0.9355

 Excited state  13: excitation energy (eV) =    7.0575
 Total energy for state 13:                 -3010.00955725 au
    Multiplicity: Singlet
    Trans. Mom.:  0.0001 X   0.0001 Y   0.0014 Z
    Strength   :     0.0000003285
    D(   39) --> V(    1) amplitude = -0.2189
    D(   42) --> V(    1) amplitude =  0.9179

 Excited state  14: excitation energy (eV) =    7.1752
 Total energy for state 14:                 -3010.00522921 au
    Multiplicity: Singlet
    Trans. Mom.: -0.0008 X   0.0006 Y   0.1060 Z
    Strength   :     0.0019766049
    D(   48) --> V(    3) amplitude =  0.9638

 Excited state  15: excitation energy (eV) =    7.2476
 Total energy for state 15:                 -3010.00257043 au
    Multiplicity: Singlet
    Trans. Mom.:  0.0037 X  -0.0022 Y  -0.3546 Z
    Strength   :     0.0223308076
    D(   49) --> V(    5) amplitude =  0.8659
    D(   49) --> V(    6) amplitude =  0.2690

 Excited state  16: excitation energy (eV) =    7.4363
 Total energy for state 16:                 -3009.99563508 au
    Multiplicity: Singlet
    Trans. Mom.: -0.0002 X   0.0006 Y   0.0040 Z
    Strength   :     0.0000029891
    D(   46) --> V(    2) amplitude =  0.9601

 Excited state  17: excitation energy (eV) =    7.5245
 Total energy for state 17:                 -3009.99239410 au
    Multiplicity: Singlet
    Trans. Mom.: -0.3133 X   1.5149 Y  -0.0133 Z
    Strength   :     0.4412044660
    D(   43) --> V(    2) amplitude =  0.4439
    D(   48) --> V(    2) amplitude =  0.5120
    D(   48) --> V(    4) amplitude =  0.4434
    D(   49) --> V(    4) amplitude = -0.4052

 Excited state  18: excitation energy (eV) =    7.7001
 Total energy for state 18:                 -3009.98594254 au
    Multiplicity: Singlet
    Trans. Mom.: -0.0012 X   0.0012 Y  -0.0685 Z
    Strength   :     0.0008861324
    D(   41) --> V(    1) amplitude =  0.7225
    D(   44) --> V(    2) amplitude = -0.2138
    D(   44) --> V(    4) amplitude = -0.2469
    D(   46) --> V(    4) amplitude = -0.4814

 Excited state  19: excitation energy (eV) =    7.7112
 Total energy for state 19:                 -3009.98553268 au
    Multiplicity: Singlet
    Trans. Mom.:  0.7342 X  -0.5388 Y   0.0112 Z
    Strength   :     0.1567254687
    D(   43) --> V(    1) amplitude =  0.2937
    D(   43) --> V(    2) amplitude =  0.3386
    D(   48) --> V(    2) amplitude = -0.2982
    D(   48) --> V(    4) amplitude =  0.5978
    D(   49) --> V(    4) amplitude =  0.4540

 Excited state  20: excitation energy (eV) =    7.7446
 Total energy for state 20:                 -3009.98430550 au
    Multiplicity: Singlet
    Trans. Mom.: -0.0015 X   0.0011 Y  -0.0471 Z
    Strength   :     0.0004224199
    D(   41) --> V(    1) amplitude =  0.4831
    D(   44) --> V(    2) amplitude =  0.4107
    D(   46) --> V(    4) amplitude =  0.5999
    D(   47) --> V(    4) amplitude =  0.2472

 Excited state  21: excitation energy (eV) =    7.8137
 Total energy for state 21:                 -3009.98176480 au
    Multiplicity: Singlet
    Trans. Mom.:  0.0001 X  -0.0000 Y  -0.0094 Z
    Strength   :     0.0000170922
    D(   44) --> V(    2) amplitude =  0.8501
    D(   46) --> V(    4) amplitude = -0.3610
    D(   47) --> V(    4) amplitude = -0.2467

 Excited state  22: excitation energy (eV) =    7.8600
 Total energy for state 22:                 -3009.98006530 au
    Multiplicity: Singlet
    Trans. Mom.:  0.0029 X  -0.0000 Y  -0.1184 Z
    Strength   :     0.0027028933
    D(   43) --> V(    3) amplitude =  0.7912
    D(   49) --> V(    3) amplitude = -0.2152
    D(   49) --> V(    6) amplitude =  0.3783

 Excited state  23: excitation energy (eV) =    7.8695
 Total energy for state 23:                 -3009.97971508 au
    Multiplicity: Singlet
    Trans. Mom.:  0.2714 X   0.1707 Y   0.0022 Z
    Strength   :     0.0198207310
    D(   45) --> V(    2) amplitude =  0.9874

 Excited state  24: excitation energy (eV) =    7.9678
 Total energy for state 24:                 -3009.97610276 au
    Multiplicity: Singlet
    Trans. Mom.: -0.0011 X  -0.0003 Y   0.1092 Z
    Strength   :     0.0023293361
    D(   43) --> V(    5) amplitude =  0.2611
    D(   48) --> V(    5) amplitude =  0.6532
    D(   48) --> V(    8) amplitude = -0.2149
    D(   49) --> V(    6) amplitude =  0.3853
    D(   49) --> V(    7) amplitude =  0.2949
    D(   49) --> V(    8) amplitude =  0.2405

 Excited state  25: excitation energy (eV) =    8.0690
 Total energy for state 25:                 -3009.97238436 au
    Multiplicity: Singlet
    Trans. Mom.:  0.0020 X  -0.0012 Y  -0.1659 Z
    Strength   :     0.0054412652
    D(   43) --> V(    5) amplitude =  0.2344
    D(   48) --> V(    5) amplitude = -0.5326
    D(   48) --> V(    8) amplitude =  0.2187
    D(   49) --> V(    6) amplitude =  0.5823
    D(   49) --> V(    8) amplitude =  0.3013

 Excited state  26: excitation energy (eV) =    8.1208
 Total energy for state 26:                 -3009.97048110 au
    Multiplicity: Singlet
    Trans. Mom.: -0.0011 X   0.0012 Y   0.0376 Z
    Strength   :     0.0002813885
    D(   41) --> V(    1) amplitude =  0.3124
    D(   44) --> V(    1) amplitude = -0.2363
    D(   44) --> V(    4) amplitude =  0.7562
    D(   47) --> V(    4) amplitude = -0.3471

 Excited state  27: excitation energy (eV) =    8.1405
 Total energy for state 27:                 -3009.96975485 au
    Multiplicity: Singlet
    Trans. Mom.: -0.5104 X   0.7458 Y  -0.0104 Z
    Strength   :     0.1629192652
    D(   43) --> V(    2) amplitude = -0.2183
    D(   47) --> V(    5) amplitude =  0.7171
    D(   47) --> V(    6) amplitude =  0.4361

 Excited state  28: excitation energy (eV) =    8.1811
 Total energy for state 28:                 -3009.96826484 au
    Multiplicity: Singlet
    Trans. Mom.:  0.0004 X  -0.0000 Y  -0.1285 Z
    Strength   :     0.0033086601
    D(   49) --> V(    5) amplitude =  0.2267
    D(   49) --> V(    7) amplitude =  0.7653
    D(   49) --> V(    8) amplitude =  0.2484

 Excited state  29: excitation energy (eV) =    8.2647
 Total energy for state 29:                 -3009.96519300 au
    Multiplicity: Singlet
    Trans. Mom.: -1.3290 X  -0.9686 Y  -0.0078 Z
    Strength   :     0.5476003629
    D(   43) --> V(    2) amplitude =  0.6471
    D(   48) --> V(    4) amplitude = -0.4816
    D(   49) --> V(    9) amplitude =  0.2822

 Excited state  30: excitation energy (eV) =    8.2741
 Total energy for state 30:                 -3009.96484646 au
    Multiplicity: Singlet
    Trans. Mom.:  0.0009 X   0.0031 Y   0.1728 Z
    Strength   :     0.0060557812
    D(   42) --> V(    2) amplitude =  0.9434

 Excited state  31: excitation energy (eV) =    8.4554
 Total energy for state 31:                 -3009.95818352 au
    Multiplicity: Singlet
    Trans. Mom.: -0.0070 X  -0.5178 Y   0.0037 Z
    Strength   :     0.0555552067
    D(   45) --> V(    4) amplitude =  0.8514
    D(   46) --> V(    7) amplitude =  0.2637

 Excited state  32: excitation energy (eV) =    8.4618
 Total energy for state 32:                 -3009.95794708 au
    Multiplicity: Singlet
    Trans. Mom.:  0.0003 X  -0.0011 Y  -0.0379 Z
    Strength   :     0.0002983867
    D(   44) --> V(    4) amplitude =  0.3920
    D(   46) --> V(    4) amplitude = -0.3081
    D(   47) --> V(    1) amplitude =  0.2341
    D(   47) --> V(    4) amplitude =  0.7786

 Excited state  33: excitation energy (eV) =    8.4850
 Total energy for state 33:                 -3009.95709673 au
    Multiplicity: Singlet
    Trans. Mom.:  0.0023 X  -0.0015 Y  -0.1926 Z
    Strength   :     0.0077153553
    D(   43) --> V(    6) amplitude =  0.2195
    D(   49) --> V(    7) amplitude = -0.3597
    D(   49) --> V(    8) amplitude =  0.7711

 Excited state  34: excitation energy (eV) =    8.5230
 Total energy for state 34:                 -3009.95570114 au
    Multiplicity: Singlet
    Trans. Mom.:  0.5487 X   0.2159 Y   0.0046 Z
    Strength   :     0.0726101939
    D(   43) --> V(    2) amplitude = -0.2183
    D(   49) --> V(    9) amplitude =  0.9006

 Excited state  35: excitation energy (eV) =    8.5987
 Total energy for state 35:                 -3009.95291845 au
    Multiplicity: Singlet
    Trans. Mom.: -0.2994 X  -0.6823 Y   0.0013 Z
    Strength   :     0.1169693034
    D(   45) --> V(    4) amplitude =  0.3333
    D(   46) --> V(    3) amplitude =  0.6069
    D(   46) --> V(    5) amplitude =  0.2378
    D(   46) --> V(    7) amplitude = -0.4021

 Excited state  36: excitation energy (eV) =    8.6380
 Total energy for state 36:                 -3009.95147533 au
    Multiplicity: Singlet
    Trans. Mom.:  0.0039 X  -0.0028 Y  -0.2745 Z
    Strength   :     0.0159562485
    D(   48) --> V(    6) amplitude =  0.6428
    D(   48) --> V(    7) amplitude = -0.5684
    D(   48) --> V(    8) amplitude = -0.2501

 Excited state  37: excitation energy (eV) =    8.6713
 Total energy for state 37:                 -3009.95025025 au
    Multiplicity: Singlet
    Trans. Mom.:  0.4947 X  -0.5887 Y   0.0096 Z
    Strength   :     0.1256294020
    D(   40) --> V(    1) amplitude =  0.8525

 Excited state  38: excitation energy (eV) =    8.8058
 Total energy for state 38:                 -3009.94530624 au
    Multiplicity: Singlet
    Trans. Mom.:  0.0001 X  -0.0000 Y   0.0102 Z
    Strength   :     0.0000224745
    D(   39) --> V(    1) amplitude =  0.3285
    D(   41) --> V(    2) amplitude =  0.8577

 Excited state  39: excitation energy (eV) =    8.9026
 Total energy for state 39:                 -3009.94175044 au
    Multiplicity: Singlet
    Trans. Mom.: -0.0012 X   0.0004 Y   0.1101 Z
    Strength   :     0.0026466850
    D(   45) --> V(    3) amplitude = -0.4775
    D(   45) --> V(    5) amplitude = -0.3246
    D(   45) --> V(    7) amplitude =  0.5498
    D(   45) --> V(   11) amplitude = -0.2951
    D(   49) --> V(   10) amplitude = -0.3493

 Excited state  40: excitation energy (eV) =    8.9279
 Total energy for state 40:                 -3009.94081921 au
    Multiplicity: Singlet
    Trans. Mom.:  0.0015 X  -0.0006 Y  -0.1152 Z
    Strength   :     0.0029027142
    D(   48) --> V(    6) amplitude =  0.5057
    D(   48) --> V(    7) amplitude =  0.6013
    D(   49) --> V(   10) amplitude =  0.3985

 Excited state  41: excitation energy (eV) =    8.9677
 Total energy for state 41:                 -3009.93935854 au
    Multiplicity: Singlet
    Trans. Mom.: -0.3204 X   0.2454 Y  -0.0051 Z
    Strength   :     0.0357876311
    D(   44) --> V(    3) amplitude =  0.4289
    D(   44) --> V(    7) amplitude = -0.3188
    D(   46) --> V(    3) amplitude =  0.4171
    D(   46) --> V(    5) amplitude = -0.3181
    D(   46) --> V(    7) amplitude =  0.2570
    D(   46) --> V(    8) amplitude =  0.2267
    D(   47) --> V(    7) amplitude =  0.2521

 Excited state  42: excitation energy (eV) =    8.9959
 Total energy for state 42:                 -3009.93832203 au
    Multiplicity: Singlet
    Trans. Mom.:  0.0001 X  -0.0006 Y   0.0080 Z
    Strength   :     0.0000140339
    D(   37) --> V(    1) amplitude = -0.2645
    D(   39) --> V(    1) amplitude =  0.6430
    D(   41) --> V(    2) amplitude = -0.3961
    D(   42) --> V(    4) amplitude = -0.4766

 Excited state  43: excitation energy (eV) =    9.0065
 Total energy for state 43:                 -3009.93793337 au
    Multiplicity: Singlet
    Trans. Mom.:  0.0025 X  -0.0013 Y  -0.2525 Z
    Strength   :     0.0140653196
    D(   48) --> V(    6) amplitude = -0.3457
    D(   48) --> V(    7) amplitude = -0.3397
    D(   49) --> V(   10) amplitude =  0.6509

 Excited state  44: excitation energy (eV) =    9.0693
 Total energy for state 44:                 -3009.93562256 au
    Multiplicity: Singlet
    Trans. Mom.:  0.0894 X   0.8452 Y  -0.0045 Z
    Strength   :     0.1605108180
    D(   43) --> V(    4) amplitude =  0.6000
    D(   46) --> V(    3) amplitude =  0.2749
    D(   46) --> V(    7) amplitude =  0.2159
    D(   48) --> V(    9) amplitude =  0.3289

 Excited state  45: excitation energy (eV) =    9.0853
 Total energy for state 45:                 -3009.93503682 au
    Multiplicity: Singlet
    Trans. Mom.: -0.5003 X  -0.0105 Y  -0.0055 Z
    Strength   :     0.0557396785
    D(   43) --> V(    4) amplitude =  0.4374
    D(   44) --> V(    3) amplitude =  0.2250
    D(   44) --> V(    5) amplitude =  0.2943
    D(   44) --> V(    7) amplitude = -0.3651
    D(   46) --> V(    3) amplitude = -0.2982
    D(   46) --> V(    5) amplitude =  0.2177

 Excited state  46: excitation energy (eV) =    9.1645
 Total energy for state 46:                 -3009.93212349 au
    Multiplicity: Singlet
    Trans. Mom.:  0.0112 X  -0.2578 Y   0.0021 Z
    Strength   :     0.0149505665
    D(   47) --> V(    6) amplitude = -0.3534
    D(   47) --> V(    7) amplitude =  0.5111
    D(   47) --> V(    8) amplitude = -0.3394
    D(   47) --> V(   10) amplitude =  0.3650
    D(   49) --> V(   12) amplitude = -0.2986

 Excited state  47: excitation energy (eV) =    9.2591
 Total energy for state 47:                 -3009.92864994 au
    Multiplicity: Singlet
    Trans. Mom.: -0.0029 X   0.0025 Y   0.2822 Z
    Strength   :     0.0180712109
    D(   45) --> V(    3) amplitude = -0.2576
    D(   49) --> V(    6) amplitude =  0.2370
    D(   49) --> V(   11) amplitude =  0.7680

 Excited state  48: excitation energy (eV) =    9.3247
 Total energy for state 48:                 -3009.92623910 au
    Multiplicity: Singlet
    Trans. Mom.:  0.0005 X   0.0003 Y  -0.1311 Z
    Strength   :     0.0039281740
    D(   48) --> V(    5) amplitude =  0.2821
    D(   48) --> V(    6) amplitude =  0.2747
    D(   48) --> V(    8) amplitude =  0.6713
    D(   48) --> V(   14) amplitude =  0.2976

 Excited state  49: excitation energy (eV) =    9.3601
 Total energy for state 49:                 -3009.92493762 au
    Multiplicity: Singlet
    Trans. Mom.: -0.0007 X   0.0013 Y   0.0303 Z
    Strength   :     0.0002106002
    D(   37) --> V(    1) amplitude =  0.3492
    D(   39) --> V(    1) amplitude =  0.3230
    D(   42) --> V(    4) amplitude =  0.2668
    D(   45) --> V(    3) amplitude =  0.5688
    D(   45) --> V(    5) amplitude = -0.2584
    D(   45) --> V(    7) amplitude =  0.2239
    D(   45) --> V(    8) amplitude =  0.2900

 Excited state  50: excitation energy (eV) =    9.3687
 Total energy for state 50:                 -3009.92462070 au
    Multiplicity: Singlet
    Trans. Mom.:  0.0139 X  -0.0040 Y  -0.0170 Z
    Strength   :     0.0001146341
    D(   37) --> V(    1) amplitude =  0.4606
    D(   39) --> V(    1) amplitude =  0.3763
    D(   42) --> V(    4) amplitude =  0.3670
    D(   45) --> V(    3) amplitude = -0.3605
    D(   45) --> V(    8) amplitude = -0.2208

 Excited state  51: excitation energy (eV) =    9.3706
 Total energy for state 51:                 -3009.92455026 au
    Multiplicity: Singlet
    Trans. Mom.:  0.5166 X  -0.1211 Y   0.0066 Z
    Strength   :     0.0646374785
    D(   43) --> V(    4) amplitude = -0.4295
    D(   44) --> V(    3) amplitude = -0.2812
    D(   48) --> V(    9) amplitude =  0.5915
    D(   48) --> V(   12) amplitude =  0.2746
    D(   49) --> V(   12) amplitude = -0.2888

 Excited state  52: excitation energy (eV) =    9.4112
 Total energy for state 52:                 -3009.92305881 au
    Multiplicity: Singlet
    Trans. Mom.: -0.0137 X  -0.4520 Y   0.0035 Z
    Strength   :     0.0471576836
    D(   43) --> V(    9) amplitude = -0.2309
    D(   44) --> V(    3) amplitude =  0.2796
    D(   48) --> V(    9) amplitude =  0.4408
    D(   49) --> V(   12) amplitude =  0.6627

 Excited state  53: excitation energy (eV) =    9.4377
 Total energy for state 53:                 -3009.92208594 au
    Multiplicity: Singlet
    Trans. Mom.:  0.0005 X   0.0038 Y  -0.0168 Z
    Strength   :     0.0000685065
    D(   46) --> V(    9) amplitude = -0.2537
    D(   47) --> V(    9) amplitude =  0.8670
    D(   47) --> V(   12) amplitude = -0.3353

 Excited state  54: excitation energy (eV) =    9.4738
 Total energy for state 54:                 -3009.92075806 au
    Multiplicity: Singlet
    Trans. Mom.: -0.0144 X   0.2676 Y  -0.0013 Z
    Strength   :     0.0166711350
    D(   44) --> V(    3) amplitude = -0.3328
    D(   47) --> V(    7) amplitude =  0.4070
    D(   47) --> V(    8) amplitude =  0.5735
    D(   47) --> V(   10) amplitude =  0.2411
    D(   47) --> V(   11) amplitude =  0.2317
    D(   49) --> V(   12) amplitude =  0.2633

 Excited state  55: excitation energy (eV) =    9.4984
 Total energy for state 55:                 -3009.91985361 au
    Multiplicity: Singlet
    Trans. Mom.:  0.0012 X   0.0014 Y   0.1037 Z
    Strength   :     0.0025013927
    D(   43) --> V(    8) amplitude = -0.3790
    D(   49) --> V(   14) amplitude =  0.7353
    D(   49) --> V(   16) amplitude =  0.2149

 Excited state  56: excitation energy (eV) =    9.5098
 Total energy for state 56:                 -3009.91943411 au
    Multiplicity: Singlet
    Trans. Mom.: -0.3753 X  -0.2816 Y  -0.0020 Z
    Strength   :     0.0512897855
    D(   44) --> V(    3) amplitude =  0.5394
    D(   44) --> V(    5) amplitude = -0.2413
    D(   44) --> V(    8) amplitude =  0.2276
    D(   46) --> V(    6) amplitude = -0.2260
    D(   47) --> V(    3) amplitude = -0.2301
    D(   47) --> V(    8) amplitude =  0.3454
    D(   49) --> V(   12) amplitude = -0.2851

 Excited state  57: excitation energy (eV) =    9.6251
 Total energy for state 57:                 -3009.91519951 au
    Multiplicity: Singlet
    Trans. Mom.:  0.0035 X  -0.0019 Y  -0.2866 Z
    Strength   :     0.0193683576
    D(   43) --> V(    5) amplitude =  0.6905
    D(   43) --> V(    6) amplitude =  0.2239
    D(   49) --> V(   11) amplitude =  0.3003

 Excited state  58: excitation energy (eV) =    9.6534
 Total energy for state 58:                 -3009.91415869 au
    Multiplicity: Singlet
    Trans. Mom.: -0.0021 X   0.0011 Y   0.1650 Z
    Strength   :     0.0064367262
    D(   35) --> V(    1) amplitude =  0.2571
    D(   37) --> V(    1) amplitude =  0.4036
    D(   38) --> V(    1) amplitude =  0.5436
    D(   39) --> V(    1) amplitude = -0.2220
    D(   41) --> V(    4) amplitude =  0.2309
    D(   42) --> V(    4) amplitude = -0.3864

 Excited state  59: excitation energy (eV) =    9.7027
 Total energy for state 59:                 -3009.91234697 au
    Multiplicity: Singlet
    Trans. Mom.:  0.0033 X  -0.1403 Y   0.0014 Z
    Strength   :     0.0046849437
    D(   44) --> V(    6) amplitude = -0.2143
    D(   44) --> V(    7) amplitude =  0.2404
    D(   44) --> V(    8) amplitude =  0.2703
    D(   46) --> V(    6) amplitude =  0.5532
    D(   46) --> V(    8) amplitude = -0.2635
    D(   46) --> V(   10) amplitude = -0.2501
    D(   47) --> V(    6) amplitude =  0.2898
    D(   49) --> V(   15) amplitude = -0.2273

 Excited state  60: excitation energy (eV) =    9.7221
 Total energy for state 60:                 -3009.91163486 au
    Multiplicity: Singlet
    Trans. Mom.: -0.0005 X  -0.0007 Y  -0.0859 Z
    Strength   :     0.0017591093
    D(   43) --> V(   10) amplitude = -0.2198
    D(   48) --> V(   10) amplitude = -0.2450
    D(   49) --> V(   13) amplitude =  0.7346
    D(   49) --> V(   14) amplitude = -0.2623

 Excited state  61: excitation energy (eV) =    9.7532
 Total energy for state 61:                 -3009.91049064 au
    Multiplicity: Singlet
    Trans. Mom.: -0.2017 X   0.0988 Y  -0.0028 Z
    Strength   :     0.0120559665
    D(   49) --> V(   15) amplitude =  0.8809

 Excited state  62: excitation energy (eV) =    9.8383
 Total energy for state 62:                 -3009.90736211 au
    Multiplicity: Singlet
    Trans. Mom.: -0.0035 X  -0.0036 Y   0.0398 Z
    Strength   :     0.0003870635
    D(   38) --> V(    1) amplitude =  0.2536
    D(   48) --> V(   10) amplitude =  0.6515
    D(   48) --> V(   11) amplitude = -0.4196
    D(   49) --> V(   13) amplitude =  0.2892

 Excited state  63: excitation energy (eV) =    9.8496
 Total energy for state 63:                 -3009.90694986 au
    Multiplicity: Singlet
    Trans. Mom.:  0.4737 X   0.5565 Y   0.0021 Z
    Strength   :     0.1288711003
    D(   40) --> V(    2) amplitude = -0.5952
    D(   42) --> V(    3) amplitude =  0.4688
    D(   48) --> V(   15) amplitude = -0.2179

 Excited state  64: excitation energy (eV) =    9.8623
 Total energy for state 64:                 -3009.90647984 au
    Multiplicity: Singlet
    Trans. Mom.: -0.0021 X  -0.0019 Y   0.0266 Z
    Strength   :     0.0001725120
    D(   35) --> V(    1) amplitude = -0.2332
    D(   36) --> V(    1) amplitude = -0.2285
    D(   37) --> V(    1) amplitude = -0.3475
    D(   38) --> V(    1) amplitude =  0.5356
    D(   41) --> V(    4) amplitude =  0.2674
    D(   42) --> V(    4) amplitude =  0.4310

 Excited state  65: excitation energy (eV) =    9.8736
 Total energy for state 65:                 -3009.90606788 au
    Multiplicity: Singlet
    Trans. Mom.: -0.0014 X   0.0003 Y   0.1033 Z
    Strength   :     0.0025803791
    D(   36) --> V(    1) amplitude = -0.2972
    D(   38) --> V(    1) amplitude = -0.3221
    D(   39) --> V(    2) amplitude =  0.3290
    D(   41) --> V(    4) amplitude =  0.6170
    D(   48) --> V(   10) amplitude =  0.3871

 Excited state  66: excitation energy (eV) =    9.8983
 Total energy for state 66:                 -3009.90515845 au
    Multiplicity: Singlet
    Trans. Mom.:  0.0536 X   0.2185 Y  -0.0009 Z
    Strength   :     0.0122790903
    D(   40) --> V(    2) amplitude = -0.2483
    D(   46) --> V(    6) amplitude = -0.2963
    D(   46) --> V(    8) amplitude = -0.2545
    D(   46) --> V(   14) amplitude = -0.2448
    D(   47) --> V(    5) amplitude = -0.2630
    D(   47) --> V(    6) amplitude =  0.2298
    D(   47) --> V(    8) amplitude = -0.3114
    D(   47) --> V(   10) amplitude =  0.3382
    D(   47) --> V(   11) amplitude = -0.2918

 Excited state  67: excitation energy (eV) =    9.9254
 Total energy for state 67:                 -3009.90416345 au
    Multiplicity: Singlet
    Trans. Mom.: -0.0106 X   0.0858 Y  -0.0005 Z
    Strength   :     0.0018192660
    D(   42) --> V(    3) amplitude =  0.2273
    D(   44) --> V(    6) amplitude =  0.2391
    D(   46) --> V(    8) amplitude =  0.4918
    D(   46) --> V(   14) amplitude =  0.2707
    D(   47) --> V(   10) amplitude =  0.2945

 Excited state  68: excitation energy (eV) =    9.9501
 Total energy for state 68:                 -3009.90325513 au
    Multiplicity: Singlet
    Trans. Mom.:  0.0009 X  -0.0002 Y  -0.0712 Z
    Strength   :     0.0012362135
    D(   41) --> V(    4) amplitude = -0.2616
    D(   45) --> V(    6) amplitude = -0.4497
    D(   45) --> V(   10) amplitude =  0.2557
    D(   48) --> V(   10) amplitude =  0.3801
    D(   48) --> V(   11) amplitude =  0.5282

 Excited state  69: excitation energy (eV) =   10.0041
 Total energy for state 69:                 -3009.90126928 au
    Multiplicity: Singlet
    Trans. Mom.:  0.0042 X  -0.0022 Y  -0.3424 Z
    Strength   :     0.0287452304
    D(   45) --> V(    6) amplitude =  0.6304
    D(   45) --> V(   10) amplitude = -0.3061
    D(   48) --> V(   11) amplitude =  0.5195

 Excited state  70: excitation energy (eV) =   10.0191
 Total energy for state 70:                 -3009.90071828 au
    Multiplicity: Singlet
    Trans. Mom.:  0.3011 X   0.3791 Y   0.0011 Z
    Strength   :     0.0575344147
    D(   40) --> V(    2) amplitude =  0.5343
    D(   41) --> V(    3) amplitude =  0.2515
    D(   42) --> V(    3) amplitude =  0.5861

 Excited state  71: excitation energy (eV) =   10.0413
 Total energy for state 71:                 -3009.89990404 au
    Multiplicity: Singlet
    Trans. Mom.: -0.0341 X   0.2627 Y  -0.0029 Z
    Strength   :     0.0172660169
    D(   46) --> V(    5) amplitude =  0.6295
    D(   46) --> V(    7) amplitude =  0.2500
    D(   46) --> V(   10) amplitude = -0.2122
    D(   46) --> V(   11) amplitude = -0.3724
    D(   46) --> V(   16) amplitude = -0.2437

 Excited state  72: excitation energy (eV) =   10.1026
 Total energy for state 72:                 -3009.89765040 au
    Multiplicity: Singlet
    Trans. Mom.:  0.0001 X  -0.0003 Y  -0.0118 Z
    Strength   :     0.0000347846
    D(   46) --> V(    9) amplitude =  0.6752
    D(   46) --> V(   12) amplitude =  0.2690
    D(   46) --> V(   15) amplitude =  0.5277

 Excited state  73: excitation energy (eV) =   10.2050
 Total energy for state 73:                 -3009.89388577 au
    Multiplicity: Singlet
    Trans. Mom.: -0.1030 X  -0.0149 Y   0.0005 Z
    Strength   :     0.0027058741
    D(   40) --> V(    2) amplitude =  0.2379
    D(   48) --> V(   12) amplitude =  0.6255
    D(   48) --> V(   15) amplitude = -0.5251

 Excited state  74: excitation energy (eV) =   10.2063
 Total energy for state 74:                 -3009.89383998 au
    Multiplicity: Singlet
    Trans. Mom.: -0.0005 X  -0.0010 Y  -0.1131 Z
    Strength   :     0.0031963778
    D(   38) --> V(    1) amplitude =  0.2452
    D(   39) --> V(    2) amplitude =  0.7990
    D(   41) --> V(    4) amplitude = -0.2994

 Excited state  75: excitation energy (eV) =   10.2379
 Total energy for state 75:                 -3009.89267808 au
    Multiplicity: Singlet
    Trans. Mom.: -0.0267 X  -0.0281 Y  -0.0001 Z
    Strength   :     0.0003777423
    D(   41) --> V(    3) amplitude = -0.4008
    D(   44) --> V(    6) amplitude =  0.3638
    D(   46) --> V(    8) amplitude = -0.2212
    D(   47) --> V(    6) amplitude = -0.3046
    D(   47) --> V(    7) amplitude = -0.2332
    D(   47) --> V(   13) amplitude = -0.2992

 Excited state  76: excitation energy (eV) =   10.2681
 Total energy for state 76:                 -3009.89156903 au
    Multiplicity: Singlet
    Trans. Mom.:  0.0014 X  -0.0005 Y  -0.0945 Z
    Strength   :     0.0022489335
    D(   43) --> V(    5) amplitude = -0.2432
    D(   43) --> V(    6) amplitude =  0.2382
    D(   43) --> V(    7) amplitude = -0.2133
    D(   43) --> V(   11) amplitude = -0.2526
    D(   49) --> V(   16) amplitude =  0.6348
    D(   49) --> V(   21) amplitude = -0.2219

 Excited state  77: excitation energy (eV) =   10.2922
 Total energy for state 77:                 -3009.89068121 au
    Multiplicity: Singlet
    Trans. Mom.: -0.2838 X   0.1365 Y  -0.0038 Z
    Strength   :     0.0250091396
    D(   41) --> V(    3) amplitude = -0.5971
    D(   44) --> V(    6) amplitude = -0.2667
    D(   48) --> V(   15) amplitude =  0.2328
    D(   49) --> V(   17) amplitude =  0.4334

 Excited state  78: excitation energy (eV) =   10.3275
 Total energy for state 78:                 -3009.88938460 au
    Multiplicity: Singlet
    Trans. Mom.:  0.0310 X  -0.0781 Y   0.0057 Z
    Strength   :     0.0017971303
    D(   41) --> V(    3) amplitude =  0.2665
    D(   44) --> V(    6) amplitude =  0.2921
    D(   47) --> V(   13) amplitude =  0.2188
    D(   48) --> V(   15) amplitude =  0.3247
    D(   49) --> V(   17) amplitude =  0.5303

 Excited state  79: excitation energy (eV) =   10.3293
 Total energy for state 79:                 -3009.88932061 au
    Multiplicity: Singlet
    Trans. Mom.:  0.0028 X  -0.0031 Y  -0.2382 Z
    Strength   :     0.0143640980
    D(   43) --> V(    6) amplitude =  0.3968
    D(   43) --> V(    7) amplitude = -0.2223
    D(   45) --> V(    5) amplitude =  0.4822
    D(   45) --> V(   11) amplitude = -0.2916
    D(   45) --> V(   16) amplitude = -0.2252
    D(   49) --> V(   18) amplitude = -0.3561

 Excited state  80: excitation energy (eV) =   10.3536
 Total energy for state 80:                 -3009.88842712 au
    Multiplicity: Singlet
    Trans. Mom.: -0.0008 X   0.0026 Y   0.0332 Z
    Strength   :     0.0002813013
    D(   45) --> V(    5) amplitude =  0.5085
    D(   45) --> V(    8) amplitude =  0.4844
    D(   45) --> V(   14) amplitude =  0.3254
    D(   49) --> V(   18) amplitude =  0.3009

 Excited state  81: excitation energy (eV) =   10.3565
 Total energy for state 81:                 -3009.88832123 au
    Multiplicity: Singlet
    Trans. Mom.:  0.0750 X  -0.3898 Y   0.0034 Z
    Strength   :     0.0399879697
    D(   41) --> V(    3) amplitude =  0.2821
    D(   44) --> V(    6) amplitude = -0.3162
    D(   47) --> V(    6) amplitude = -0.2601
    D(   47) --> V(    7) amplitude = -0.2966
    D(   47) --> V(   13) amplitude = -0.3066
    D(   47) --> V(   14) amplitude = -0.2153
    D(   48) --> V(   12) amplitude =  0.3076
    D(   48) --> V(   15) amplitude =  0.3556

 Excited state  82: excitation energy (eV) =   10.3730
 Total energy for state 82:                 -3009.88771488 au
    Multiplicity: Singlet
    Trans. Mom.: -0.2499 X   0.0388 Y  -0.0025 Z
    Strength   :     0.0162556831
    D(   42) --> V(    5) amplitude =  0.2389
    D(   47) --> V(   14) amplitude =  0.3121
    D(   48) --> V(   12) amplitude =  0.3504
    D(   48) --> V(   15) amplitude =  0.4258
    D(   49) --> V(   17) amplitude = -0.3770

 Excited state  83: excitation energy (eV) =   10.4029
 Total energy for state 83:                 -3009.88661530 au
    Multiplicity: Singlet
    Trans. Mom.:  0.0022 X  -0.0011 Y  -0.2256 Z
    Strength   :     0.0129734552
    D(   35) --> V(    1) amplitude = -0.2873
    D(   43) --> V(    6) amplitude =  0.4003
    D(   45) --> V(    8) amplitude =  0.3385
    D(   45) --> V(   11) amplitude =  0.2919
    D(   49) --> V(   16) amplitude = -0.2173

 Excited state  84: excitation energy (eV) =   10.4116
 Total energy for state 84:                 -3009.88629503 au
    Multiplicity: Singlet
    Trans. Mom.:  0.4524 X   0.3523 Y   0.0025 Z
    Strength   :     0.0838809700
    D(   42) --> V(    5) amplitude = -0.2422
    D(   44) --> V(    5) amplitude =  0.5547
    D(   44) --> V(    7) amplitude =  0.2179
    D(   44) --> V(   11) amplitude = -0.3507

 Excited state  85: excitation energy (eV) =   10.4357
 Total energy for state 85:                 -3009.88540841 au
    Multiplicity: Singlet
    Trans. Mom.: -0.0005 X  -0.0003 Y   0.0040 Z
    Strength   :     0.0000041339
    D(   35) --> V(    1) amplitude =  0.2275
    D(   40) --> V(    3) amplitude =  0.3296
    D(   43) --> V(    6) amplitude =  0.2614
    D(   45) --> V(    8) amplitude = -0.2221
    D(   49) --> V(   18) amplitude =  0.4980

 Excited state  86: excitation energy (eV) =   10.4991
 Total energy for state 86:                 -3009.88308049 au
    Multiplicity: Singlet
    Trans. Mom.: -0.2587 X  -0.4443 Y   0.0003 Z
    Strength   :     0.0679902882
    D(   47) --> V(    7) amplitude = -0.2196
    D(   47) --> V(   11) amplitude =  0.3314
    D(   47) --> V(   13) amplitude = -0.3194
    D(   47) --> V(   14) amplitude =  0.5087
    D(   49) --> V(   17) amplitude =  0.2548

 Excited state  87: excitation energy (eV) =   10.5094
 Total energy for state 87:                 -3009.88269978 au
    Multiplicity: Singlet
    Trans. Mom.:  0.0013 X  -0.0016 Y  -0.1469 Z
    Strength   :     0.0055600286
    D(   35) --> V(    1) amplitude = -0.3693
    D(   43) --> V(    7) amplitude =  0.6194
    D(   49) --> V(   16) amplitude =  0.2851

 Excited state  88: excitation energy (eV) =   10.5183
 Total energy for state 88:                 -3009.88237213 au
    Multiplicity: Singlet
    Trans. Mom.:  0.0014 X  -0.0010 Y  -0.1727 Z
    Strength   :     0.0076864446
    D(   35) --> V(    1) amplitude =  0.4187
    D(   43) --> V(    7) amplitude =  0.3186
    D(   44) --> V(    9) amplitude =  0.4292
    D(   44) --> V(   15) amplitude =  0.3234

 Excited state  89: excitation energy (eV) =   10.5248
 Total energy for state 89:                 -3009.88213458 au
    Multiplicity: Singlet
    Trans. Mom.: -0.0002 X  -0.0001 Y  -0.0264 Z
    Strength   :     0.0001794540
    D(   35) --> V(    1) amplitude = -0.3805
    D(   44) --> V(    9) amplitude =  0.4764
    D(   44) --> V(   15) amplitude =  0.3640
    D(   49) --> V(   18) amplitude =  0.2495

 Excited state  90: excitation energy (eV) =   10.5529
 Total energy for state 90:                 -3009.88110192 au
    Multiplicity: Singlet
    Trans. Mom.: -0.2369 X  -0.2096 Y  -0.0011 Z
    Strength   :     0.0258720984
    D(   45) --> V(    9) amplitude =  0.6270
    D(   45) --> V(   12) amplitude =  0.2514
    D(   45) --> V(   15) amplitude =  0.4618

 Excited state  91: excitation energy (eV) =   10.5866
 Total energy for state 91:                 -3009.87986551 au
    Multiplicity: Singlet
    Trans. Mom.: -0.0065 X   0.0047 Y   0.6073 Z
    Strength   :     0.0956681505
    D(   40) --> V(    3) amplitude =  0.2592
    D(   43) --> V(    6) amplitude = -0.2241
    D(   43) --> V(    8) amplitude = -0.3541
    D(   48) --> V(   13) amplitude =  0.4684
    D(   48) --> V(   18) amplitude =  0.4315

 Excited state  92: excitation energy (eV) =   10.6093
 Total energy for state 92:                 -3009.87903089 au
    Multiplicity: Singlet
    Trans. Mom.: -0.1266 X  -0.5418 Y   0.0030 Z
    Strength   :     0.0804798526
    D(   42) --> V(    5) amplitude =  0.6463
    D(   44) --> V(    8) amplitude = -0.3048
    D(   46) --> V(    6) amplitude =  0.2150
    D(   49) --> V(   17) amplitude =  0.2432

 Excited state  93: excitation energy (eV) =   10.6463
 Total energy for state 93:                 -3009.87767006 au
    Multiplicity: Singlet
    Trans. Mom.: -0.2662 X  -0.0221 Y  -0.0025 Z
    Strength   :     0.0186056900
    D(   42) --> V(    5) amplitude =  0.3259
    D(   44) --> V(    5) amplitude =  0.2895
    D(   44) --> V(    6) amplitude =  0.2742
    D(   44) --> V(    8) amplitude =  0.4276
    D(   44) --> V(   14) amplitude =  0.3068
    D(   46) --> V(    6) amplitude = -0.2228

 Excited state  94: excitation energy (eV) =   10.7069
 Total energy for state 94:                 -3009.87544306 au
    Multiplicity: Singlet
    Trans. Mom.: -0.0969 X   0.0162 Y  -0.0015 Z
    Strength   :     0.0025318809
    D(   42) --> V(    5) amplitude =  0.2366
    D(   43) --> V(    9) amplitude =  0.3311
    D(   45) --> V(    9) amplitude = -0.2127
    D(   46) --> V(   11) amplitude = -0.3026
    D(   49) --> V(   19) amplitude = -0.3341
    D(   49) --> V(   20) amplitude = -0.3768

 Excited state  95: excitation energy (eV) =   10.7417
 Total energy for state 95:                 -3009.87416486 au
    Multiplicity: Singlet
    Trans. Mom.: -0.0928 X   0.0633 Y  -0.0021 Z
    Strength   :     0.0033228394
    D(   43) --> V(    9) amplitude =  0.2594
    D(   46) --> V(    7) amplitude =  0.4669
    D(   46) --> V(   11) amplitude =  0.2681
    D(   46) --> V(   16) amplitude =  0.2225
    D(   49) --> V(   19) amplitude = -0.2287
    D(   49) --> V(   20) amplitude = -0.3088

 Excited state  96: excitation energy (eV) =   10.7467
 Total energy for state 96:                 -3009.87398074 au
    Multiplicity: Singlet
    Trans. Mom.: -0.0012 X   0.0010 Y   0.0740 Z
    Strength   :     0.0014426912
    D(   38) --> V(    2) amplitude = -0.4252
    D(   40) --> V(    3) amplitude = -0.5492
    D(   48) --> V(   13) amplitude =  0.4315

 Excited state  97: excitation energy (eV) =   10.8099
 Total energy for state 97:                 -3009.87165828 au
    Multiplicity: Singlet
    Trans. Mom.: -0.0008 X   0.0005 Y   0.0860 Z
    Strength   :     0.0019590883
    D(   38) --> V(    2) amplitude =  0.7577
    D(   40) --> V(    3) amplitude = -0.2716
    D(   48) --> V(   13) amplitude =  0.2973

 Excited state  98: excitation energy (eV) =   10.8258
 Total energy for state 98:                 -3009.87107386 au
    Multiplicity: Singlet
    Trans. Mom.: -0.0013 X  -0.0001 Y   0.0331 Z
    Strength   :     0.0002912496
    D(   46) --> V(   12) amplitude = -0.2795
    D(   47) --> V(    9) amplitude =  0.2708
    D(   47) --> V(   12) amplitude =  0.7104
    D(   47) --> V(   17) amplitude =  0.4440

 Excited state  99: excitation energy (eV) =   10.8617
 Total energy for state 99:                 -3009.86975474 au
    Multiplicity: Singlet
    Trans. Mom.:  0.1100 X  -0.1355 Y   0.0027 Z
    Strength   :     0.0081086393
    D(   40) --> V(    4) amplitude = -0.3568
    D(   43) --> V(    9) amplitude =  0.6700
    D(   49) --> V(   19) amplitude =  0.3343
    D(   49) --> V(   20) amplitude =  0.2508

 Excited state 100: excitation energy (eV) =   10.8672
 Total energy for state100:                 -3009.86955295 au
    Multiplicity: Singlet
    Trans. Mom.: -0.2954 X  -0.1252 Y  -0.0015 Z
    Strength   :     0.0274127074
    D(   47) --> V(    6) amplitude = -0.2876
    D(   47) --> V(    8) amplitude =  0.3441
    D(   47) --> V(   11) amplitude = -0.4167
    D(   47) --> V(   14) amplitude =  0.4592
    D(   47) --> V(   16) amplitude =  0.2596
 
 ---------------------------------------------------

 Direct TDDFT calculation will be performed
 Exchange:     0.2220 Hartree-Fock + 1.0000 wB97X-D + LR-HF
 Correlation:  1.0000 wB97X-D
 Using SG-2 standard quadrature grid
 Dispersion:   Grimme D
 ---------------------------------------------------
 Iter    Rts Conv    Rts Left    Ttl Dev     Max Dev
 ---------------------------------------------------
   1         0         100      0.023284    0.000783
   2         0         100      0.005912    0.000140
   3         0         100      0.001985    0.000053
   4         1          99      0.000957    0.000032
   5         7          93      0.000427    0.000016
   6        40          60      0.000185    0.000010
   7        76          24      0.000087    0.000006
   8        94           6      0.000058    0.000003
   9        98           2      0.000051    0.000002
  10       100           0      0.000049    0.000001    Roots Converged
 ---------------------------------------------------
 
 ---------------------------------------------------
             TDDFT Excitation Energies              
 ---------------------------------------------------

 Excited state   1: excitation energy (eV) =    3.5952
 Total energy for state  1:                 -3010.13679424 au
    Multiplicity: Singlet 
    Trans. Mom.: -0.0002 X   0.0000 Y   0.0012 Z
    Strength   :     0.0000001302
    X: D(   46) --> V(    1) amplitude =  0.9039
    X: D(   46) --> V(    4) amplitude =  0.2631
    X: D(   47) --> V(    1) amplitude =  0.3194

 Excited state   2: excitation energy (eV) =    4.1681
 Total energy for state  2:                 -3010.11573899 au
    Multiplicity: Singlet 
    Trans. Mom.: -0.0005 X   0.0002 Y   0.0544 Z
    Strength   :     0.0003020392
    X: D(   44) --> V(    1) amplitude =  0.9364
    X: D(   44) --> V(    4) amplitude =  0.2624

 Excited state   3: excitation energy (eV) =    4.4270
 Total energy for state  3:                 -3010.10622441 au
    Multiplicity: Singlet 
    Trans. Mom.: -0.2734 X   0.4331 Y  -0.0059 Z
    Strength   :     0.0284526965
    X: D(   48) --> V(    2) amplitude = -0.2210
    X: D(   49) --> V(    1) amplitude =  0.9193

 Excited state   4: excitation energy (eV) =    5.0027
 Total energy for state  4:                 -3010.08506733 au
    Multiplicity: Singlet 
    Trans. Mom.: -1.2721 X  -0.0767 Y  -0.0135 Z
    Strength   :     0.1990931635
    X: D(   48) --> V(    1) amplitude =  0.9315

 Excited state   5: excitation energy (eV) =    5.7309
 Total energy for state  5:                 -3010.05830676 au
    Multiplicity: Singlet 
    Trans. Mom.: -0.0008 X  -0.0007 Y  -0.0074 Z
    Strength   :     0.0000078439
    X: D(   49) --> V(    3) amplitude =  0.9144
    X: D(   49) --> V(    5) amplitude = -0.2257

 Excited state   6: excitation energy (eV) =    5.8892
 Total energy for state  6:                 -3010.05249151 au
    Multiplicity: Singlet 
    Trans. Mom.:  0.4808 X  -0.0237 Y   0.0055 Z
    Strength   :     0.0334360249
    X: D(   45) --> V(    1) amplitude =  0.7286
    X: D(   48) --> V(    2) amplitude =  0.3253
    X: D(   49) --> V(    2) amplitude =  0.4911

 Excited state   7: excitation energy (eV) =    6.0723
 Total energy for state  7:                 -3010.04576219 au
    Multiplicity: Singlet 
    Trans. Mom.: -0.0015 X  -0.0008 Y   0.0451 Z
    Strength   :     0.0003032734
    X: D(   46) --> V(    1) amplitude = -0.3032
    X: D(   47) --> V(    1) amplitude =  0.8906
    X: D(   47) --> V(    4) amplitude = -0.2511

 Excited state   8: excitation energy (eV) =    6.0889
 Total energy for state  8:                 -3010.04515119 au
    Multiplicity: Singlet 
    Trans. Mom.: -1.0192 X  -1.2065 Y  -0.0030 Z
    Strength   :     0.3721043860
    X: D(   45) --> V(    1) amplitude =  0.6117
    X: D(   49) --> V(    2) amplitude = -0.7134

 Excited state   9: excitation energy (eV) =    6.3290
 Total energy for state  9:                 -3010.03632737 au
    Multiplicity: Singlet 
    Trans. Mom.: -0.7739 X   0.1440 Y  -0.0094 Z
    Strength   :     0.0961002807
    X: D(   45) --> V(    1) amplitude = -0.2374
    X: D(   48) --> V(    2) amplitude =  0.6718
    X: D(   49) --> V(    1) amplitude =  0.2134
    X: D(   49) --> V(    2) amplitude = -0.3377
    X: D(   49) --> V(    4) amplitude =  0.5137

 Excited state  10: excitation energy (eV) =    6.4795
 Total energy for state 10:                 -3010.03079885 au
    Multiplicity: Singlet 
    Trans. Mom.:  0.1368 X   0.0199 Y   0.0014 Z
    Strength   :     0.0030349418
    X: D(   43) --> V(    1) amplitude =  0.3443
    X: D(   46) --> V(    3) amplitude = -0.2465
    X: D(   47) --> V(    3) amplitude =  0.7886
    X: D(   47) --> V(    5) amplitude = -0.2481
    X: D(   49) --> V(    4) amplitude = -0.2461

 Excited state  11: excitation energy (eV) =    6.5291
 Total energy for state 11:                 -3010.02897502 au
    Multiplicity: Singlet 
    Trans. Mom.:  0.0539 X  -0.0122 Y   0.0007 Z
    Strength   :     0.0004888711
    X: D(   43) --> V(    1) amplitude =  0.7771
    X: D(   47) --> V(    3) amplitude = -0.3705
    X: D(   49) --> V(    4) amplitude = -0.3532

 Excited state  12: excitation energy (eV) =    6.9003
 Total energy for state 12:                 -3010.01533399 au
    Multiplicity: Singlet 
    Trans. Mom.:  0.0003 X  -0.0004 Y  -0.0268 Z
    Strength   :     0.0001217659
    X: D(   47) --> V(    2) amplitude =  0.9333

 Excited state  13: excitation energy (eV) =    7.0473
 Total energy for state 13:                 -3010.00993107 au
    Multiplicity: Singlet 
    Trans. Mom.:  0.0001 X   0.0000 Y   0.0007 Z
    Strength   :     0.0000000792
    X: D(   39) --> V(    1) amplitude = -0.2190
    X: D(   42) --> V(    1) amplitude =  0.9152

 Excited state  14: excitation energy (eV) =    7.1711
 Total energy for state 14:                 -3010.00538174 au
    Multiplicity: Singlet 
    Trans. Mom.: -0.0004 X  -0.0006 Y   0.1060 Z
    Strength   :     0.0019724866
    X: D(   48) --> V(    3) amplitude =  0.9636

 Excited state  15: excitation energy (eV) =    7.2364
 Total energy for state 15:                 -3010.00298000 au
    Multiplicity: Singlet 
    Trans. Mom.: -0.3704 X   1.5107 Y  -0.0165 Z
    Strength   :     0.4289634009
    X: D(   43) --> V(    1) amplitude = -0.2945
    X: D(   43) --> V(    2) amplitude =  0.2440
    X: D(   48) --> V(    2) amplitude =  0.5664
    X: D(   48) --> V(    4) amplitude =  0.3031
    X: D(   49) --> V(    4) amplitude = -0.6176

 Excited state  16: excitation energy (eV) =    7.2444
 Total energy for state 16:                 -3010.00268712 au
    Multiplicity: Singlet 
    Trans. Mom.:  0.0066 X  -0.0137 Y  -0.3525 Z
    Strength   :     0.0220887425
    X: D(   49) --> V(    5) amplitude =  0.8644
    X: D(   49) --> V(    6) amplitude =  0.2693

 Excited state  17: excitation energy (eV) =    7.4331
 Total energy for state 17:                 -3009.99575329 au
    Multiplicity: Singlet 
    Trans. Mom.: -0.0002 X  -0.0002 Y   0.0095 Z
    Strength   :     0.0000164562
    X: D(   46) --> V(    2) amplitude =  0.9597

 Excited state  18: excitation energy (eV) =    7.5013
 Total energy for state 18:                 -3009.99324579 au
    Multiplicity: Singlet 
    Trans. Mom.:  0.6547 X   0.0620 Y   0.0067 Z
    Strength   :     0.0794822910
    X: D(   43) --> V(    1) amplitude =  0.2527
    X: D(   43) --> V(    2) amplitude =  0.3082
    X: D(   48) --> V(    4) amplitude =  0.8002
    X: D(   49) --> V(    4) amplitude =  0.2884

 Excited state  19: excitation energy (eV) =    7.6893
 Total energy for state 19:                 -3009.98633702 au
    Multiplicity: Singlet 
    Trans. Mom.:  0.0008 X  -0.0004 Y  -0.0742 Z
    Strength   :     0.0010361254
    X: D(   41) --> V(    1) amplitude =  0.7691
    X: D(   44) --> V(    4) amplitude = -0.2617
    X: D(   46) --> V(    4) amplitude = -0.4171

 Excited state  20: excitation energy (eV) =    7.7390
 Total energy for state 20:                 -3009.98451049 au
    Multiplicity: Singlet 
    Trans. Mom.:  0.0002 X  -0.0003 Y  -0.0418 Z
    Strength   :     0.0003317687
    X: D(   41) --> V(    1) amplitude =  0.4077
    X: D(   44) --> V(    2) amplitude =  0.4343
    X: D(   46) --> V(    4) amplitude =  0.6445
    X: D(   47) --> V(    4) amplitude =  0.2561

 Excited state  21: excitation energy (eV) =    7.8100
 Total energy for state 21:                 -3009.98190362 au
    Multiplicity: Singlet 
    Trans. Mom.:  0.0002 X  -0.0000 Y  -0.0204 Z
    Strength   :     0.0000799126
    X: D(   44) --> V(    2) amplitude =  0.8307
    X: D(   46) --> V(    4) amplitude = -0.3520
    X: D(   47) --> V(    4) amplitude = -0.2423

 Excited state  22: excitation energy (eV) =    7.8403
 Total energy for state 22:                 -3009.98078826 au
    Multiplicity: Singlet 
    Trans. Mom.:  0.0038 X   0.0010 Y  -0.1089 Z
    Strength   :     0.0022816384
    X: D(   43) --> V(    3) amplitude =  0.7873
    X: D(   49) --> V(    6) amplitude =  0.3353

 Excited state  23: excitation energy (eV) =    7.8561
 Total energy for state 23:                 -3009.98020792 au
    Multiplicity: Singlet 
    Trans. Mom.:  0.3674 X   0.2282 Y   0.0030 Z
    Strength   :     0.0360126191
    X: D(   45) --> V(    2) amplitude =  0.9706

 Excited state  24: excitation energy (eV) =    7.9620
 Total energy for state 24:                 -3009.97631675 au
    Multiplicity: Singlet 
    Trans. Mom.: -0.0026 X  -0.0017 Y   0.0998 Z
    Strength   :     0.0019454907
    X: D(   43) --> V(    5) amplitude =  0.2616
    X: D(   48) --> V(    5) amplitude =  0.6481
    X: D(   48) --> V(    8) amplitude = -0.2138
    X: D(   49) --> V(    6) amplitude =  0.4135
    X: D(   49) --> V(    7) amplitude =  0.2917
    X: D(   49) --> V(    8) amplitude =  0.2432

 Excited state  25: excitation energy (eV) =    7.9992
 Total energy for state 25:                 -3009.97494829 au
    Multiplicity: Singlet 
    Trans. Mom.: -0.6554 X  -0.7622 Y  -0.0026 Z
    Strength   :     0.1980315973
    X: D(   43) --> V(    2) amplitude =  0.8331
    X: D(   48) --> V(    4) amplitude = -0.3580

 Excited state  26: excitation energy (eV) =    8.0638
 Total energy for state 26:                 -3009.97257518 au
    Multiplicity: Singlet 
    Trans. Mom.:  0.0021 X  -0.0012 Y  -0.1698 Z
    Strength   :     0.0056957192
    X: D(   43) --> V(    5) amplitude =  0.2300
    X: D(   48) --> V(    5) amplitude = -0.5417
    X: D(   48) --> V(    8) amplitude =  0.2241
    X: D(   49) --> V(    6) amplitude =  0.5842
    X: D(   49) --> V(    8) amplitude =  0.2978

 Excited state  27: excitation energy (eV) =    8.1157
 Total energy for state 27:                 -3009.97066628 au
    Multiplicity: Singlet 
    Trans. Mom.: -0.0014 X   0.0002 Y   0.0342 Z
    Strength   :     0.0002327323
    X: D(   41) --> V(    1) amplitude =  0.3117
    X: D(   44) --> V(    1) amplitude = -0.2383
    X: D(   44) --> V(    4) amplitude =  0.7597
    X: D(   47) --> V(    4) amplitude = -0.3470

 Excited state  28: excitation energy (eV) =    8.1371
 Total energy for state 28:                 -3009.96988255 au
    Multiplicity: Singlet 
    Trans. Mom.: -0.8577 X   0.2595 Y  -0.0110 Z
    Strength   :     0.1600942255
    X: D(   46) --> V(    5) amplitude = -0.2187
    X: D(   47) --> V(    5) amplitude =  0.7378
    X: D(   47) --> V(    6) amplitude =  0.4510

 Excited state  29: excitation energy (eV) =    8.1778
 Total energy for state 29:                 -3009.96838720 au
    Multiplicity: Singlet 
    Trans. Mom.:  0.0008 X  -0.0004 Y  -0.1312 Z
    Strength   :     0.0034472708
    X: D(   49) --> V(    5) amplitude =  0.2279
    X: D(   49) --> V(    7) amplitude =  0.7598
    X: D(   49) --> V(    8) amplitude =  0.2511

 Excited state  30: excitation energy (eV) =    8.2562
 Total energy for state 30:                 -3009.96550394 au
    Multiplicity: Singlet 
    Trans. Mom.: -0.0018 X   0.0009 Y   0.1583 Z
    Strength   :     0.0050682274
    X: D(   42) --> V(    2) amplitude =  0.9383

 Excited state  31: excitation energy (eV) =    8.3511
 Total energy for state 31:                 -3009.96201585 au
    Multiplicity: Singlet 
    Trans. Mom.:  0.0564 X  -0.3685 Y   0.0032 Z
    Strength   :     0.0284369457
    X: D(   45) --> V(    4) amplitude =  0.9455

 Excited state  32: excitation energy (eV) =    8.4597
 Total energy for state 32:                 -3009.95802593 au
    Multiplicity: Singlet 
    Trans. Mom.:  0.0002 X  -0.0003 Y  -0.0302 Z
    Strength   :     0.0001887763
    X: D(   44) --> V(    4) amplitude =  0.3896
    X: D(   46) --> V(    4) amplitude = -0.3078
    X: D(   47) --> V(    1) amplitude =  0.2344
    X: D(   47) --> V(    4) amplitude =  0.7775

 Excited state  33: excitation energy (eV) =    8.4808
 Total energy for state 33:                 -3009.95725032 au
    Multiplicity: Singlet 
    Trans. Mom.:  0.0023 X  -0.0014 Y  -0.1953 Z
    Strength   :     0.0079279290
    X: D(   43) --> V(    6) amplitude =  0.2189
    X: D(   49) --> V(    7) amplitude = -0.3651
    X: D(   49) --> V(    8) amplitude =  0.7665

 Excited state  34: excitation energy (eV) =    8.4971
 Total energy for state 34:                 -3009.95665024 au
    Multiplicity: Singlet 
    Trans. Mom.:  0.3441 X   0.0344 Y   0.0036 Z
    Strength   :     0.0248951971
    X: D(   40) --> V(    1) amplitude =  0.2515
    X: D(   49) --> V(    9) amplitude =  0.8846

 Excited state  35: excitation energy (eV) =    8.5613
 Total energy for state 35:                 -3009.95429164 au
    Multiplicity: Singlet 
    Trans. Mom.: -0.1312 X  -0.0650 Y  -0.0009 Z
    Strength   :     0.0045004444
    X: D(   40) --> V(    1) amplitude = -0.5756
    X: D(   46) --> V(    3) amplitude =  0.4466
    X: D(   46) --> V(    7) amplitude = -0.3580
    X: D(   49) --> V(    9) amplitude =  0.2595

 Excited state  36: excitation energy (eV) =    8.5803
 Total energy for state 36:                 -3009.95359266 au
    Multiplicity: Singlet 
    Trans. Mom.:  0.1107 X  -0.5564 Y   0.0046 Z
    Strength   :     0.0676549874
    X: D(   40) --> V(    1) amplitude =  0.6525
    X: D(   46) --> V(    3) amplitude =  0.4256
    X: D(   46) --> V(    5) amplitude =  0.2281
    X: D(   46) --> V(    7) amplitude = -0.3314

 Excited state  37: excitation energy (eV) =    8.6338
 Total energy for state 37:                 -3009.95162630 au
    Multiplicity: Singlet 
    Trans. Mom.:  0.0028 X  -0.0014 Y  -0.2679 Z
    Strength   :     0.0151801514
    X: D(   48) --> V(    6) amplitude =  0.6408
    X: D(   48) --> V(    7) amplitude = -0.5676
    X: D(   48) --> V(    8) amplitude = -0.2505

 Excited state  38: excitation energy (eV) =    8.7942
 Total energy for state 38:                 -3009.94573482 au
    Multiplicity: Singlet 
    Trans. Mom.: -0.0000 X   0.0000 Y   0.0094 Z
    Strength   :     0.0000190413
    X: D(   39) --> V(    1) amplitude =  0.3198
    X: D(   41) --> V(    2) amplitude =  0.8647

 Excited state  39: excitation energy (eV) =    8.8994
 Total energy for state 39:                 -3009.94186896 au
    Multiplicity: Singlet 
    Trans. Mom.: -0.0012 X   0.0005 Y   0.1036 Z
    Strength   :     0.0023397710
    X: D(   45) --> V(    3) amplitude = -0.4801
    X: D(   45) --> V(    5) amplitude = -0.3265
    X: D(   45) --> V(    7) amplitude =  0.5537
    X: D(   45) --> V(   11) amplitude = -0.2976
    X: D(   49) --> V(   10) amplitude = -0.3418

 Excited state  40: excitation energy (eV) =    8.9262
 Total energy for state 40:                 -3009.94088204 au
    Multiplicity: Singlet 
    Trans. Mom.:  0.0015 X  -0.0007 Y  -0.1182 Z
    Strength   :     0.0030557999
    X: D(   48) --> V(    6) amplitude =  0.5039
    X: D(   48) --> V(    7) amplitude =  0.5967
    X: D(   49) --> V(   10) amplitude =  0.4080

 Excited state  41: excitation energy (eV) =    8.9496
 Total energy for state 41:                 -3009.94002441 au
    Multiplicity: Singlet 
    Trans. Mom.: -0.3903 X   0.0851 Y  -0.0048 Z
    Strength   :     0.0349896261
    X: D(   44) --> V(    3) amplitude =  0.4301
    X: D(   44) --> V(    7) amplitude = -0.3111
    X: D(   46) --> V(    3) amplitude =  0.4480
    X: D(   46) --> V(    5) amplitude = -0.3182
    X: D(   46) --> V(    7) amplitude =  0.2585
    X: D(   46) --> V(    8) amplitude =  0.2428
    X: D(   47) --> V(    7) amplitude =  0.2541

 Excited state  42: excitation energy (eV) =    8.9808
 Total energy for state 42:                 -3009.93887720 au
    Multiplicity: Singlet 
    Trans. Mom.: -0.0000 X  -0.0008 Y   0.0045 Z
    Strength   :     0.0000045079
    X: D(   37) --> V(    1) amplitude = -0.2950
    X: D(   39) --> V(    1) amplitude =  0.6318
    X: D(   41) --> V(    2) amplitude = -0.3836
    X: D(   42) --> V(    4) amplitude = -0.4887

 Excited state  43: excitation energy (eV) =    9.0035
 Total energy for state 43:                 -3009.93804069 au
    Multiplicity: Singlet 
    Trans. Mom.:  0.0026 X  -0.0013 Y  -0.2483 Z
    Strength   :     0.0136008676
    X: D(   48) --> V(    6) amplitude = -0.3479
    X: D(   48) --> V(    7) amplitude = -0.3440
    X: D(   49) --> V(   10) amplitude =  0.6504

 Excited state  44: excitation energy (eV) =    9.0351
 Total energy for state 44:                 -3009.93687892 au
    Multiplicity: Singlet 
    Trans. Mom.: -0.0791 X   0.6441 Y  -0.0051 Z
    Strength   :     0.0932274586
    X: D(   40) --> V(    1) amplitude =  0.2462
    X: D(   43) --> V(    4) amplitude =  0.7812
    X: D(   48) --> V(    9) amplitude =  0.2426

 Excited state  45: excitation energy (eV) =    9.0664
 Total energy for state 45:                 -3009.93573141 au
    Multiplicity: Singlet 
    Trans. Mom.: -0.5143 X  -0.2404 Y  -0.0042 Z
    Strength   :     0.0715882023
    X: D(   44) --> V(    3) amplitude =  0.2831
    X: D(   44) --> V(    5) amplitude =  0.3063
    X: D(   44) --> V(    7) amplitude = -0.3847
    X: D(   46) --> V(    3) amplitude = -0.3846
    X: D(   46) --> V(    5) amplitude =  0.2630
    X: D(   46) --> V(    6) amplitude =  0.2193
    X: D(   46) --> V(    7) amplitude = -0.2659
    X: D(   46) --> V(    8) amplitude = -0.2320

 Excited state  46: excitation energy (eV) =    9.1539
 Total energy for state 46:                 -3009.93251351 au
    Multiplicity: Singlet 
    Trans. Mom.: -0.0501 X  -0.3156 Y   0.0017 Z
    Strength   :     0.0229026225
    X: D(   47) --> V(    6) amplitude = -0.3552
    X: D(   47) --> V(    7) amplitude =  0.5213
    X: D(   47) --> V(    8) amplitude = -0.3455
    X: D(   47) --> V(   10) amplitude =  0.3763
    X: D(   49) --> V(   12) amplitude = -0.2553

 Excited state  47: excitation energy (eV) =    9.2532
 Total energy for state 47:                 -3009.92886489 au
    Multiplicity: Singlet 
    Trans. Mom.: -0.0018 X   0.0036 Y   0.2774 Z
    Strength   :     0.0174508150
    X: D(   43) --> V(    5) amplitude = -0.2126
    X: D(   45) --> V(    3) amplitude = -0.2517
    X: D(   49) --> V(    6) amplitude =  0.2402
    X: D(   49) --> V(   11) amplitude =  0.7678

 Excited state  48: excitation energy (eV) =    9.2651
 Total energy for state 48:                 -3009.92842864 au
    Multiplicity: Singlet 
    Trans. Mom.:  0.2261 X   0.0951 Y   0.0017 Z
    Strength   :     0.0136541689
    X: D(   43) --> V(    4) amplitude = -0.3261
    X: D(   48) --> V(    9) amplitude =  0.7628
    X: D(   48) --> V(   12) amplitude =  0.3506
    X: D(   49) --> V(   12) amplitude = -0.2238

 Excited state  49: excitation energy (eV) =    9.3193
 Total energy for state 49:                 -3009.92643653 au
    Multiplicity: Singlet 
    Trans. Mom.:  0.0028 X   0.0012 Y  -0.1251 Z
    Strength   :     0.0035771462
    X: D(   48) --> V(    5) amplitude =  0.2767
    X: D(   48) --> V(    6) amplitude =  0.2734
    X: D(   48) --> V(    8) amplitude =  0.6519
    X: D(   48) --> V(   14) amplitude =  0.2921

 Excited state  50: excitation energy (eV) =    9.3346
 Total energy for state 50:                 -3009.92587310 au
    Multiplicity: Singlet 
    Trans. Mom.: -0.0004 X   0.0005 Y   0.0361 Z
    Strength   :     0.0002979634
    X: D(   35) --> V(    1) amplitude =  0.2344
    X: D(   37) --> V(    1) amplitude =  0.5646
    X: D(   39) --> V(    1) amplitude =  0.4806
    X: D(   42) --> V(    4) amplitude =  0.3724

 Excited state  51: excitation energy (eV) =    9.3525
 Total energy for state 51:                 -3009.92521752 au
    Multiplicity: Singlet 
    Trans. Mom.: -0.3050 X  -0.5417 Y   0.0006 Z
    Strength   :     0.0885555598
    X: D(   43) --> V(    9) amplitude = -0.2735
    X: D(   44) --> V(    3) amplitude =  0.2383
    X: D(   48) --> V(    9) amplitude =  0.3086
    X: D(   49) --> V(   12) amplitude =  0.7701

 Excited state  52: excitation energy (eV) =    9.3621
 Total energy for state 52:                 -3009.92486308 au
    Multiplicity: Singlet 
    Trans. Mom.:  0.0031 X   0.0048 Y  -0.0307 Z
    Strength   :     0.0002236254
    X: D(   45) --> V(    3) amplitude = -0.6533
    X: D(   45) --> V(    5) amplitude =  0.3287
    X: D(   45) --> V(    7) amplitude = -0.2888
    X: D(   45) --> V(    8) amplitude = -0.3607

 Excited state  53: excitation energy (eV) =    9.4363
 Total energy for state 53:                 -3009.92213786 au
    Multiplicity: Singlet 
    Trans. Mom.:  0.0025 X   0.0037 Y  -0.0163 Z
    Strength   :     0.0000661076
    X: D(   46) --> V(    9) amplitude = -0.2536
    X: D(   47) --> V(    9) amplitude =  0.8664
    X: D(   47) --> V(   12) amplitude = -0.3353

 Excited state  54: excitation energy (eV) =    9.4519
 Total energy for state 54:                 -3009.92156318 au
    Multiplicity: Singlet 
    Trans. Mom.:  0.1730 X   0.2159 Y   0.0011 Z
    Strength   :     0.0177308631
    X: D(   44) --> V(    3) amplitude = -0.5419
    X: D(   47) --> V(    7) amplitude =  0.3791
    X: D(   47) --> V(    8) amplitude =  0.4594
    X: D(   49) --> V(   12) amplitude =  0.2499

 Excited state  55: excitation energy (eV) =    9.4932
 Total energy for state 55:                 -3009.92004506 au
    Multiplicity: Singlet 
    Trans. Mom.:  0.0107 X   0.0052 Y   0.1005 Z
    Strength   :     0.0023828567
    X: D(   43) --> V(    8) amplitude = -0.3799
    X: D(   49) --> V(   14) amplitude =  0.7361
    X: D(   49) --> V(   16) amplitude =  0.2158

 Excited state  56: excitation energy (eV) =    9.4935
 Total energy for state 56:                 -3009.92003279 au
    Multiplicity: Singlet 
    Trans. Mom.: -0.3629 X  -0.1396 Y   0.0000 Z
    Strength   :     0.0351631123
    X: D(   44) --> V(    3) amplitude =  0.4227
    X: D(   44) --> V(    5) amplitude = -0.2130
    X: D(   46) --> V(    6) amplitude = -0.2327
    X: D(   47) --> V(    3) amplitude = -0.2317
    X: D(   47) --> V(    8) amplitude =  0.5032
    X: D(   47) --> V(   10) amplitude =  0.2268

 Excited state  57: excitation energy (eV) =    9.6181
 Total energy for state 57:                 -3009.91545547 au
    Multiplicity: Singlet 
    Trans. Mom.:  0.0027 X  -0.0015 Y  -0.2188 Z
    Strength   :     0.0112790909
    X: D(   37) --> V(    1) amplitude =  0.2447
    X: D(   38) --> V(    1) amplitude =  0.2765
    X: D(   42) --> V(    4) amplitude = -0.2242
    X: D(   43) --> V(    5) amplitude =  0.6027
    X: D(   49) --> V(   11) amplitude =  0.2710

 Excited state  58: excitation energy (eV) =    9.6355
 Total energy for state 58:                 -3009.91481584 au
    Multiplicity: Singlet 
    Trans. Mom.: -0.0029 X   0.0015 Y   0.2320 Z
    Strength   :     0.0127137563
    X: D(   35) --> V(    1) amplitude =  0.2353
    X: D(   37) --> V(    1) amplitude =  0.3197
    X: D(   38) --> V(    1) amplitude =  0.4449
    X: D(   39) --> V(    1) amplitude = -0.2123
    X: D(   42) --> V(    4) amplitude = -0.3885
    X: D(   43) --> V(    5) amplitude = -0.3853

 Excited state  59: excitation energy (eV) =    9.6942
 Total energy for state 59:                 -3009.91266031 au
    Multiplicity: Singlet 
    Trans. Mom.:  0.0128 X  -0.0927 Y   0.0012 Z
    Strength   :     0.0020809361
    X: D(   44) --> V(    6) amplitude = -0.2180
    X: D(   44) --> V(    7) amplitude =  0.2385
    X: D(   44) --> V(    8) amplitude =  0.2694
    X: D(   46) --> V(    6) amplitude =  0.5519
[...]
  These amplitudes account for 98.0 % of total amplitude

  Excited state 57:   9.6181 eV (singlet)
    e-/hole pair  1:  ampl =  0.7006   (49.2 %)
    e-/hole pair  2:  ampl =  0.4485   (20.2 %)
    e-/hole pair  3:  ampl =  0.4474   (20.1 %)
    e-/hole pair  4:  ampl =  0.2823   ( 8.0 %)
  These amplitudes account for 97.5 % of total amplitude

  Excited state 58:   9.6355 eV (singlet)
    e-/hole pair  1:  ampl =  0.6697   (45.3 %)
    e-/hole pair  2:  ampl =  0.4812   (23.4 %)
    e-/hole pair  3:  ampl =  0.4417   (19.7 %)
    e-/hole pair  4:  ampl =  0.2889   ( 8.4 %)
  These amplitudes account for 96.8 % of total amplitude

  Excited state 59:   9.6942 eV (singlet)
    e-/hole pair  1:  ampl =  0.8634   (74.7 %)
    e-/hole pair  2:  ampl =  0.3880   (15.1 %)
    e-/hole pair  3:  ampl =  0.2430   ( 5.9 %)
  These amplitudes account for 95.6 % of total amplitude

  Excited state 60:   9.7200 eV (singlet)
    e-/hole pair  1:  ampl =  0.8561   (73.4 %)
    e-/hole pair  2:  ampl =  0.3672   (13.5 %)
    e-/hole pair  3:  ampl =  0.2570   ( 6.6 %)
  These amplitudes account for 93.5 % of total amplitude

  Excited state 61:   9.7334 eV (singlet)
    e-/hole pair  1:  ampl =  0.8600   (74.1 %)
    e-/hole pair  2:  ampl =  0.3018   ( 9.1 %)
    e-/hole pair  3:  ampl =  0.2475   ( 6.1 %)
    e-/hole pair  4:  ampl =  0.1977   ( 3.9 %)
  These amplitudes account for 93.3 % of total amplitude

  Excited state 62:   9.7835 eV (singlet)
    e-/hole pair  1:  ampl =  0.6243   (39.8 %)
    e-/hole pair  2:  ampl =  0.5577   (31.7 %)
    e-/hole pair  3:  ampl =  0.4048   (16.7 %)
    e-/hole pair  4:  ampl =  0.2249   ( 5.2 %)
    e-/hole pair  5:  ampl =  0.1525   ( 2.4 %)
  These amplitudes account for 95.8 % of total amplitude

  Excited state 63:   9.8344 eV (singlet)
    e-/hole pair  1:  ampl =  0.7148   (51.3 %)
    e-/hole pair  2:  ampl =  0.4902   (24.1 %)
    e-/hole pair  3:  ampl =  0.2935   ( 8.7 %)
    e-/hole pair  4:  ampl =  0.2895   ( 8.4 %)
    e-/hole pair  5:  ampl =  0.1858   ( 3.5 %)
  These amplitudes account for 96.0 % of total amplitude

  Excited state 64:   9.8445 eV (singlet)
    e-/hole pair  1:  ampl =  0.6774   (46.3 %)
    e-/hole pair  2:  ampl =  0.5363   (29.0 %)
    e-/hole pair  3:  ampl =  0.3960   (15.8 %)
    e-/hole pair  4:  ampl =  0.2303   ( 5.4 %)
  These amplitudes account for 96.5 % of total amplitude

  Excited state 65:   9.8566 eV (singlet)
    e-/hole pair  1:  ampl =  0.5547   (31.0 %)
    e-/hole pair  2:  ampl =  0.5143   (26.6 %)
    e-/hole pair  3:  ampl =  0.4997   (25.1 %)
    e-/hole pair  4:  ampl =  0.3705   (13.8 %)
  These amplitudes account for 96.6 % of total amplitude

  Excited state 66:   9.8827 eV (singlet)
    e-/hole pair  1:  ampl =  0.8491   (72.2 %)
    e-/hole pair  2:  ampl =  0.4356   (19.0 %)
    e-/hole pair  3:  ampl =  0.1996   ( 4.0 %)
    e-/hole pair  4:  ampl =  0.1596   ( 2.6 %)
  These amplitudes account for 97.8 % of total amplitude

  Excited state 67:   9.9056 eV (singlet)
    e-/hole pair  1:  ampl =  0.6755   (46.2 %)
    e-/hole pair  2:  ampl =  0.4615   (21.6 %)
    e-/hole pair  3:  ampl =  0.3201   (10.4 %)
    e-/hole pair  4:  ampl =  0.3091   ( 9.7 %)
    e-/hole pair  5:  ampl =  0.2336   ( 5.5 %)
    e-/hole pair  6:  ampl =  0.2259   ( 5.2 %)
  These amplitudes account for 98.4 % of total amplitude

  Excited state 68:   9.9403 eV (singlet)
    e-/hole pair  1:  ampl =  0.5586   (31.7 %)
    e-/hole pair  2:  ampl =  0.4955   (24.9 %)
    e-/hole pair  3:  ampl =  0.4476   (20.3 %)
    e-/hole pair  4:  ampl =  0.3344   (11.4 %)
    e-/hole pair  5:  ampl =  0.2386   ( 5.8 %)
    e-/hole pair  6:  ampl =  0.1979   ( 4.0 %)
  These amplitudes account for 98.1 % of total amplitude

  Excited state 69:   9.9444 eV (singlet)
    e-/hole pair  1:  ampl =  0.7665   (58.8 %)
    e-/hole pair  2:  ampl =  0.5324   (28.4 %)
    e-/hole pair  3:  ampl =  0.2145   ( 4.6 %)
    e-/hole pair  4:  ampl =  0.1873   ( 3.5 %)
  These amplitudes account for 95.3 % of total amplitude

  Excited state 70:  10.0013 eV (singlet)
    e-/hole pair  1:  ampl =  0.7978   (63.7 %)
    e-/hole pair  2:  ampl =  0.5612   (31.5 %)
  These amplitudes account for 95.2 % of total amplitude

  Excited state 71:  10.0303 eV (singlet)
    e-/hole pair  1:  ampl =  0.9592   (92.3 %)
    e-/hole pair  2:  ampl =  0.1925   ( 3.7 %)
  These amplitudes account for 96.0 % of total amplitude

  Excited state 72:  10.1016 eV (singlet)
    e-/hole pair  1:  ampl =  0.9818   (96.4 %)
    e-/hole pair  2:  ampl =  0.1647   ( 2.7 %)
  These amplitudes account for 99.1 % of total amplitude

  Excited state 73:  10.1851 eV (singlet)
    e-/hole pair  1:  ampl =  0.8596   (73.8 %)
    e-/hole pair  2:  ampl =  0.2576   ( 6.6 %)
    e-/hole pair  3:  ampl =  0.2485   ( 6.2 %)
    e-/hole pair  4:  ampl =  0.2423   ( 5.9 %)
    e-/hole pair  5:  ampl =  0.1822   ( 3.3 %)
  These amplitudes account for 95.8 % of total amplitude

  Excited state 74:  10.1950 eV (singlet)
    e-/hole pair  1:  ampl =  0.8434   (71.7 %)
    e-/hole pair  2:  ampl =  0.3867   (15.1 %)
    e-/hole pair  3:  ampl =  0.2882   ( 8.4 %)
    e-/hole pair  4:  ampl =  0.1514   ( 2.3 %)
  These amplitudes account for 97.5 % of total amplitude

  Excited state 75:  10.2211 eV (singlet)
    e-/hole pair  1:  ampl =  0.6080   (37.2 %)
    e-/hole pair  2:  ampl =  0.5713   (32.8 %)
    e-/hole pair  3:  ampl =  0.3501   (12.3 %)
    e-/hole pair  4:  ampl =  0.2670   ( 7.2 %)
    e-/hole pair  5:  ampl =  0.2655   ( 7.1 %)
  These amplitudes account for 96.6 % of total amplitude

  Excited state 76:  10.2573 eV (singlet)
    e-/hole pair  1:  ampl =  0.7871   (62.1 %)
    e-/hole pair  2:  ampl =  0.5086   (25.9 %)
    e-/hole pair  3:  ampl =  0.1900   ( 3.6 %)
    e-/hole pair  4:  ampl =  0.1839   ( 3.4 %)
    e-/hole pair  5:  ampl =  0.1636   ( 2.7 %)
  These amplitudes account for 97.8 % of total amplitude

  Excited state 77:  10.2747 eV (singlet)
    e-/hole pair  1:  ampl =  0.6083   (37.2 %)
    e-/hole pair  2:  ampl =  0.5577   (31.2 %)
    e-/hole pair  3:  ampl =  0.3665   (13.5 %)
    e-/hole pair  4:  ampl =  0.2886   ( 8.4 %)
    e-/hole pair  5:  ampl =  0.2014   ( 4.1 %)
    e-/hole pair  6:  ampl =  0.1735   ( 3.0 %)
  These amplitudes account for 97.4 % of total amplitude

  Excited state 78:  10.3186 eV (singlet)
    e-/hole pair  1:  ampl =  0.7086   (50.0 %)
    e-/hole pair  2:  ampl =  0.3974   (15.7 %)
    e-/hole pair  3:  ampl =  0.3639   (13.2 %)
    e-/hole pair  4:  ampl =  0.2911   ( 8.4 %)
    e-/hole pair  5:  ampl =  0.2629   ( 6.9 %)
  These amplitudes account for 94.3 % of total amplitude

  Excited state 79:  10.3265 eV (singlet)
    e-/hole pair  1:  ampl =  0.6985   (48.8 %)
    e-/hole pair  2:  ampl =  0.4950   (24.5 %)
    e-/hole pair  3:  ampl =  0.4891   (23.9 %)
  These amplitudes account for 97.3 % of total amplitude

  Excited state 80:  10.3476 eV (singlet)
    e-/hole pair  1:  ampl =  0.6862   (47.1 %)
    e-/hole pair  2:  ampl =  0.5684   (32.3 %)
    e-/hole pair  3:  ampl =  0.3320   (11.0 %)
    e-/hole pair  4:  ampl =  0.1977   ( 3.9 %)
    e-/hole pair  5:  ampl =  0.1693   ( 2.9 %)
  These amplitudes account for 97.3 % of total amplitude

  Excited state 81:  10.3509 eV (singlet)
    e-/hole pair  1:  ampl =  0.8663   (75.0 %)
    e-/hole pair  2:  ampl =  0.4006   (16.0 %)
    e-/hole pair  3:  ampl =  0.2777   ( 7.7 %)
  These amplitudes account for 98.8 % of total amplitude

  Excited state 82:  10.3600 eV (singlet)
    e-/hole pair  1:  ampl =  0.6248   (39.0 %)
    e-/hole pair  2:  ampl =  0.4671   (21.8 %)
    e-/hole pair  3:  ampl =  0.3651   (13.3 %)
    e-/hole pair  4:  ampl =  0.3171   (10.1 %)
    e-/hole pair  5:  ampl =  0.2900   ( 8.4 %)
    e-/hole pair  6:  ampl =  0.1578   ( 2.5 %)
  These amplitudes account for 95.2 % of total amplitude

  Excited state 83:  10.3994 eV (singlet)
    e-/hole pair  1:  ampl =  0.6939   (48.2 %)
    e-/hole pair  2:  ampl =  0.4149   (17.2 %)
    e-/hole pair  3:  ampl =  0.4004   (16.0 %)
    e-/hole pair  4:  ampl =  0.2972   ( 8.8 %)
    e-/hole pair  5:  ampl =  0.2041   ( 4.2 %)
    e-/hole pair  6:  ampl =  0.1582   ( 2.5 %)
    e-/hole pair  7:  ampl =  0.1551   ( 2.4 %)
  These amplitudes account for 99.3 % of total amplitude

  Excited state 84:  10.4033 eV (singlet)
    e-/hole pair  1:  ampl =  0.8477   (72.1 %)
    e-/hole pair  2:  ampl =  0.3923   (15.4 %)
    e-/hole pair  3:  ampl =  0.2184   ( 4.8 %)
    e-/hole pair  4:  ampl =  0.2171   ( 4.7 %)
  These amplitudes account for 97.1 % of total amplitude

  Excited state 85:  10.4285 eV (singlet)
    e-/hole pair  1:  ampl =  0.6864   (47.2 %)
    e-/hole pair  2:  ampl =  0.4187   (17.6 %)
    e-/hole pair  3:  ampl =  0.3491   (12.2 %)
    e-/hole pair  4:  ampl =  0.3420   (11.7 %)
    e-/hole pair  5:  ampl =  0.2688   ( 7.2 %)
  These amplitudes account for 96.0 % of total amplitude

  Excited state 86:  10.4816 eV (singlet)
    e-/hole pair  1:  ampl =  0.7270   (53.8 %)
    e-/hole pair  2:  ampl =  0.5293   (28.5 %)
    e-/hole pair  3:  ampl =  0.2636   ( 7.1 %)
    e-/hole pair  4:  ampl =  0.2019   ( 4.1 %)
    e-/hole pair  5:  ampl =  0.1676   ( 2.9 %)
  These amplitudes account for 96.4 % of total amplitude

  Excited state 87:  10.4837 eV (singlet)
    e-/hole pair  1:  ampl =  0.8767   (77.0 %)
    e-/hole pair  2:  ampl =  0.2695   ( 7.3 %)
    e-/hole pair  3:  ampl =  0.2343   ( 5.5 %)
    e-/hole pair  4:  ampl =  0.1901   ( 3.6 %)
    e-/hole pair  5:  ampl =  0.1768   ( 3.1 %)
  These amplitudes account for 96.5 % of total amplitude

  Excited state 88:  10.5122 eV (singlet)
    e-/hole pair  1:  ampl =  0.7790   (60.7 %)
    e-/hole pair  2:  ampl =  0.4930   (24.3 %)
    e-/hole pair  3:  ampl =  0.2132   ( 4.5 %)
    e-/hole pair  4:  ampl =  0.1933   ( 3.7 %)
    e-/hole pair  5:  ampl =  0.1791   ( 3.2 %)
  These amplitudes account for 96.5 % of total amplitude

  Excited state 89:  10.5216 eV (singlet)
    e-/hole pair  1:  ampl =  0.8834   (78.0 %)
    e-/hole pair  2:  ampl =  0.3102   ( 9.6 %)
    e-/hole pair  3:  ampl =  0.2265   ( 5.1 %)
  These amplitudes account for 92.8 % of total amplitude

  Excited state 90:  10.5262 eV (singlet)
    e-/hole pair  1:  ampl =  0.8939   (80.0 %)
    e-/hole pair  2:  ampl =  0.2861   ( 8.2 %)
    e-/hole pair  3:  ampl =  0.1753   ( 3.1 %)
    e-/hole pair  4:  ampl =  0.1677   ( 2.8 %)
    e-/hole pair  5:  ampl =  0.1594   ( 2.5 %)
  These amplitudes account for 96.7 % of total amplitude

  Excited state 91:  10.5715 eV (singlet)
    e-/hole pair  1:  ampl =  0.6324   (40.5 %)
    e-/hole pair  2:  ampl =  0.5591   (31.7 %)
    e-/hole pair  3:  ampl =  0.3301   (11.0 %)
    e-/hole pair  4:  ampl =  0.2687   ( 7.3 %)
    e-/hole pair  5:  ampl =  0.1851   ( 3.5 %)
  These amplitudes account for 94.1 % of total amplitude

  Excited state 92:  10.5764 eV (singlet)
    e-/hole pair  1:  ampl =  0.7626   (58.3 %)
    e-/hole pair  2:  ampl =  0.4494   (20.2 %)
    e-/hole pair  3:  ampl =  0.2951   ( 8.7 %)
    e-/hole pair  4:  ampl =  0.2830   ( 8.0 %)
    e-/hole pair  5:  ampl =  0.1674   ( 2.8 %)
  These amplitudes account for 98.0 % of total amplitude

  Excited state 93:  10.6171 eV (singlet)
    e-/hole pair  1:  ampl =  0.5995   (36.4 %)
    e-/hole pair  2:  ampl =  0.4903   (24.4 %)
    e-/hole pair  3:  ampl =  0.3679   (13.7 %)
    e-/hole pair  4:  ampl =  0.3066   ( 9.5 %)
    e-/hole pair  5:  ampl =  0.2382   ( 5.7 %)
    e-/hole pair  6:  ampl =  0.2097   ( 4.5 %)
    e-/hole pair  7:  ampl =  0.1590   ( 2.6 %)
  These amplitudes account for 96.8 % of total amplitude

  Excited state 94:  10.6399 eV (singlet)
    e-/hole pair  1:  ampl =  0.6992   (49.2 %)
    e-/hole pair  2:  ampl =  0.4923   (24.4 %)
    e-/hole pair  3:  ampl =  0.2754   ( 7.6 %)
    e-/hole pair  4:  ampl =  0.2429   ( 5.9 %)
    e-/hole pair  5:  ampl =  0.2223   ( 5.0 %)
  These amplitudes account for 92.2 % of total amplitude

  Excited state 95:  10.7174 eV (singlet)
    e-/hole pair  1:  ampl =  0.8919   (79.8 %)
    e-/hole pair  2:  ampl =  0.3462   (12.0 %)
  These amplitudes account for 91.8 % of total amplitude

  Excited state 96:  10.7419 eV (singlet)
    e-/hole pair  1:  ampl =  0.5833   (34.2 %)
    e-/hole pair  2:  ampl =  0.5216   (27.3 %)
    e-/hole pair  3:  ampl =  0.4919   (24.3 %)
    e-/hole pair  4:  ampl =  0.2596   ( 6.8 %)
    e-/hole pair  5:  ampl =  0.1776   ( 3.2 %)
    e-/hole pair  6:  ampl =  0.1510   ( 2.3 %)
  These amplitudes account for 98.1 % of total amplitude

  Excited state 97:  10.7962 eV (singlet)
    e-/hole pair  1:  ampl =  0.7516   (57.0 %)
    e-/hole pair  2:  ampl =  0.3909   (15.4 %)
    e-/hole pair  3:  ampl =  0.3614   (13.2 %)
    e-/hole pair  4:  ampl =  0.2116   ( 4.5 %)
    e-/hole pair  5:  ampl =  0.2043   ( 4.2 %)
    e-/hole pair  6:  ampl =  0.1503   ( 2.3 %)
  These amplitudes account for 96.6 % of total amplitude

  Excited state 98:  10.8249 eV (singlet)
    e-/hole pair  1:  ampl =  0.9741   (94.8 %)
    e-/hole pair  2:  ampl =  0.1896   ( 3.6 %)
  These amplitudes account for 98.4 % of total amplitude

  Excited state 99:  10.8471 eV (singlet)
    e-/hole pair  1:  ampl =  0.7331   (53.8 %)
    e-/hole pair  2:  ampl =  0.4737   (22.5 %)
    e-/hole pair  3:  ampl =  0.4135   (17.1 %)
    e-/hole pair  4:  ampl =  0.1637   ( 2.7 %)
  These amplitudes account for 96.0 % of total amplitude

  Excited state 100:  10.8609 eV (singlet)
    e-/hole pair  1:  ampl =  0.9410   (88.7 %)
    e-/hole pair  2:  ampl =  0.2132   ( 4.6 %)
    e-/hole pair  3:  ampl =  0.1877   ( 3.5 %)
  These amplitudes account for 96.8 % of total amplitude

 =======================================================
 
 --------------------------------------------------------------
 
                    Orbital Energies (a.u.)
 --------------------------------------------------------------
 
 Alpha MOs
 -- Occupied --
******** -62.6774 -56.4733 -56.4693 -56.4692 -19.3009 -19.3008 -14.6947
-10.3840 -10.3801 -10.3433 -10.3413 -10.3394 -10.3371  -8.8355  -6.6592
 -6.6454  -6.6452  -2.7591  -2.7552  -2.7551  -2.7440  -2.7440  -1.3365
 -1.1635  -1.0275  -0.9523  -0.9211  -0.8661  -0.8279  -0.7458  -0.7082
 -0.6707  -0.6384  -0.6265  -0.6247  -0.5892  -0.5704  -0.5424  -0.5154
 -0.5000  -0.4721  -0.4284  -0.4183  -0.4105  -0.3995  -0.3940  -0.3820
 -0.3534
 -- Virtual --
 -0.0539   0.0116   0.0335   0.0415   0.0500   0.0684   0.0752   0.0917
  0.0944   0.0988   0.1155   0.1223   0.1256   0.1297   0.1366   0.1525
  0.1613   0.1720   0.1767   0.1813   0.1821   0.1843   0.1974   0.2034
  0.2093   0.2177   0.2260   0.2271   0.2296   0.2368   0.2391   0.2561
  0.2600   0.2640   0.2714   0.2736   0.2830   0.2903   0.2997   0.3122
  0.3189   0.3230   0.3235   0.3305   0.3431   0.3562   0.3591   0.3714
  0.3861   0.3995   0.4118   0.4379   0.4600   0.4615   0.4911   0.4948
  0.5084   0.5186   0.5308   0.5525   0.5746   0.5812   0.5883   0.5923
  0.6060   0.6155   0.6361   0.6371   0.6423   0.6547   0.6729   0.6737
  0.7008   0.7190   0.7244   0.7493   0.7649   0.7690   0.7787   0.7816
  0.8027   0.8389   0.8779   0.8808   0.8934   0.9067   0.9276   0.9341
  0.9519   0.9676   0.9861   1.0084   1.0390   1.0514   1.0560   1.1068
  1.1112   1.1292   1.1346   1.1798   1.2140   1.2394   1.2508   1.2514
  1.2662   1.2898   1.2954   1.3238   1.3318   1.3797   1.4150   1.4740
  1.5648   1.5767   1.6063   1.6126   1.7421   1.7511   1.7635   1.7888
  1.8271   1.8356   1.8796   1.8887   1.9359   1.9553   1.9600   1.9797
  2.0366   2.0599   2.0895   2.1095   2.1689   2.1972   2.2230   2.2593
  2.3130   2.3272   2.3745   2.3811   2.4138   2.4466   2.4645   2.5624
  2.6246   2.7014   2.7280   2.7635   2.8130   2.8285   2.8679   2.8799
  2.8941   2.9412   2.9439   2.9501   2.9697   3.1238   3.1529   3.1716
  3.2443   3.3140   3.3217   3.3645   3.3824   3.3973   3.4041   3.4688
  3.5656   3.6687   3.6978   3.7187   3.7448   3.8470   3.8939   4.0446
  4.0762   4.1055   4.1632   4.1770   4.3324   4.4998   4.5933   4.7678
  4.8372   5.0776   5.1072   5.1949   5.2418   5.7876   6.2961   6.8304
  7.6518   7.7610   7.8282  23.4068  23.9309  23.9525  24.1216  24.1363
 24.2332  35.4788  48.0942  50.0117  50.1014 289.9877 290.0984 290.1917
********
 --------------------------------------------------------------
 
          Ground-State Mulliken Net Atomic Charges

     Atom                 Charge (a.u.)
  ----------------------------------------
      1 C                    -0.375893
      2 C                     0.079629
      3 C                    -0.439878
      4 C                    -0.172897
      5 C                    -0.499592
      6 H                     0.269594
      7 H                     0.293920
      8 H                     0.316819
      9 H                     0.284893
     10 N                    -0.157928
     11 O                    -0.016982
     12 O                    -0.020215
     13 C                     0.627529
     14 Br                   -0.188999
  ----------------------------------------
  Sum of atomic charges =     0.000000

 -----------------------------------------------------------------
                    Cartesian Multipole Moments
 -----------------------------------------------------------------
    Charge (ESU x 10^10)
                -0.0000
    Dipole Moment (Debye)
         X      -4.1702      Y       1.4192      Z      -0.0551
       Tot       4.4054
    Quadrupole Moments (Debye-Ang)
        XX     -96.1482     XY      -0.1139     YY     -67.0895
        XZ      -0.0574     YZ      -0.1007     ZZ     -70.9094
    Octopole Moments (Debye-Ang^2)
       XXX    -533.5748    XXY      44.3216    XYY    -127.1123
       YYY     143.7724    XXZ       1.4826    XYZ       0.0408
       YYZ       1.8066    XZZ    -117.5897    YZZ      47.4471
       ZZZ       6.3597
    Hexadecapole Moments (Debye-Ang^3)
      XXXX   -3842.0057   XXXY     -62.6258   XXYY    -719.0079
      XYYY     -30.6076   YYYY   -1170.0941   XXXZ       1.8496
      XXYZ      -0.9189   XYYZ       1.2355   YYYZ      -4.6350
      XXZZ    -472.4498   XYZZ     -19.3466   YYZZ    -228.1456
      XZZZ       4.2223   YZZZ      -4.0407   ZZZZ     -77.1770
 -----------------------------------------------------------------
Grid information in Angstroms:
 x:         75  min =  -4.055541 max =   7.853130
 y:         75  min =  -5.778541 max =   5.222572
 z:         75  min =  -3.065135 max =   3.007837
 Plotting NTOs for the following states:  1 2 3 4 5 6 7 8 9 10 11 12 13 14 15 16 17 18 19 20 21 22 23 24 25 26 27 28 29 30 31 32 33 34 35 36 37 38 39 40 41 42 43 44 45 46 47 48 49 50 51 52 53 54 55 56 57 58 59 60 61 62 63 64 65 66 67 68 69 70 71 72 73 74 75 76 77 78 79 80 81 82 83 84 85 86 87 88 89 90 91 92 93 94 95 96 97 98 99 100
 Created directory /local_scratch/16807771/QCLOCALSCR/save/plots
 Plotting total densities:  0 1 2 3 4 5 6 7 8 9 10 11 12 13 14 15 16 17 18 19 20 21 22 23 24 25 26 27 28 29 30 31 32 33 34 35 36 37 38 39 40 41 42 43 44 45 46 47 48 49 50 51 52 53 54 55 56 57 58 59 60 61 62 63 64 65 66 67 68 69 70 71 72 73 74 75 76 77 78 79 80 81 82 83 84 85 86 87 88 89 90 91 92 93 94 95 96 97 98 99 100
 Plotting transition densities:  1 2 3 4 5 6 7 8 9 10 11 12 13 14 15 16 17 18 19 20 21 22 23 24 25 26 27 28 29 30 31 32 33 34 35 36 37 38 39 40 41 42 43 44 45 46 47 48 49 50 51 52 53 54 55 56 57 58 59 60 61 62 63 64 65 66 67 68 69 70 71 72 73 74 75 76 77 78 79 80 81 82 83 84 85 86 87 88 89 90 91 92 93 94 95 96 97 98 99 100
 Total job time:  1285.29s(wall), 12966.99s(cpu) 
 Mon May 22 12:55:17 2023

        *************************************************************
        *                                                           *
        *  Thank you very much for using Q-Chem.  Have a nice day.  *
        *                                                           *
        *************************************************************


