 Entering Gaussian System, Link 0=g16
 Initial command:
 /software/gaussian/g16-c01/sse4/g16/l1.exe "/local_scratch/24665296/Gau-28757.inp" -scrdir="/local_scratch/24665296/"
 Entering Link 1 = /software/gaussian/g16-c01/sse4/g16/l1.exe PID=     28767.
  
 Copyright (c) 1988-2019, Gaussian, Inc.  All Rights Reserved.
  
 This is part of the Gaussian(R) 16 program.  It is based on
 the Gaussian(R) 09 system (copyright 2009, Gaussian, Inc.),
 the Gaussian(R) 03 system (copyright 2003, Gaussian, Inc.),
 the Gaussian(R) 98 system (copyright 1998, Gaussian, Inc.),
 the Gaussian(R) 94 system (copyright 1995, Gaussian, Inc.),
 the Gaussian 92(TM) system (copyright 1992, Gaussian, Inc.),
 the Gaussian 90(TM) system (copyright 1990, Gaussian, Inc.),
 the Gaussian 88(TM) system (copyright 1988, Gaussian, Inc.),
 the Gaussian 86(TM) system (copyright 1986, Carnegie Mellon
 University), and the Gaussian 82(TM) system (copyright 1983,
 Carnegie Mellon University). Gaussian is a federally registered
 trademark of Gaussian, Inc.
  
 This software contains proprietary and confidential information,
 including trade secrets, belonging to Gaussian, Inc.
  
 This software is provided under written license and may be
 used, copied, transmitted, or stored only in accord with that
 written license.
  
 The following legend is applicable only to US Government
 contracts under FAR:
  
                    RESTRICTED RIGHTS LEGEND
  
 Use, reproduction and disclosure by the US Government is
 subject to restrictions as set forth in subparagraphs (a)
 and (c) of the Commercial Computer Software - Restricted
 Rights clause in FAR 52.227-19.
  
 Gaussian, Inc.
 340 Quinnipiac St., Bldg. 40, Wallingford CT 06492
  
  
 ---------------------------------------------------------------
 Warning -- This program may not be used in any manner that
 competes with the business of Gaussian, Inc. or will provide
 assistance to any competitor of Gaussian, Inc.  The licensee
 of this program is prohibited from giving any competitor of
 Gaussian, Inc. access to this program.  By using this program,
 the user acknowledges that Gaussian, Inc. is engaged in the
 business of creating and licensing software in the field of
 computational chemistry and represents and warrants to the
 licensee that it is not a competitor of Gaussian, Inc. and that
 it will not use this program in any manner prohibited above.
 ---------------------------------------------------------------
  

 Cite this work as:
 Gaussian 16, Revision C.01,
 M. J. Frisch, G. W. Trucks, H. B. Schlegel, G. E. Scuseria, 
 M. A. Robb, J. R. Cheeseman, G. Scalmani, V. Barone, 
 G. A. Petersson, H. Nakatsuji, X. Li, M. Caricato, A. V. Marenich, 
 J. Bloino, B. G. Janesko, R. Gomperts, B. Mennucci, H. P. Hratchian, 
 J. V. Ortiz, A. F. Izmaylov, J. L. Sonnenberg, D. Williams-Young, 
 F. Ding, F. Lipparini, F. Egidi, J. Goings, B. Peng, A. Petrone, 
 T. Henderson, D. Ranasinghe, V. G. Zakrzewski, J. Gao, N. Rega, 
 G. Zheng, W. Liang, M. Hada, M. Ehara, K. Toyota, R. Fukuda, 
 J. Hasegawa, M. Ishida, T. Nakajima, Y. Honda, O. Kitao, H. Nakai, 
 T. Vreven, K. Throssell, J. A. Montgomery, Jr., J. E. Peralta, 
 F. Ogliaro, M. J. Bearpark, J. J. Heyd, E. N. Brothers, K. N. Kudin, 
 V. N. Staroverov, T. A. Keith, R. Kobayashi, J. Normand, 
 K. Raghavachari, A. P. Rendell, J. C. Burant, S. S. Iyengar, 
 J. Tomasi, M. Cossi, J. M. Millam, M. Klene, C. Adamo, R. Cammi, 
 J. W. Ochterski, R. L. Martin, K. Morokuma, O. Farkas, 
 J. B. Foresman, and D. J. Fox, Gaussian, Inc., Wallingford CT, 2019.
 
 ******************************************
 Gaussian 16:  ES64L-G16RevC.01  3-Jul-2019
                 2-May-2024 
 ******************************************
 %chk=geometry.chk
 %mem=1GB
 %nprocshared=12
 Will use up to   12 processors via shared memory.
 ----------------------------------------
 #P wB97XD/6-311+G* NoSymm #P Field=Y-262
 ----------------------------------------
 1/38=1,172=1/1;
 2/12=2,15=1,17=6,18=5,40=1/2;
 3/5=4,6=6,7=11,11=2,14=2,15=-262,25=1,30=1,74=-58/1,2,3;
 4//1;
 5/5=2,38=5/2;
 6/7=2,8=2,9=2,10=2,28=1/1;
 99/5=1,9=1/99;
 Leave Link    1 at Thu May  2 13:57:37 2024, MaxMem=   134217728 cpu:               1.2 elap:               1.2
 (Enter /software/gaussian/g16-c01/sse4/g16/l101.exe)
 -------
 TitleMe
 -------
 Symbolic Z-matrix:
 Charge =  1 Multiplicity = 1
 C                     0.5193    1.233    -0.0319 
 C                     1.9445    1.2692   -0.0367 
 C                     2.6204    0.0928   -0.025 
 C                    -0.196     0.0301    0.001 
 H                    -0.0207    2.1742   -0.0434 
 H                     2.4828    2.2089   -0.0361 
 H                    -1.2777    0.0399    0.0117 
 N                     4.0921    0.0959    0.0366 
 O                     4.6393   -1.0217    0.1446 
 O                     4.6649    1.1984   -0.0233 
 C                     0.4943   -1.1671    0.021 
 H                    -0.0325   -2.1149    0.0545 
 C                     1.9629   -1.2165   -0.0211 
 H                     2.4436   -1.9631    0.6151 
 Br                    2.173    -1.9491   -1.9062 
 
 ITRead=  0  0  0  0  0  0  0  0  0  0  0  0  0  0  0
 MicOpt= -1 -1 -1 -1 -1 -1 -1 -1 -1 -1 -1 -1 -1 -1 -1
 NAtoms=     15 NQM=       15 NQMF=       0 NMMI=      0 NMMIF=      0
                NMic=       0 NMicF=      0.
                    Isotopes and Nuclear Properties:
 (Nuclear quadrupole moments (NQMom) in fm**2, nuclear magnetic moments (NMagM)
  in nuclear magnetons)

  Atom         1           2           3           4           5           6           7           8           9          10
 IAtWgt=          12          12          12          12           1           1           1          14          16          16
 AtmWgt=  12.0000000  12.0000000  12.0000000  12.0000000   1.0078250   1.0078250   1.0078250  14.0030740  15.9949146  15.9949146
 NucSpn=           0           0           0           0           1           1           1           2           0           0
 AtZEff=  -0.0000000  -0.0000000  -0.0000000  -0.0000000  -0.0000000  -0.0000000  -0.0000000  -0.0000000  -0.0000000  -0.0000000
 NQMom=    0.0000000   0.0000000   0.0000000   0.0000000   0.0000000   0.0000000   0.0000000   2.0440000   0.0000000   0.0000000
 NMagM=    0.0000000   0.0000000   0.0000000   0.0000000   2.7928460   2.7928460   2.7928460   0.4037610   0.0000000   0.0000000
 AtZNuc=   6.0000000   6.0000000   6.0000000   6.0000000   1.0000000   1.0000000   1.0000000   7.0000000   8.0000000   8.0000000

  Atom        11          12          13          14          15
 IAtWgt=          12           1          12           1          79
 AtmWgt=  12.0000000   1.0078250  12.0000000   1.0078250  78.9183361
 NucSpn=           0           1           0           1           3
 AtZEff=  -0.0000000  -0.0000000  -0.0000000  -0.0000000  -0.0000000
 NQMom=    0.0000000   0.0000000   0.0000000   0.0000000  31.3000000
 NMagM=    0.0000000   2.7928460   0.0000000   2.7928460   2.1063990
 AtZNuc=   6.0000000   1.0000000   6.0000000   1.0000000  35.0000000
 Leave Link  101 at Thu May  2 13:57:39 2024, MaxMem=   134217728 cpu:               1.6 elap:               1.6
 (Enter /software/gaussian/g16-c01/sse4/g16/l202.exe)
                          Input orientation:                          
 ---------------------------------------------------------------------
 Center     Atomic      Atomic             Coordinates (Angstroms)
 Number     Number       Type             X           Y           Z
 ---------------------------------------------------------------------
      1          6           0        0.519300    1.233000   -0.031900
      2          6           0        1.944500    1.269200   -0.036700
      3          6           0        2.620400    0.092800   -0.025000
      4          6           0       -0.196000    0.030100    0.001000
      5          1           0       -0.020700    2.174200   -0.043400
      6          1           0        2.482800    2.208900   -0.036100
      7          1           0       -1.277700    0.039900    0.011700
      8          7           0        4.092100    0.095900    0.036600
      9          8           0        4.639300   -1.021700    0.144600
     10          8           0        4.664900    1.198400   -0.023300
     11          6           0        0.494300   -1.167100    0.021000
     12          1           0       -0.032500   -2.114900    0.054500
     13          6           0        1.962900   -1.216500   -0.021100
     14          1           0        2.443600   -1.963100    0.615100
     15         35           0        2.173000   -1.949100   -1.906200
 ---------------------------------------------------------------------
                    Distance matrix (angstroms):
                    1          2          3          4          5
     1  C    0.000000
     2  C    1.425668   0.000000
     3  C    2.390549   1.356796   0.000000
     4  C    1.399895   2.473566   2.817218   0.000000
     5  H    1.085168   2.163581   3.362733   2.151712   0.000000
     6  H    2.192654   1.082960   2.120598   3.453189   2.503751
     7  H    2.157452   3.449071   3.898632   1.081797   2.477564
     8  N    3.750012   2.448304   1.472992   4.288753   4.608780
     9  O    4.699917   3.541615   2.312322   4.950458   5.653735
    10  O    4.145753   2.721354   2.324292   4.999386   4.786171
    11  C    2.400813   2.835836   2.471794   1.382101   3.381369
    12  H    3.394169   3.920329   3.452266   2.151887   4.290233
    13  C    2.843264   2.485817   1.465124   2.493060   3.928360
    14  H    3.786370   3.334922   2.160489   3.364142   4.860416
    15  Br   4.046416   3.728900   2.812194   3.628609   5.028314
                    6          7          8          9         10
     6  H    0.000000
     7  H    4.341452   0.000000
     8  N    2.657047   5.370150   0.000000
     9  O    3.888434   6.012948   1.249048   0.000000
    10  O    2.404752   6.054572   1.243863   2.226587   0.000000
    11  C    3.918516   2.144043   3.813080   4.149391   4.794941
    12  H    5.003018   2.489080   4.679774   4.798846   5.748876
    13  C    3.464662   3.475788   2.501842   2.688591   3.623886
    14  H    4.222698   4.268978   2.700314   2.434893   3.916224
    15  Br   4.569706   4.420610   3.411663   3.338935   4.434144
                   11         12         13         14         15
    11  C    0.000000
    12  H    1.084880   0.000000
    13  C    1.470034   2.189625   0.000000
    14  H    2.187771   2.543302   1.092353   0.000000
    15  Br   2.672762   2.955683   2.033334   2.535818   0.000000
 Symmetry turned off by external request.
 Stoichiometry    C6H5BrNO2(1+)
 Framework group  C1[X(C6H5BrNO2)]
 Deg. of freedom    39
 Full point group                 C1      NOp   1
 Rotational constants (GHZ):           1.1632986           0.9594224           0.5957624
 Leave Link  202 at Thu May  2 13:57:40 2024, MaxMem=   134217728 cpu:               1.2 elap:               1.2
 (Enter /software/gaussian/g16-c01/sse4/g16/l301.exe)
 Standard basis: 6-311+G(d) (5D, 7F)
 Ernie: Thresh=  0.10000D-02 Tol=  0.10000D-05 Strict=F.
 The following finite field(s) will be applied:
 An electric field of              0.0000 -0.0262  0.0000
   261 basis functions,   443 primitive gaussians,   273 cartesian basis functions
    49 alpha electrons       49 beta electrons
       nuclear repulsion energy       772.8945969580 Hartrees.
 IExCor= 4639 DFT=T Ex+Corr=wB97XD ExCW=0 ScaHFX=  1.000000
 ScaDFX=  1.000000  1.000000  1.000000  1.000000 ScalE2=  1.000000  1.000000
 IRadAn=      5 IRanWt=     -1 IRanGd=            0 ICorTp=0 IEmpDi=121
 HFx  wShort=  0.000000 wLong=  0.200000 cFull=  0.222036 cShort=  0.000000 cLong=  0.777964
 DFx  wShort=  0.000000 wLong=  0.200000 cFull=  0.000000 cShort=  0.000000 cLong=  1.000000
 NAtoms=   15 NActive=   15 NUniq=   15 SFac= 1.00D+00 NAtFMM=   60 NAOKFM=F Big=F
 Integral buffers will be    131072 words long.
 Raffenetti 2 integral format.
 Two-electron integral symmetry is turned off.
 R6Disp:  Grimme-D2 Dispersion energy=       -0.0080346408 Hartrees.
 Nuclear repulsion after empirical dispersion term =      772.8865623173 Hartrees.
 Leave Link  301 at Thu May  2 13:57:41 2024, MaxMem=   134217728 cpu:               1.0 elap:               1.0
 (Enter /software/gaussian/g16-c01/sse4/g16/l302.exe)
 NPDir=0 NMtPBC=     1 NCelOv=     1 NCel=       1 NClECP=     1 NCelD=      1
         NCelK=      1 NCelE2=     1 NClLst=     1 CellRange=     0.0.
 One-electron integrals computed using PRISM.
 NBasis=   261 RedAO= T EigKep=  2.52D-06  NBF=   261
 NBsUse=   261 1.00D-06 EigRej= -1.00D+00 NBFU=   261
 Precomputing XC quadrature grid using
 IXCGrd= 4 IRadAn=           5 IRanWt=          -1 IRanGd=           0 AccXCQ= 0.00D+00.
 Generated NRdTot=       0 NPtTot=           0 NUsed=           0 NTot=          32
 NSgBfM=   273   273   273   273   273 MxSgAt=    15 MxSgA2=    15.
 Leave Link  302 at Thu May  2 13:58:04 2024, MaxMem=   134217728 cpu:              22.3 elap:              22.3
 (Enter /software/gaussian/g16-c01/sse4/g16/l303.exe)
 DipDrv:  MaxL=1.
 The nuclear repulsion energy is now       776.0720689589 hartrees.
 Leave Link  303 at Thu May  2 13:58:07 2024, MaxMem=   134217728 cpu:               3.4 elap:               3.4
 (Enter /software/gaussian/g16-c01/sse4/g16/l401.exe)
 ExpMin= 3.50D-02 ExpMax= 4.40D+05 ExpMxC= 1.51D+04 IAcc=3 IRadAn=         5 AccDes= 0.00D+00
 Harris functional with IExCor= 4639 and IRadAn=       5 diagonalized for initial guess.
 HarFok:  IExCor= 4639 AccDes= 0.00D+00 IRadAn=         5 IDoV= 1 UseB2=F ITyADJ=14
 ICtDFT=  3500011 ScaDFX=  1.000000  1.000000  1.000000  1.000000
 FoFCou: FMM=F IPFlag=           0 FMFlag=      100000 FMFlg1=           0
         NFxFlg=           0 DoJE=T BraDBF=F KetDBF=T FulRan=T
         wScrn=  0.000000 ICntrl=       500 IOpCl=  0 I1Cent=   200000004 NGrid=           0
         NMat0=    1 NMatS0=      1 NMatT0=    0 NMatD0=    1 NMtDS0=    0 NMtDT0=    0
 Symmetry not used in FoFCou.
 Harris En= -2970.85862103879    
 JPrj=0 DoOrth=F DoCkMO=F.
 Leave Link  401 at Thu May  2 13:58:38 2024, MaxMem=   134217728 cpu:              31.3 elap:              31.3
 (Enter /software/gaussian/g16-c01/sse4/g16/l502.exe)
 Two-electron integral symmetry not used.
 Closed shell SCF:
 Using DIIS extrapolation, IDIIS=  1040.
 NGot=   134217728 LenX=   134063053 LenY=   133988083
 Requested convergence on RMS density matrix=1.00D-08 within 128 cycles.
 Requested convergence on MAX density matrix=1.00D-06.
 Requested convergence on             energy=1.00D-06.
 No special actions if energy rises.
 Fock matrices will be formed incrementally for  20 cycles.

 Cycle   1  Pass 1  IDiag  1:
 FoFJK:  IHMeth= 1 ICntrl=       0 DoSepK=T KAlg= 0 I1Cent=           0 FoldK=F
 IRaf=         1 NMat=       1 IRICut=       1 DoRegI=T DoRafI=F ISym2E= 0 IDoP0=0 IntGTp=1.
 FoFCou: FMM=F IPFlag=           0 FMFlag=      100000 FMFlg1=           0
         NFxFlg=           0 DoJE=T BraDBF=F KetDBF=F FulRan=T
         wScrn=  0.000000 ICntrl=       500 IOpCl=  0 I1Cent=           0 NGrid=           0
         NMat0=    1 NMatS0=      1 NMatT0=    0 NMatD0=    1 NMtDS0=    0 NMtDT0=    0
 Symmetry not used in FoFCou.
 E= -3006.89380839860    
 DIIS: error= 2.91D-01 at cycle   1 NSaved=   1.
 NSaved= 1 IEnMin= 1 EnMin= -3006.89380839860     IErMin= 1 ErrMin= 2.91D-01
 ErrMax= 2.91D-01  0.00D+00 EMaxC= 1.00D-01 BMatC= 1.34D+01 BMatP= 1.34D+01
 IDIUse=3 WtCom= 0.00D+00 WtEn= 1.00D+00
 Coeff-Com:  0.100D+01
 Coeff-En:   0.100D+01
 Coeff:      0.100D+01
 Gap=     0.597 Goal=   None    Shift=    0.000
 GapD=    0.597 DampG=2.000 DampE=0.250 DampFc=0.5000 IDamp=-1.
 Damping current iteration by 5.00D-01
 RMSDP=2.25D+00 MaxDP=2.95D+02              OVMax= 7.19D-01

 Cycle   2  Pass 1  IDiag  1:
 RMSU=  6.15D-02    CP:  5.11D-01
 E= -3005.56259770377     Delta-E=        1.331210694834 Rises=F Damp=T
 DIIS: error= 1.46D-01 at cycle   2 NSaved=   2.
 NSaved= 2 IEnMin= 1 EnMin= -3006.89380839860     IErMin= 2 ErrMin= 1.46D-01
 ErrMax= 1.46D-01  0.00D+00 EMaxC= 1.00D-01 BMatC= 3.39D+00 BMatP= 1.34D+01
 IDIUse=3 WtCom= 0.00D+00 WtEn= 1.00D+00
 Coeff-Com: -0.114D-01 0.101D+01
 Coeff-En:   0.597D+00 0.403D+00
 Coeff:      0.597D+00 0.403D+00
 Gap=     0.075 Goal=   None    Shift=    0.000
 RMSDP=1.13D+00 MaxDP=1.51D+02 DE= 1.33D+00 OVMax= 9.65D-01

 Cycle   3  Pass 1  IDiag  1:
 RMSU=  2.99D-02    CP:  1.63D-02  9.99D-01
 E= -3009.06741859919     Delta-E=       -3.504820895420 Rises=F Damp=F
 DIIS: error= 1.08D-01 at cycle   3 NSaved=   3.
 NSaved= 3 IEnMin= 3 EnMin= -3009.06741859919     IErMin= 3 ErrMin= 1.08D-01
 ErrMax= 1.08D-01  0.00D+00 EMaxC= 1.00D-01 BMatC= 2.83D+00 BMatP= 3.39D+00
 IDIUse=3 WtCom= 0.00D+00 WtEn= 1.00D+00
 Coeff-Com:  0.197D+00 0.165D+00 0.638D+00
 Coeff-En:   0.301D+00 0.000D+00 0.699D+00
 Coeff:      0.301D+00 0.000D+00 0.699D+00
 Gap=     0.177 Goal=   None    Shift=    0.000
 RMSDP=9.95D-02 MaxDP=1.32D+01 DE=-3.50D+00 OVMax= 4.52D-01

 Cycle   4  Pass 1  IDiag  1:
 RMSU=  9.06D-02    CP:  2.65D-02  1.39D+00  1.78D+00
 E= -3009.28776718829     Delta-E=       -0.220348589102 Rises=F Damp=F
 DIIS: error= 1.24D-01 at cycle   4 NSaved=   4.
 NSaved= 4 IEnMin= 4 EnMin= -3009.28776718829     IErMin= 3 ErrMin= 1.08D-01
 ErrMax= 1.24D-01  0.00D+00 EMaxC= 1.00D-01 BMatC= 1.75D+00 BMatP= 2.83D+00
 IDIUse=3 WtCom= 0.00D+00 WtEn= 1.00D+00
 Coeff-Com:  0.129D+00-0.782D-01 0.468D+00 0.481D+00
 Coeff-En:   0.000D+00 0.000D+00 0.466D+00 0.534D+00
 Coeff:      0.000D+00 0.000D+00 0.466D+00 0.534D+00
 Gap=     0.126 Goal=   None    Shift=    0.000
 RMSDP=5.86D-02 MaxDP=6.28D+00 DE=-2.20D-01 OVMax= 4.66D-01

 Cycle   5  Pass 1  IDiag  1:
 RMSU=  3.05D-02    CP:  2.38D-02  9.98D-01  1.55D+00  5.29D-01
 E= -3010.41084727830     Delta-E=       -1.123080090008 Rises=F Damp=F
 DIIS: error= 2.52D-02 at cycle   5 NSaved=   5.
 NSaved= 5 IEnMin= 5 EnMin= -3010.41084727830     IErMin= 5 ErrMin= 2.52D-02
 ErrMax= 2.52D-02  0.00D+00 EMaxC= 1.00D-01 BMatC= 2.60D-01 BMatP= 1.75D+00
 IDIUse=3 WtCom= 7.48D-01 WtEn= 2.52D-01
 Coeff-Com: -0.153D-01 0.272D-01 0.158D+00 0.245D+00 0.585D+00
 Coeff-En:   0.000D+00 0.000D+00 0.000D+00 0.628D-01 0.937D+00
 Coeff:     -0.115D-01 0.203D-01 0.118D+00 0.199D+00 0.674D+00
 Gap=     0.237 Goal=   None    Shift=    0.000
 RMSDP=1.88D-02 MaxDP=1.18D+00 DE=-1.12D+00 OVMax= 1.23D-01

 Cycle   6  Pass 1  IDiag  1:
 RMSU=  9.18D-03    CP:  2.15D-02  8.77D-01  1.37D+00  4.96D-01  5.98D-01
 E= -3010.53508948026     Delta-E=       -0.124242201962 Rises=F Damp=F
 DIIS: error= 1.78D-02 at cycle   6 NSaved=   6.
 NSaved= 6 IEnMin= 6 EnMin= -3010.53508948026     IErMin= 6 ErrMin= 1.78D-02
 ErrMax= 1.78D-02  0.00D+00 EMaxC= 1.00D-01 BMatC= 4.54D-02 BMatP= 2.60D-01
 IDIUse=3 WtCom= 8.22D-01 WtEn= 1.78D-01
 Coeff-Com: -0.135D-01 0.304D-01 0.171D-01 0.896D-02 0.314D+00 0.643D+00
 Coeff-En:   0.000D+00 0.000D+00 0.000D+00 0.000D+00 0.970D-01 0.903D+00
 Coeff:     -0.111D-01 0.250D-01 0.141D-01 0.736D-02 0.275D+00 0.689D+00
 Gap=     0.242 Goal=   None    Shift=    0.000
 RMSDP=7.18D-03 MaxDP=9.42D-01 DE=-1.24D-01 OVMax= 4.28D-02

 Cycle   7  Pass 1  IDiag  1:
 RMSU=  3.30D-03    CP:  2.02D-02  8.59D-01  1.34D+00  4.47D-01  6.40D-01
                    CP:  6.78D-01
 E= -3010.55877215997     Delta-E=       -0.023682679715 Rises=F Damp=F
 DIIS: error= 4.84D-03 at cycle   7 NSaved=   7.
 NSaved= 7 IEnMin= 7 EnMin= -3010.55877215997     IErMin= 7 ErrMin= 4.84D-03
 ErrMax= 4.84D-03  0.00D+00 EMaxC= 1.00D-01 BMatC= 4.49D-03 BMatP= 4.54D-02
 IDIUse=3 WtCom= 9.52D-01 WtEn= 4.84D-02
 Coeff-Com: -0.605D-02 0.138D-01-0.107D-01-0.113D-01 0.527D-01 0.304D+00
 Coeff-Com:  0.657D+00
 Coeff-En:   0.000D+00 0.000D+00 0.000D+00 0.000D+00 0.000D+00 0.737D-01
 Coeff-En:   0.926D+00
 Coeff:     -0.576D-02 0.132D-01-0.101D-01-0.108D-01 0.501D-01 0.293D+00
 Coeff:      0.670D+00
 Gap=     0.238 Goal=   None    Shift=    0.000
 RMSDP=1.70D-03 MaxDP=2.19D-01 DE=-2.37D-02 OVMax= 1.41D-02

 Cycle   8  Pass 1  IDiag  1:
 RMSU=  6.00D-04    CP:  2.05D-02  8.70D-01  1.35D+00  4.59D-01  6.31D-01
                    CP:  7.14D-01  1.03D+00
 E= -3010.56190320284     Delta-E=       -0.003131042865 Rises=F Damp=F
 DIIS: error= 1.54D-03 at cycle   8 NSaved=   8.
 NSaved= 8 IEnMin= 8 EnMin= -3010.56190320284     IErMin= 8 ErrMin= 1.54D-03
 ErrMax= 1.54D-03  0.00D+00 EMaxC= 1.00D-01 BMatC= 3.55D-04 BMatP= 4.49D-03
 IDIUse=3 WtCom= 9.85D-01 WtEn= 1.54D-02
 Coeff-Com: -0.124D-02 0.218D-02-0.463D-02-0.143D-02-0.210D-01 0.327D-01
 Coeff-Com:  0.308D+00 0.685D+00
 Coeff-En:   0.000D+00 0.000D+00 0.000D+00 0.000D+00 0.000D+00 0.000D+00
 Coeff-En:   0.000D+00 0.100D+01
 Coeff:     -0.122D-02 0.215D-02-0.456D-02-0.140D-02-0.207D-01 0.322D-01
 Coeff:      0.303D+00 0.690D+00
 Gap=     0.243 Goal=   None    Shift=    0.000
 RMSDP=1.54D-03 MaxDP=1.81D-01 DE=-3.13D-03 OVMax= 7.48D-03

 Cycle   9  Pass 1  IDiag  1:
 RMSU=  4.17D-04    CP:  2.01D-02  8.66D-01  1.35D+00  4.55D-01  6.13D-01
                    CP:  6.65D-01  1.24D+00  1.16D+00
 E= -3010.56226193434     Delta-E=       -0.000358731505 Rises=F Damp=F
 DIIS: error= 3.04D-04 at cycle   9 NSaved=   9.
 NSaved= 9 IEnMin= 9 EnMin= -3010.56226193434     IErMin= 9 ErrMin= 3.04D-04
 ErrMax= 3.04D-04  0.00D+00 EMaxC= 1.00D-01 BMatC= 3.32D-05 BMatP= 3.55D-04
 IDIUse=3 WtCom= 9.97D-01 WtEn= 3.04D-03
 Coeff-Com:  0.828D-05-0.335D-03-0.127D-02 0.217D-03-0.121D-01-0.903D-02
 Coeff-Com:  0.528D-01 0.271D+00 0.699D+00
 Coeff-En:   0.000D+00 0.000D+00 0.000D+00 0.000D+00 0.000D+00 0.000D+00
 Coeff-En:   0.000D+00 0.000D+00 0.100D+01
 Coeff:      0.826D-05-0.333D-03-0.126D-02 0.217D-03-0.121D-01-0.901D-02
 Coeff:      0.526D-01 0.270D+00 0.700D+00
 Gap=     0.241 Goal=   None    Shift=    0.000
 RMSDP=2.34D-04 MaxDP=1.42D-02 DE=-3.59D-04 OVMax= 3.57D-03

 Cycle  10  Pass 1  IDiag  1:
 RMSU=  1.36D-04    CP:  2.01D-02  8.67D-01  1.35D+00  4.57D-01  6.10D-01
                    CP:  6.67D-01  1.25D+00  1.26D+00  1.09D+00
 E= -3010.56231218940     Delta-E=       -0.000050255057 Rises=F Damp=F
 DIIS: error= 1.50D-04 at cycle  10 NSaved=  10.
 NSaved=10 IEnMin=10 EnMin= -3010.56231218940     IErMin=10 ErrMin= 1.50D-04
 ErrMax= 1.50D-04  0.00D+00 EMaxC= 1.00D-01 BMatC= 4.80D-06 BMatP= 3.32D-05
 IDIUse=3 WtCom= 9.99D-01 WtEn= 1.50D-03
 Coeff-Com:  0.708D-04-0.238D-03-0.361D-03-0.346D-03 0.277D-02 0.786D-02
 Coeff-Com: -0.885D-02-0.346D-01 0.892D-01 0.944D+00
 Coeff-En:   0.000D+00 0.000D+00 0.000D+00 0.000D+00 0.000D+00 0.000D+00
 Coeff-En:   0.000D+00 0.000D+00 0.000D+00 0.100D+01
 Coeff:      0.707D-04-0.238D-03-0.360D-03-0.345D-03 0.277D-02 0.785D-02
 Coeff:     -0.884D-02-0.345D-01 0.891D-01 0.944D+00
 Gap=     0.240 Goal=   None    Shift=    0.000
 RMSDP=2.07D-04 MaxDP=2.01D-02 DE=-5.03D-05 OVMax= 2.90D-03

 Cycle  11  Pass 1  IDiag  1:
 RMSU=  9.81D-05    CP:  2.01D-02  8.64D-01  1.35D+00  4.57D-01  6.09D-01
                    CP:  6.71D-01  1.25D+00  1.27D+00  1.24D+00  1.41D+00
 E= -3010.56232889593     Delta-E=       -0.000016706525 Rises=F Damp=F
 DIIS: error= 7.84D-05 at cycle  11 NSaved=  11.
 NSaved=11 IEnMin=11 EnMin= -3010.56232889593     IErMin=11 ErrMin= 7.84D-05
 ErrMax= 7.84D-05  0.00D+00 EMaxC= 1.00D-01 BMatC= 1.84D-06 BMatP= 4.80D-06
 IDIUse=1 WtCom= 1.00D+00 WtEn= 0.00D+00
 Coeff-Com:  0.227D-04-0.812D-04-0.127D-03-0.170D-03 0.331D-02 0.632D-02
 Coeff-Com:  0.191D-02-0.631D-01-0.207D+00 0.194D+00 0.106D+01
 Coeff:      0.227D-04-0.812D-04-0.127D-03-0.170D-03 0.331D-02 0.632D-02
 Coeff:      0.191D-02-0.631D-01-0.207D+00 0.194D+00 0.106D+01
 Gap=     0.239 Goal=   None    Shift=    0.000
 RMSDP=1.21D-04 MaxDP=7.50D-03 DE=-1.67D-05 OVMax= 2.25D-03

 Cycle  12  Pass 1  IDiag  1:
 RMSU=  2.31D-05    CP:  2.01D-02  8.64D-01  1.35D+00  4.58D-01  6.09D-01
                    CP:  6.69D-01  1.25D+00  1.29D+00  1.30D+00  1.76D+00
                    CP:  1.50D+00
 E= -3010.56233572008     Delta-E=       -0.000006824153 Rises=F Damp=F
 DIIS: error= 2.69D-05 at cycle  12 NSaved=  12.
 NSaved=12 IEnMin=12 EnMin= -3010.56233572008     IErMin=12 ErrMin= 2.69D-05
 ErrMax= 2.69D-05  0.00D+00 EMaxC= 1.00D-01 BMatC= 1.91D-07 BMatP= 1.84D-06
 IDIUse=1 WtCom= 1.00D+00 WtEn= 0.00D+00
 Coeff-Com: -0.178D-05 0.448D-05 0.349D-04-0.111D-04 0.281D-03 0.983D-03
 Coeff-Com:  0.574D-02-0.114D-01-0.757D-01-0.103D+00 0.169D+00 0.101D+01
 Coeff:     -0.178D-05 0.448D-05 0.349D-04-0.111D-04 0.281D-03 0.983D-03
 Coeff:      0.574D-02-0.114D-01-0.757D-01-0.103D+00 0.169D+00 0.101D+01
 Gap=     0.239 Goal=   None    Shift=    0.000
 RMSDP=5.88D-05 MaxDP=5.68D-03 DE=-6.82D-06 OVMax= 1.07D-03

 Cycle  13  Pass 1  IDiag  1:
 RMSU=  1.30D-05    CP:  2.01D-02  8.63D-01  1.35D+00  4.58D-01  6.09D-01
                    CP:  6.70D-01  1.25D+00  1.28D+00  1.33D+00  1.90D+00
                    CP:  1.77D+00  1.40D+00
 E= -3010.56233687165     Delta-E=       -0.000001151571 Rises=F Damp=F
 DIIS: error= 9.84D-06 at cycle  13 NSaved=  13.
 NSaved=13 IEnMin=13 EnMin= -3010.56233687165     IErMin=13 ErrMin= 9.84D-06
 ErrMax= 9.84D-06  0.00D+00 EMaxC= 1.00D-01 BMatC= 3.29D-08 BMatP= 1.91D-07
 IDIUse=1 WtCom= 1.00D+00 WtEn= 0.00D+00
 Coeff-Com: -0.386D-07 0.101D-04 0.468D-04 0.529D-05-0.304D-03-0.432D-03
 Coeff-Com:  0.124D-02 0.296D-02 0.384D-02-0.350D-01-0.121D+00 0.274D+00
 Coeff-Com:  0.874D+00
 Coeff:     -0.386D-07 0.101D-04 0.468D-04 0.529D-05-0.304D-03-0.432D-03
 Coeff:      0.124D-02 0.296D-02 0.384D-02-0.350D-01-0.121D+00 0.274D+00
 Coeff:      0.874D+00
 Gap=     0.239 Goal=   None    Shift=    0.000
 RMSDP=1.53D-05 MaxDP=1.67D-03 DE=-1.15D-06 OVMax= 3.13D-04

 Cycle  14  Pass 1  IDiag  1:
 RMSU=  4.74D-06    CP:  2.01D-02  8.63D-01  1.35D+00  4.58D-01  6.09D-01
                    CP:  6.70D-01  1.25D+00  1.28D+00  1.34D+00  1.92D+00
                    CP:  1.81D+00  1.63D+00  1.38D+00
 E= -3010.56233700159     Delta-E=       -0.000000129934 Rises=F Damp=F
 DIIS: error= 2.71D-06 at cycle  14 NSaved=  14.
 NSaved=14 IEnMin=14 EnMin= -3010.56233700159     IErMin=14 ErrMin= 2.71D-06
 ErrMax= 2.71D-06  0.00D+00 EMaxC= 1.00D-01 BMatC= 3.93D-09 BMatP= 3.29D-08
 IDIUse=1 WtCom= 1.00D+00 WtEn= 0.00D+00
 Coeff-Com: -0.128D-05 0.646D-06 0.534D-05 0.462D-05 0.328D-04-0.138D-03
 Coeff-Com: -0.612D-03 0.866D-03 0.529D-02 0.157D-01-0.340D-01-0.921D-01
 Coeff-Com:  0.562D-01 0.105D+01
 Coeff:     -0.128D-05 0.646D-06 0.534D-05 0.462D-05 0.328D-04-0.138D-03
 Coeff:     -0.612D-03 0.866D-03 0.529D-02 0.157D-01-0.340D-01-0.921D-01
 Coeff:      0.562D-01 0.105D+01
 Gap=     0.239 Goal=   None    Shift=    0.000
 RMSDP=9.14D-06 MaxDP=7.35D-04 DE=-1.30D-07 OVMax= 1.14D-04

 Cycle  15  Pass 1  IDiag  1:
 RMSU=  1.27D-06    CP:  2.01D-02  8.63D-01  1.35D+00  4.58D-01  6.09D-01
                    CP:  6.70D-01  1.25D+00  1.28D+00  1.34D+00  1.92D+00
                    CP:  1.82D+00  1.71D+00  1.68D+00  1.54D+00
 E= -3010.56233702116     Delta-E=       -0.000000019574 Rises=F Damp=F
 DIIS: error= 3.00D-06 at cycle  15 NSaved=  15.
 NSaved=15 IEnMin=15 EnMin= -3010.56233702116     IErMin=14 ErrMin= 2.71D-06
 ErrMax= 3.00D-06  0.00D+00 EMaxC= 1.00D-01 BMatC= 1.17D-09 BMatP= 3.93D-09
 IDIUse=1 WtCom= 1.00D+00 WtEn= 0.00D+00
 Coeff-Com:  0.317D-06-0.215D-05 0.354D-06-0.494D-06 0.606D-04 0.189D-04
 Coeff-Com: -0.361D-03 0.119D-03 0.156D-02 0.111D-01-0.173D-03-0.783D-01
 Coeff-Com: -0.101D+00 0.448D+00 0.719D+00
 Coeff:      0.317D-06-0.215D-05 0.354D-06-0.494D-06 0.606D-04 0.189D-04
 Coeff:     -0.361D-03 0.119D-03 0.156D-02 0.111D-01-0.173D-03-0.783D-01
 Coeff:     -0.101D+00 0.448D+00 0.719D+00
 Gap=     0.239 Goal=   None    Shift=    0.000
 RMSDP=3.92D-06 MaxDP=3.16D-04 DE=-1.96D-08 OVMax= 4.05D-05

 Cycle  16  Pass 1  IDiag  1:
 RMSU=  4.70D-07    CP:  2.01D-02  8.63D-01  1.35D+00  4.58D-01  6.09D-01
                    CP:  6.70D-01  1.25D+00  1.28D+00  1.34D+00  1.93D+00
                    CP:  1.82D+00  1.74D+00  1.76D+00  1.78D+00  1.35D+00
 E= -3010.56233702434     Delta-E=       -0.000000003177 Rises=F Damp=F
 DIIS: error= 6.01D-07 at cycle  16 NSaved=  16.
 NSaved=16 IEnMin=16 EnMin= -3010.56233702434     IErMin=16 ErrMin= 6.01D-07
 ErrMax= 6.01D-07  0.00D+00 EMaxC= 1.00D-01 BMatC= 1.95D-10 BMatP= 1.17D-09
 IDIUse=1 WtCom= 1.00D+00 WtEn= 0.00D+00
 Coeff-Com:  0.622D-06-0.114D-05 0.279D-06-0.595D-05 0.205D-04 0.650D-04
 Coeff-Com:  0.428D-04-0.158D-03-0.894D-03-0.135D-03 0.853D-02-0.442D-02
 Coeff-Com: -0.496D-01-0.810D-01 0.209D+00 0.919D+00
 Coeff:      0.622D-06-0.114D-05 0.279D-06-0.595D-05 0.205D-04 0.650D-04
 Coeff:      0.428D-04-0.158D-03-0.894D-03-0.135D-03 0.853D-02-0.442D-02
 Coeff:     -0.496D-01-0.810D-01 0.209D+00 0.919D+00
 Gap=     0.239 Goal=   None    Shift=    0.000
 RMSDP=3.36D-06 MaxDP=2.78D-04 DE=-3.18D-09 OVMax= 1.77D-05

 Cycle  17  Pass 1  IDiag  1:
 RMSU=  2.95D-07    CP:  2.01D-02  8.63D-01  1.35D+00  4.58D-01  6.09D-01
                    CP:  6.70D-01  1.25D+00  1.28D+00  1.34D+00  1.93D+00
                    CP:  1.83D+00  1.75D+00  1.80D+00  1.93D+00  1.64D+00
                    CP:  1.68D+00
 E= -3010.56233702509     Delta-E=       -0.000000000756 Rises=F Damp=F
 DIIS: error= 4.61D-07 at cycle  17 NSaved=  17.
 NSaved=17 IEnMin=17 EnMin= -3010.56233702509     IErMin=17 ErrMin= 4.61D-07
 ErrMax= 4.61D-07  0.00D+00 EMaxC= 1.00D-01 BMatC= 3.42D-11 BMatP= 1.95D-10
 IDIUse=1 WtCom= 1.00D+00 WtEn= 0.00D+00
 Coeff-Com:  0.321D-06-0.396D-06-0.171D-06-0.283D-05-0.538D-05 0.207D-04
 Coeff-Com:  0.945D-04 0.507D-04-0.378D-03-0.173D-02 0.260D-02 0.104D-01
 Coeff-Com:  0.919D-03-0.945D-01-0.651D-01 0.295D+00 0.852D+00
 Coeff:      0.321D-06-0.396D-06-0.171D-06-0.283D-05-0.538D-05 0.207D-04
 Coeff:      0.945D-04 0.507D-04-0.378D-03-0.173D-02 0.260D-02 0.104D-01
 Coeff:      0.919D-03-0.945D-01-0.651D-01 0.295D+00 0.852D+00
 Gap=     0.239 Goal=   None    Shift=    0.000
 RMSDP=1.23D-06 MaxDP=9.67D-05 DE=-7.56D-10 OVMax= 7.07D-06

 Cycle  18  Pass 1  IDiag  1:
 RMSU=  8.94D-08    CP:  2.01D-02  8.63D-01  1.35D+00  4.58D-01  6.09D-01
                    CP:  6.70D-01  1.25D+00  1.28D+00  1.34D+00  1.93D+00
                    CP:  1.83D+00  1.75D+00  1.80D+00  1.98D+00  1.77D+00
                    CP:  2.09D+00  1.37D+00
 E= -3010.56233702518     Delta-E=       -0.000000000086 Rises=F Damp=F
 DIIS: error= 1.03D-07 at cycle  18 NSaved=  18.
 NSaved=18 IEnMin=18 EnMin= -3010.56233702518     IErMin=18 ErrMin= 1.03D-07
 ErrMax= 1.03D-07  0.00D+00 EMaxC= 1.00D-01 BMatC= 5.10D-12 BMatP= 3.42D-11
 IDIUse=1 WtCom= 1.00D+00 WtEn= 0.00D+00
 Coeff-Com:  0.313D-07-0.350D-07-0.179D-06-0.117D-06-0.486D-05-0.510D-05
 Coeff-Com:  0.148D-04 0.457D-04 0.127D-04-0.558D-03-0.970D-03 0.353D-02
 Coeff-Com:  0.971D-02-0.107D-01-0.594D-01-0.891D-01 0.263D+00 0.884D+00
 Coeff:      0.313D-07-0.350D-07-0.179D-06-0.117D-06-0.486D-05-0.510D-05
 Coeff:      0.148D-04 0.457D-04 0.127D-04-0.558D-03-0.970D-03 0.353D-02
 Coeff:      0.971D-02-0.107D-01-0.594D-01-0.891D-01 0.263D+00 0.884D+00
 Gap=     0.239 Goal=   None    Shift=    0.000
 RMSDP=5.45D-07 MaxDP=5.02D-05 DE=-8.59D-11 OVMax= 3.21D-06

 Cycle  19  Pass 1  IDiag  1:
 RMSU=  4.98D-08    CP:  2.01D-02  8.63D-01  1.35D+00  4.58D-01  6.09D-01
                    CP:  6.70D-01  1.25D+00  1.28D+00  1.34D+00  1.93D+00
                    CP:  1.83D+00  1.75D+00  1.80D+00  1.99D+00  1.82D+00
                    CP:  2.27D+00  1.64D+00  1.35D+00
 E= -3010.56233702521     Delta-E=       -0.000000000026 Rises=F Damp=F
 DIIS: error= 5.21D-08 at cycle  19 NSaved=  19.
 NSaved=19 IEnMin=19 EnMin= -3010.56233702521     IErMin=19 ErrMin= 5.21D-08
 ErrMax= 5.21D-08  0.00D+00 EMaxC= 1.00D-01 BMatC= 7.24D-13 BMatP= 5.10D-12
 IDIUse=1 WtCom= 1.00D+00 WtEn= 0.00D+00
 Coeff-Com: -0.193D-07 0.240D-07-0.149D-06 0.298D-06-0.912D-06-0.421D-05
 Coeff-Com: -0.786D-05 0.104D-04 0.461D-04 0.118D-03-0.493D-03-0.392D-03
 Coeff-Com:  0.238D-02 0.114D-01-0.476D-02-0.676D-01-0.441D-01 0.232D+00
 Coeff-Com:  0.871D+00
 Coeff:     -0.193D-07 0.240D-07-0.149D-06 0.298D-06-0.912D-06-0.421D-05
 Coeff:     -0.786D-05 0.104D-04 0.461D-04 0.118D-03-0.493D-03-0.392D-03
 Coeff:      0.238D-02 0.114D-01-0.476D-02-0.676D-01-0.441D-01 0.232D+00
 Coeff:      0.871D+00
 Gap=     0.239 Goal=   None    Shift=    0.000
 RMSDP=9.32D-08 MaxDP=7.57D-06 DE=-2.64D-11 OVMax= 1.16D-06

 Cycle  20  Pass 1  IDiag  1:
 RMSU=  1.80D-08    CP:  2.01D-02  8.63D-01  1.35D+00  4.58D-01  6.09D-01
                    CP:  6.70D-01  1.25D+00  1.28D+00  1.34D+00  1.93D+00
                    CP:  1.83D+00  1.75D+00  1.80D+00  2.00D+00  1.83D+00
                    CP:  2.33D+00  1.74D+00  1.50D+00  1.28D+00
 E= -3010.56233702516     Delta-E=        0.000000000048 Rises=F Damp=F
 DIIS: error= 3.13D-08 at cycle  20 NSaved=  20.
 NSaved=20 IEnMin=19 EnMin= -3010.56233702521     IErMin=20 ErrMin= 3.13D-08
 ErrMax= 3.13D-08  0.00D+00 EMaxC= 1.00D-01 BMatC= 1.39D-13 BMatP= 7.24D-13
 IDIUse=1 WtCom= 1.00D+00 WtEn= 0.00D+00
 Coeff-Com: -0.650D-08 0.549D-08-0.144D-07 0.132D-06 0.509D-06-0.107D-06
 Coeff-Com: -0.458D-05-0.842D-05 0.567D-05 0.114D-03 0.450D-04-0.647D-03
 Coeff-Com: -0.112D-02 0.369D-02 0.799D-02-0.391D-02-0.513D-01-0.993D-01
 Coeff-Com:  0.212D+00 0.933D+00
 Coeff:     -0.650D-08 0.549D-08-0.144D-07 0.132D-06 0.509D-06-0.107D-06
 Coeff:     -0.458D-05-0.842D-05 0.567D-05 0.114D-03 0.450D-04-0.647D-03
 Coeff:     -0.112D-02 0.369D-02 0.799D-02-0.391D-02-0.513D-01-0.993D-01
 Coeff:      0.212D+00 0.933D+00
 Gap=     0.239 Goal=   None    Shift=    0.000
 RMSDP=4.42D-08 MaxDP=3.73D-06 DE= 4.77D-11 OVMax= 9.13D-07

 Cycle  21  Pass 1  IDiag  1:
 Restarting incremental Fock formation.
 E= -3010.56233702517     Delta-E=       -0.000000000016 Rises=F Damp=F
 DIIS: error= 1.60D-08 at cycle  21 NSaved=  20.
 NSaved=20 IEnMin=18 EnMin= -3010.56233702521     IErMin=20 ErrMin= 1.60D-08
 ErrMax= 1.60D-08  0.00D+00 EMaxC= 1.00D-01 BMatC= 2.81D-14 BMatP= 1.39D-13
 IDIUse=1 WtCom= 1.00D+00 WtEn= 0.00D+00
 Coeff-Com: -0.288D-09 0.318D-07-0.263D-07 0.275D-06 0.948D-06 0.145D-05
 Coeff-Com: -0.396D-05-0.773D-05-0.733D-05 0.898D-04 0.119D-04-0.570D-03
 Coeff-Com: -0.174D-02 0.242D-02 0.141D-01 0.592D-02-0.630D-01-0.153D+00
 Coeff-Com:  0.127D+00 0.107D+01
 Coeff:     -0.288D-09 0.318D-07-0.263D-07 0.275D-06 0.948D-06 0.145D-05
 Coeff:     -0.396D-05-0.773D-05-0.733D-05 0.898D-04 0.119D-04-0.570D-03
 Coeff:     -0.174D-02 0.242D-02 0.141D-01 0.592D-02-0.630D-01-0.153D+00
 Coeff:      0.127D+00 0.107D+01
 Gap=     0.239 Goal=   None    Shift=    0.000
 RMSDP=1.60D-08 MaxDP=1.29D-06 DE=-1.59D-11 OVMax= 5.09D-07

 Cycle  22  Pass 1  IDiag  1:
 RMSU=  1.17D-08    CP:  1.00D+00
 E= -3010.56233702516     Delta-E=        0.000000000011 Rises=F Damp=F
 DIIS: error= 7.44D-09 at cycle  22 NSaved=  20.
 NSaved=20 IEnMin=17 EnMin= -3010.56233702521     IErMin=20 ErrMin= 7.44D-09
 ErrMax= 7.44D-09  0.00D+00 EMaxC= 1.00D-01 BMatC= 5.33D-15 BMatP= 2.81D-14
 IDIUse=1 WtCom= 1.00D+00 WtEn= 0.00D+00
 Large coefficients: NSaved= 20 BigCof=    0.00 CofMax=   10.00 Det=-1.17D-14
 Inversion failed.  Reducing to 19 matrices.
 Coeff-Com: -0.351D-07-0.684D-07 0.193D-06 0.141D-05 0.108D-05-0.189D-05
 Coeff-Com: -0.230D-04 0.105D-04 0.121D-03 0.106D-03-0.111D-02-0.151D-02
 Coeff-Com:  0.284D-02 0.118D-01 0.115D-01-0.740D-01-0.182D+00 0.168D+00
 Coeff-Com:  0.106D+01
 Coeff:     -0.351D-07-0.684D-07 0.193D-06 0.141D-05 0.108D-05-0.189D-05
 Coeff:     -0.230D-04 0.105D-04 0.121D-03 0.106D-03-0.111D-02-0.151D-02
 Coeff:      0.284D-02 0.118D-01 0.115D-01-0.740D-01-0.182D+00 0.168D+00
 Coeff:      0.106D+01
 Gap=     0.239 Goal=   None    Shift=    0.000
 RMSDP=1.21D-08 MaxDP=1.43D-06 DE= 1.09D-11 OVMax= 3.07D-07

 Cycle  23  Pass 1  IDiag  1:
 RMSU=  6.64D-09    CP:  1.00D+00  1.54D+00
 E= -3010.56233702520     Delta-E=       -0.000000000041 Rises=F Damp=F
 DIIS: error= 2.74D-09 at cycle  23 NSaved=  20.
 NSaved=20 IEnMin=16 EnMin= -3010.56233702521     IErMin=20 ErrMin= 2.74D-09
 ErrMax= 2.74D-09  0.00D+00 EMaxC= 1.00D-01 BMatC= 9.03D-16 BMatP= 5.33D-15
 IDIUse=1 WtCom= 1.00D+00 WtEn= 0.00D+00
 Large coefficients: NSaved= 20 BigCof=    0.00 CofMax=   10.00 Det=-2.53D-15
 Inversion failed.  Reducing to 19 matrices.
 Large coefficients: NSaved= 19 BigCof=    0.00 CofMax=   10.00 Det=-2.80D-15
 Inversion failed.  Reducing to 18 matrices.
 Large coefficients: NSaved= 18 BigCof=    0.00 CofMax=   10.00 Det=-2.90D-15
 Inversion failed.  Reducing to 17 matrices.
 Large coefficients: NSaved= 17 BigCof=    0.00 CofMax=   10.00 Det=-2.91D-15
 Inversion failed.  Reducing to 16 matrices.
 Large coefficients: NSaved= 16 BigCof=    0.00 CofMax=   10.00 Det=-3.05D-15
 Inversion failed.  Reducing to 15 matrices.
 Coeff-Com: -0.676D-06-0.204D-05-0.287D-05 0.259D-04 0.761D-04-0.297D-04
 Coeff-Com: -0.478D-03-0.991D-03 0.438D-03 0.942D-02 0.853D-02-0.379D-01
 Coeff-Com: -0.147D+00 0.183D+00 0.985D+00
 Coeff:     -0.676D-06-0.204D-05-0.287D-05 0.259D-04 0.761D-04-0.297D-04
 Coeff:     -0.478D-03-0.991D-03 0.438D-03 0.942D-02 0.853D-02-0.379D-01
 Coeff:     -0.147D+00 0.183D+00 0.985D+00
 Gap=     0.239 Goal=   None    Shift=    0.000
 RMSDP=6.54D-09 MaxDP=9.75D-07 DE=-4.14D-11 OVMax= 1.04D-07

 SCF Done:  E(RwB97XD) =  -3010.56233703     A.U. after   23 cycles
            NFock= 23  Conv=0.65D-08     -V/T= 2.0016
 KE= 3.005870834196D+03 PE=-8.703642327610D+03 EE= 1.911137087429D+03
 Leave Link  502 at Thu May  2 14:22:14 2024, MaxMem=   134217728 cpu:            1415.5 elap:            1415.8
 (Enter /software/gaussian/g16-c01/sse4/g16/l601.exe)
 Copying SCF densities to generalized density rwf, IOpCl= 0 IROHF=0.

 **********************************************************************

            Population analysis using the SCF Density.

 **********************************************************************

 Alpha  occ. eigenvalues -- -483.35582 -62.90643 -56.70276 -56.69792 -56.69782
 Alpha  occ. eigenvalues --  -19.46995 -19.46480 -14.86009 -10.61936 -10.59948
 Alpha  occ. eigenvalues --  -10.59346 -10.57549 -10.54321 -10.53134  -9.06477
 Alpha  occ. eigenvalues --   -6.88988  -6.87386  -6.87349  -2.98931  -2.98509
 Alpha  occ. eigenvalues --   -2.98479  -2.97196  -2.97195  -1.50331  -1.33290
 Alpha  occ. eigenvalues --   -1.24337  -1.15045  -1.13765  -1.07660  -1.01797
 Alpha  occ. eigenvalues --   -0.96928  -0.91791  -0.86332  -0.81894  -0.81594
 Alpha  occ. eigenvalues --   -0.80744  -0.79444  -0.77083  -0.76429  -0.74081
 Alpha  occ. eigenvalues --   -0.69585  -0.67897  -0.64980  -0.62931  -0.61345
 Alpha  occ. eigenvalues --   -0.58549  -0.57908  -0.56375  -0.55913
 Alpha virt. eigenvalues --   -0.32014  -0.21967  -0.21203  -0.19522  -0.17148
 Alpha virt. eigenvalues --   -0.15689  -0.13745  -0.11339  -0.10765  -0.09228
 Alpha virt. eigenvalues --   -0.07350  -0.06265  -0.05479  -0.04621  -0.02709
 Alpha virt. eigenvalues --   -0.01914  -0.01309  -0.00686   0.00750   0.01309
 Alpha virt. eigenvalues --    0.02441   0.02976   0.03625   0.04698   0.05303
 Alpha virt. eigenvalues --    0.05608   0.06828   0.08276   0.08812   0.09560
 Alpha virt. eigenvalues --    0.10298   0.10682   0.11382   0.11835   0.13356
 Alpha virt. eigenvalues --    0.14058   0.14282   0.15089   0.15653   0.16210
 Alpha virt. eigenvalues --    0.17771   0.18230   0.19032   0.19479   0.21705
 Alpha virt. eigenvalues --    0.22075   0.22511   0.24361   0.24830   0.25676
 Alpha virt. eigenvalues --    0.25860   0.26341   0.27387   0.28030   0.28769
 Alpha virt. eigenvalues --    0.30025   0.32656   0.32986   0.34250   0.34453
 Alpha virt. eigenvalues --    0.36668   0.37179   0.39348   0.39940   0.42477
 Alpha virt. eigenvalues --    0.43002   0.43963   0.45284   0.46776   0.47279
 Alpha virt. eigenvalues --    0.47996   0.48599   0.49453   0.50329   0.52520
 Alpha virt. eigenvalues --    0.53286   0.53731   0.56860   0.56989   0.59287
 Alpha virt. eigenvalues --    0.60774   0.61771   0.63083   0.64363   0.67984
 Alpha virt. eigenvalues --    0.69563   0.70123   0.71887   0.73971   0.74312
 Alpha virt. eigenvalues --    0.75686   0.78363   0.80724   0.81341   0.83969
 Alpha virt. eigenvalues --    0.86080   0.87003   0.91121   0.93241   0.98053
 Alpha virt. eigenvalues --    0.99842   1.01258   1.03409   1.04398   1.06100
 Alpha virt. eigenvalues --    1.06616   1.12515   1.13172   1.13988   1.18051
 Alpha virt. eigenvalues --    1.19584   1.22909   1.27276   1.31863   1.35359
 Alpha virt. eigenvalues --    1.35633   1.37802   1.41240   1.53078   1.55400
 Alpha virt. eigenvalues --    1.56964   1.58876   1.60258   1.62998   1.64168
 Alpha virt. eigenvalues --    1.67280   1.70459   1.73445   1.74082   1.78385
 Alpha virt. eigenvalues --    1.81819   1.84763   1.87802   1.90467   1.92605
 Alpha virt. eigenvalues --    1.96662   2.00068   2.02176   2.05685   2.06710
 Alpha virt. eigenvalues --    2.11035   2.13541   2.21446   2.22943   2.27426
 Alpha virt. eigenvalues --    2.32884   2.38283   2.41333   2.43190   2.52244
 Alpha virt. eigenvalues --    2.56520   2.62343   2.65448   2.68163   2.71182
 Alpha virt. eigenvalues --    2.73320   2.75734   2.76618   2.79678   2.80798
 Alpha virt. eigenvalues --    2.91697   2.96683   3.00514   3.03472   3.08071
 Alpha virt. eigenvalues --    3.14244   3.15212   3.17302   3.21827   3.26354
 Alpha virt. eigenvalues --    3.28099   3.37236   3.45962   3.49543   3.54414
 Alpha virt. eigenvalues --    3.56533   3.68492   3.73875   3.82499   3.86197
 Alpha virt. eigenvalues --    4.05320   4.06120   4.15143   4.19086   4.39114
 Alpha virt. eigenvalues --    4.44668   4.53307   4.59482   4.93302   4.95916
 Alpha virt. eigenvalues --    5.05281   5.08933   5.61584   6.14812   6.63338
 Alpha virt. eigenvalues --    7.44144   7.46507   7.56751  23.20978  23.60287
 Alpha virt. eigenvalues --   23.68650  23.77128  23.94400  24.01928  35.31149
 Alpha virt. eigenvalues --   47.89670  49.84734  49.93395 289.77353 289.79700
 Alpha virt. eigenvalues --  289.923611020.90919
          Condensed to atoms (all electrons):
               1          2          3          4          5          6
     1  C    7.619397  -0.751376   0.177063  -0.165499   0.281738   0.035042
     2  C   -0.751376  17.790070  -2.224173   0.656500  -0.006469   0.232263
     3  C    0.177063  -2.224173  23.975921  -1.634331   0.014668   0.063732
     4  C   -0.165499   0.656500  -1.634331   6.840274   0.014124  -0.009394
     5  H    0.281738  -0.006469   0.014668   0.014124   0.247332  -0.000517
     6  H    0.035042   0.232263   0.063732  -0.009394  -0.000517   0.241492
     7  H    0.059938  -0.024563   0.021869   0.295304  -0.001781   0.000015
     8  N   -0.097395  -0.612016  -2.583767   0.051417   0.000024  -0.019857
     9  O    0.038379   0.324403   0.220748  -0.031758  -0.000015  -0.001724
    10  O    0.215588  -0.013051  -0.279856  -0.016943  -0.000081   0.014743
    11  C    1.001034  -1.694723   1.352188  -0.483503  -0.013804   0.005175
    12  H   -0.044654   0.029231   0.014023   0.089559   0.000080  -0.000022
    13  C   -2.268787  -7.681815 -12.945434   0.747221   0.018770  -0.001572
    14  H    0.021929  -0.023688   0.034367  -0.018418  -0.000029   0.000082
    15  Br   0.000835  -0.248630  -0.181449  -0.056764   0.000339  -0.000482
               7          8          9         10         11         12
     1  C    0.059938  -0.097395   0.038379   0.215588   1.001034  -0.044654
     2  C   -0.024563  -0.612016   0.324403  -0.013051  -1.694723   0.029231
     3  C    0.021869  -2.583767   0.220748  -0.279856   1.352188   0.014023
     4  C    0.295304   0.051417  -0.031758  -0.016943  -0.483503   0.089559
     5  H   -0.001781   0.000024  -0.000015  -0.000081  -0.013804   0.000080
     6  H    0.000015  -0.019857  -0.001724   0.014743   0.005175  -0.000022
     7  H    0.330307  -0.000043   0.000011  -0.000001   0.003774  -0.003300
     8  N   -0.000043   7.957163  -0.143447   0.269483  -0.395988  -0.000712
     9  O    0.000011  -0.143447   8.156413   0.017116   0.320056   0.000370
    10  O   -0.000001   0.269483   0.017116   7.562157  -0.017709  -0.000056
    11  C    0.003774  -0.395988   0.320056  -0.017709  11.620062   0.198611
    12  H   -0.003300  -0.000712   0.000370  -0.000056   0.198611   0.426838
    13  C   -0.021279   2.633430  -0.805689   0.026629  -5.478822   0.031583
    14  H    0.000002  -0.019737   0.010028  -0.000734   0.222176  -0.007454
    15  Br  -0.000305   0.195149  -0.055233   0.001620  -0.455574   0.010522
              13         14         15
     1  C   -2.268787   0.021929   0.000835
     2  C   -7.681815  -0.023688  -0.248630
     3  C  -12.945434   0.034367  -0.181449
     4  C    0.747221  -0.018418  -0.056764
     5  H    0.018770  -0.000029   0.000339
     6  H   -0.001572   0.000082  -0.000482
     7  H   -0.021279   0.000002  -0.000305
     8  N    2.633430  -0.019737   0.195149
     9  O   -0.805689   0.010028  -0.055233
    10  O    0.026629  -0.000734   0.001620
    11  C   -5.478822   0.222176  -0.455574
    12  H    0.031583  -0.007454   0.010522
    13  C   31.172192   0.124625   0.843890
    14  H    0.124625   0.386511  -0.075889
    15  Br   0.843890  -0.075889  35.031563
 Mulliken charges:
               1
     1  C   -0.123232
     2  C    0.248035
     3  C   -0.025571
     4  C   -0.277789
     5  H    0.445622
     6  H    0.441025
     7  H    0.340053
     8  N   -0.233703
     9  O   -0.049658
    10  O    0.221095
    11  C   -0.182953
    12  H    0.255380
    13  C   -0.394941
    14  H    0.346228
    15  Br  -0.009591
 Sum of Mulliken charges =   1.00000
 Mulliken charges with hydrogens summed into heavy atoms:
               1
     1  C    0.322390
     2  C    0.689060
     3  C   -0.025571
     4  C    0.062264
     8  N   -0.233703
     9  O   -0.049658
    10  O    0.221095
    11  C    0.072427
    13  C   -0.048713
    15  Br  -0.009591
 Electronic spatial extent (au):  <R**2>=           3952.4913
 Charge=              1.0000 electrons
 Dipole moment (field-independent basis, Debye):
    X=              2.3833    Y=              6.8471    Z=              0.2691  Tot=              7.2550
 Quadrupole moment (field-independent basis, Debye-Ang):
   XX=            -68.2799   YY=            -56.2930   ZZ=            -65.1468
   XY=             13.1463   XZ=             -0.3502   YZ=             -1.6846
 Traceless Quadrupole moment (field-independent basis, Debye-Ang):
   XX=             -5.0400   YY=              6.9469   ZZ=             -1.9069
   XY=             13.1463   XZ=             -0.3502   YZ=             -1.6846
 Octapole moment (field-independent basis, Debye-Ang**2):
  XXX=           -512.1730  YYY=            141.2080  ZZZ=             91.6326  XYY=           -147.6639
  XXY=             83.1451  XXZ=             30.3767  XZZ=           -139.7150  YZZ=             31.7305
  YYZ=             38.4179  XYZ=             -1.0385
 Hexadecapole moment (field-independent basis, Debye-Ang**3):
 XXXX=          -3430.6228 YYYY=           -773.8832 ZZZZ=           -422.4597 XXXY=            415.5442
 XXXZ=            193.8378 YYYX=            281.2664 YYYZ=           -214.5908 ZZZX=            187.0646
 ZZZY=           -172.9828 XXYY=           -650.3272 XXZZ=           -545.6250 YYZZ=           -203.9722
 XXYZ=            -63.7393 YYXZ=             77.3387 ZZXY=             60.3469
 N-N= 7.760720689589D+02 E-N=-8.703642327570D+03  KE= 3.005870834196D+03
 No NMR shielding tensors so no spin-rotation constants.
 Leave Link  601 at Thu May  2 14:22:22 2024, MaxMem=   134217728 cpu:               7.5 elap:               7.5
 (Enter /software/gaussian/g16-c01/sse4/g16/l9999.exe)
 Unable to Open any file for archive entry.
 1\1\GINC-BHX0009\SP\RwB97XD\6-311+G(d)\C6H5Br1N1O2(1+)\BWEIGHT\02-May-
 2024\0\\#P wB97XD/6-311+G* NoSymm #P Field=Y-262\\TitleMe\\1,1\C,0,0.5
 193,1.233,-0.0319\C,0,1.9445,1.2692,-0.0367\C,0,2.6204,0.0928,-0.025\C
 ,0,-0.196,0.0301,0.001\H,0,-0.0207,2.1742,-0.0434\H,0,2.4828,2.2089,-0
 .0361\H,0,-1.2777,0.0399,0.0117\N,0,4.0921,0.0959,0.0366\O,0,4.6393,-1
 .0217,0.1446\O,0,4.6649,1.1984,-0.0233\C,0,0.4943,-1.1671,0.021\H,0,-0
 .0325,-2.1149,0.0545\C,0,1.9629,-1.2165,-0.0211\H,0,2.4436,-1.9631,0.6
 151\Br,0,2.173,-1.9491,-1.9062\\Version=ES64L-G16RevC.01\HF=-3010.5623
 37\RMSD=6.537e-09\Dipole=-3.3915612,3.9219947,1.3551007\Quadrupole=-3.
 7471116,5.1648363,-1.4177247,9.7739815,-0.2603332,-1.2524413\PG=C01 [X
 (C6H5Br1N1O2)]\\@
 The archive entry for this job was punched.


 IN-LAWS ARE LIKE SEEDS. YOU DON'T NEED THEM
 BUT THEY COME WITH THE TOMATO.
 Job cpu time:       0 days  0 hours 24 minutes 45.8 seconds.
 Elapsed time:       0 days  0 hours 24 minutes 46.1 seconds.
 File lengths (MBytes):  RWF=     40 Int=      0 D2E=      0 Chk=     32 Scr=      1
 Normal termination of Gaussian 16 at Thu May  2 14:22:23 2024.
