 Entering Gaussian System, Link 0=g16
 Initial command:
 /software/gaussian/g16-c01/sse4/g16/l1.exe "/local_scratch/24657492/Gau-17806.inp" -scrdir="/local_scratch/24657492/"
 Entering Link 1 = /software/gaussian/g16-c01/sse4/g16/l1.exe PID=     17807.
  
 Copyright (c) 1988-2019, Gaussian, Inc.  All Rights Reserved.
  
 This is part of the Gaussian(R) 16 program.  It is based on
 the Gaussian(R) 09 system (copyright 2009, Gaussian, Inc.),
 the Gaussian(R) 03 system (copyright 2003, Gaussian, Inc.),
 the Gaussian(R) 98 system (copyright 1998, Gaussian, Inc.),
 the Gaussian(R) 94 system (copyright 1995, Gaussian, Inc.),
 the Gaussian 92(TM) system (copyright 1992, Gaussian, Inc.),
 the Gaussian 90(TM) system (copyright 1990, Gaussian, Inc.),
 the Gaussian 88(TM) system (copyright 1988, Gaussian, Inc.),
 the Gaussian 86(TM) system (copyright 1986, Carnegie Mellon
 University), and the Gaussian 82(TM) system (copyright 1983,
 Carnegie Mellon University). Gaussian is a federally registered
 trademark of Gaussian, Inc.
  
 This software contains proprietary and confidential information,
 including trade secrets, belonging to Gaussian, Inc.
  
 This software is provided under written license and may be
 used, copied, transmitted, or stored only in accord with that
 written license.
  
 The following legend is applicable only to US Government
 contracts under FAR:
  
                    RESTRICTED RIGHTS LEGEND
  
 Use, reproduction and disclosure by the US Government is
 subject to restrictions as set forth in subparagraphs (a)
 and (c) of the Commercial Computer Software - Restricted
 Rights clause in FAR 52.227-19.
  
 Gaussian, Inc.
 340 Quinnipiac St., Bldg. 40, Wallingford CT 06492
  
  
 ---------------------------------------------------------------
 Warning -- This program may not be used in any manner that
 competes with the business of Gaussian, Inc. or will provide
 assistance to any competitor of Gaussian, Inc.  The licensee
 of this program is prohibited from giving any competitor of
 Gaussian, Inc. access to this program.  By using this program,
 the user acknowledges that Gaussian, Inc. is engaged in the
 business of creating and licensing software in the field of
 computational chemistry and represents and warrants to the
 licensee that it is not a competitor of Gaussian, Inc. and that
 it will not use this program in any manner prohibited above.
 ---------------------------------------------------------------
  

 Cite this work as:
 Gaussian 16, Revision C.01,
 M. J. Frisch, G. W. Trucks, H. B. Schlegel, G. E. Scuseria, 
 M. A. Robb, J. R. Cheeseman, G. Scalmani, V. Barone, 
 G. A. Petersson, H. Nakatsuji, X. Li, M. Caricato, A. V. Marenich, 
 J. Bloino, B. G. Janesko, R. Gomperts, B. Mennucci, H. P. Hratchian, 
 J. V. Ortiz, A. F. Izmaylov, J. L. Sonnenberg, D. Williams-Young, 
 F. Ding, F. Lipparini, F. Egidi, J. Goings, B. Peng, A. Petrone, 
 T. Henderson, D. Ranasinghe, V. G. Zakrzewski, J. Gao, N. Rega, 
 G. Zheng, W. Liang, M. Hada, M. Ehara, K. Toyota, R. Fukuda, 
 J. Hasegawa, M. Ishida, T. Nakajima, Y. Honda, O. Kitao, H. Nakai, 
 T. Vreven, K. Throssell, J. A. Montgomery, Jr., J. E. Peralta, 
 F. Ogliaro, M. J. Bearpark, J. J. Heyd, E. N. Brothers, K. N. Kudin, 
 V. N. Staroverov, T. A. Keith, R. Kobayashi, J. Normand, 
 K. Raghavachari, A. P. Rendell, J. C. Burant, S. S. Iyengar, 
 J. Tomasi, M. Cossi, J. M. Millam, M. Klene, C. Adamo, R. Cammi, 
 J. W. Ochterski, R. L. Martin, K. Morokuma, O. Farkas, 
 J. B. Foresman, and D. J. Fox, Gaussian, Inc., Wallingford CT, 2019.
 
 ******************************************
 Gaussian 16:  ES64L-G16RevC.01  3-Jul-2019
                 1-May-2024 
 ******************************************
 %chk=geometry.chk
 %mem=9GB
 %nprocshared=12
 Will use up to   12 processors via shared memory.
 ---------------------------------------
 #P wB97XD/6-311+G* NoSymm #P Field=Y-87
 ---------------------------------------
 1/38=1,172=1/1;
 2/12=2,15=1,17=6,18=5,40=1/2;
 3/5=4,6=6,7=11,11=2,14=2,15=-87,25=1,30=1,74=-58/1,2,3;
 4//1;
 5/5=2,38=5/2;
 6/7=2,8=2,9=2,10=2,28=1/1;
 99/5=1,9=1/99;
 Leave Link    1 at Wed May  1 14:46:56 2024, MaxMem=  1207959552 cpu:               1.3 elap:               1.4
 (Enter /software/gaussian/g16-c01/sse4/g16/l101.exe)
 -------
 TitleMe
 -------
 Symbolic Z-matrix:
 Charge =  1 Multiplicity = 1
 C                     0.0295    1.3397    0.0682 
 C                     1.4348    1.2867    0.0064 
 C                     2.1118    0.0511   -0.0054 
 C                     1.4451   -1.1372    0.0312 
 C                    -0.6879    0.1682    0.11 
 H                    -0.4713    2.2984    0.0781 
 H                     2.0273    2.1965   -0.0322 
 H                     1.9897   -2.0764    0.0232 
 H                    -1.7716    0.1804    0.1582 
 N                     3.5864    0.051    -0.0675 
 O                     4.1471   -1.0597   -0.0881 
 O                     4.145     1.1639   -0.0901 
 C                    -0.0236   -1.1458    0.0835 
 H                    -0.4367   -1.8725    0.7889 
 Br                   -0.5359   -1.8697   -1.7408 
 
 ITRead=  0  0  0  0  0  0  0  0  0  0  0  0  0  0  0
 MicOpt= -1 -1 -1 -1 -1 -1 -1 -1 -1 -1 -1 -1 -1 -1 -1
 NAtoms=     15 NQM=       15 NQMF=       0 NMMI=      0 NMMIF=      0
                NMic=       0 NMicF=      0.
                    Isotopes and Nuclear Properties:
 (Nuclear quadrupole moments (NQMom) in fm**2, nuclear magnetic moments (NMagM)
  in nuclear magnetons)

  Atom         1           2           3           4           5           6           7           8           9          10
 IAtWgt=          12          12          12          12          12           1           1           1           1          14
 AtmWgt=  12.0000000  12.0000000  12.0000000  12.0000000  12.0000000   1.0078250   1.0078250   1.0078250   1.0078250  14.0030740
 NucSpn=           0           0           0           0           0           1           1           1           1           2
 AtZEff=  -0.0000000  -0.0000000  -0.0000000  -0.0000000  -0.0000000  -0.0000000  -0.0000000  -0.0000000  -0.0000000  -0.0000000
 NQMom=    0.0000000   0.0000000   0.0000000   0.0000000   0.0000000   0.0000000   0.0000000   0.0000000   0.0000000   2.0440000
 NMagM=    0.0000000   0.0000000   0.0000000   0.0000000   0.0000000   2.7928460   2.7928460   2.7928460   2.7928460   0.4037610
 AtZNuc=   6.0000000   6.0000000   6.0000000   6.0000000   6.0000000   1.0000000   1.0000000   1.0000000   1.0000000   7.0000000

  Atom        11          12          13          14          15
 IAtWgt=          16          16          12           1          79
 AtmWgt=  15.9949146  15.9949146  12.0000000   1.0078250  78.9183361
 NucSpn=           0           0           0           1           3
 AtZEff=  -0.0000000  -0.0000000  -0.0000000  -0.0000000  -0.0000000
 NQMom=    0.0000000   0.0000000   0.0000000   0.0000000  31.3000000
 NMagM=    0.0000000   0.0000000   0.0000000   2.7928460   2.1063990
 AtZNuc=   8.0000000   8.0000000   6.0000000   1.0000000  35.0000000
 Leave Link  101 at Wed May  1 14:46:57 2024, MaxMem=  1207959552 cpu:               1.3 elap:               1.3
 (Enter /software/gaussian/g16-c01/sse4/g16/l202.exe)
                          Input orientation:                          
 ---------------------------------------------------------------------
 Center     Atomic      Atomic             Coordinates (Angstroms)
 Number     Number       Type             X           Y           Z
 ---------------------------------------------------------------------
      1          6           0        0.029500    1.339700    0.068200
      2          6           0        1.434800    1.286700    0.006400
      3          6           0        2.111800    0.051100   -0.005400
      4          6           0        1.445100   -1.137200    0.031200
      5          6           0       -0.687900    0.168200    0.110000
      6          1           0       -0.471300    2.298400    0.078100
      7          1           0        2.027300    2.196500   -0.032200
      8          1           0        1.989700   -2.076400    0.023200
      9          1           0       -1.771600    0.180400    0.158200
     10          7           0        3.586400    0.051000   -0.067500
     11          8           0        4.147100   -1.059700   -0.088100
     12          8           0        4.145000    1.163900   -0.090100
     13          6           0       -0.023600   -1.145800    0.083500
     14          1           0       -0.436700   -1.872500    0.788900
     15         35           0       -0.535900   -1.869700   -1.740800
 ---------------------------------------------------------------------
                    Distance matrix (angstroms):
                    1          2          3          4          5
     1  C    0.000000
     2  C    1.407656   0.000000
     3  C    2.449874   1.408963   0.000000
     4  C    2.853126   2.424049   1.363043   0.000000
     5  C    1.374344   2.401589   2.804523   2.501993   0.000000
     6  H    1.081667   2.159142   3.424870   3.934226   2.141421
     7  H    2.176095   1.086408   2.147231   3.384750   3.392128
     8  H    3.938800   3.408612   2.131193   1.085702   3.495040
     9  H    2.143837   3.395283   3.888995   3.478413   1.084840
    10  N    3.785591   2.482297   1.475907   2.450862   4.279589
    11  O    4.768247   3.587631   2.320164   2.705743   4.992415
    12  O    4.122294   2.714696   2.319353   3.549540   4.938459
    13  C    2.486114   2.837240   2.449573   1.469656   1.472614
    14  H    3.324903   3.754379   3.290289   2.157764   2.165286
    15  Br   3.727252   4.110867   3.702891   2.756973   2.757100
                    6          7          8          9         10
     6  H    0.000000
     7  H    2.503108   0.000000
     8  H    5.019802   4.273425   0.000000
     9  H    2.486588   4.304945   4.388479   0.000000
    10  N    4.640790   2.652397   2.661486   5.364313   0.000000
    11  O    5.712624   3.885809   2.387560   6.052233   1.244373
    12  O    4.756638   2.356750   3.893289   6.002923   1.245428
    13  C    3.473180   3.923079   2.218790   2.195425   3.806210
    14  H    4.231175   4.827242   2.552506   2.528663   4.540772
    15  Br   4.548146   5.101303   3.087568   3.055498   4.845862
                   11         12         13         14         15
    11  O    0.000000
    12  O    2.223602   0.000000
    13  C    4.175117   4.768865   0.000000
    14  H    4.737193   5.566358   1.093770   0.000000
    15  Br   5.031700   5.817075   2.028436   2.531646   0.000000
 Symmetry turned off by external request.
 Stoichiometry    C6H5BrNO2(1+)
 Framework group  C1[X(C6H5BrNO2)]
 Deg. of freedom    39
 Full point group                 C1      NOp   1
 Rotational constants (GHZ):           1.8252210           0.5518633           0.4576002
 Leave Link  202 at Wed May  1 14:46:58 2024, MaxMem=  1207959552 cpu:               1.3 elap:               1.3
 (Enter /software/gaussian/g16-c01/sse4/g16/l301.exe)
 Standard basis: 6-311+G(d) (5D, 7F)
 Ernie: Thresh=  0.10000D-02 Tol=  0.10000D-05 Strict=F.
 The following finite field(s) will be applied:
 An electric field of              0.0000 -0.0087  0.0000
   261 basis functions,   443 primitive gaussians,   273 cartesian basis functions
    49 alpha electrons       49 beta electrons
       nuclear repulsion energy       739.2122215416 Hartrees.
 IExCor= 4639 DFT=T Ex+Corr=wB97XD ExCW=0 ScaHFX=  1.000000
 ScaDFX=  1.000000  1.000000  1.000000  1.000000 ScalE2=  1.000000  1.000000
 IRadAn=      5 IRanWt=     -1 IRanGd=            0 ICorTp=0 IEmpDi=121
 HFx  wShort=  0.000000 wLong=  0.200000 cFull=  0.222036 cShort=  0.000000 cLong=  0.777964
 DFx  wShort=  0.000000 wLong=  0.200000 cFull=  0.000000 cShort=  0.000000 cLong=  1.000000
 NAtoms=   15 NActive=   15 NUniq=   15 SFac= 1.00D+00 NAtFMM=   60 NAOKFM=F Big=F
 Integral buffers will be    131072 words long.
 Raffenetti 2 integral format.
 Two-electron integral symmetry is turned off.
 R6Disp:  Grimme-D2 Dispersion energy=       -0.0077368520 Hartrees.
 Nuclear repulsion after empirical dispersion term =      739.2044846896 Hartrees.
 Leave Link  301 at Wed May  1 14:46:59 2024, MaxMem=  1207959552 cpu:               1.0 elap:               1.0
 (Enter /software/gaussian/g16-c01/sse4/g16/l302.exe)
 NPDir=0 NMtPBC=     1 NCelOv=     1 NCel=       1 NClECP=     1 NCelD=      1
         NCelK=      1 NCelE2=     1 NClLst=     1 CellRange=     0.0.
 One-electron integrals computed using PRISM.
 NBasis=   261 RedAO= T EigKep=  2.35D-06  NBF=   261
 NBsUse=   261 1.00D-06 EigRej= -1.00D+00 NBFU=   261
 Precomputing XC quadrature grid using
 IXCGrd= 4 IRadAn=           5 IRanWt=          -1 IRanGd=           0 AccXCQ= 0.00D+00.
 Generated NRdTot=       0 NPtTot=           0 NUsed=           0 NTot=          32
 NSgBfM=   273   273   273   273   273 MxSgAt=    15 MxSgA2=    15.
 Leave Link  302 at Wed May  1 14:47:20 2024, MaxMem=  1207959552 cpu:              21.1 elap:              21.2
 (Enter /software/gaussian/g16-c01/sse4/g16/l303.exe)
 DipDrv:  MaxL=1.
 The nuclear repulsion energy is now       740.1933269889 hartrees.
 Leave Link  303 at Wed May  1 14:47:23 2024, MaxMem=  1207959552 cpu:               3.1 elap:               3.1
 (Enter /software/gaussian/g16-c01/sse4/g16/l401.exe)
 ExpMin= 3.50D-02 ExpMax= 4.40D+05 ExpMxC= 1.51D+04 IAcc=3 IRadAn=         5 AccDes= 0.00D+00
 Harris functional with IExCor= 4639 and IRadAn=       5 diagonalized for initial guess.
 HarFok:  IExCor= 4639 AccDes= 0.00D+00 IRadAn=         5 IDoV= 1 UseB2=F ITyADJ=14
 ICtDFT=  3500011 ScaDFX=  1.000000  1.000000  1.000000  1.000000
 FoFCou: FMM=F IPFlag=           0 FMFlag=      100000 FMFlg1=           0
         NFxFlg=           0 DoJE=T BraDBF=F KetDBF=T FulRan=T
         wScrn=  0.000000 ICntrl=       500 IOpCl=  0 I1Cent=   200000004 NGrid=           0
         NMat0=    1 NMatS0=      1 NMatT0=    0 NMatD0=    1 NMtDS0=    0 NMtDT0=    0
 Symmetry not used in FoFCou.
 Harris En= -2970.60733938704    
 JPrj=0 DoOrth=F DoCkMO=F.
 Leave Link  401 at Wed May  1 14:47:53 2024, MaxMem=  1207959552 cpu:              29.2 elap:              29.2
 (Enter /software/gaussian/g16-c01/sse4/g16/l502.exe)
 Two-electron integral symmetry not used.
 Closed shell SCF:
 Using DIIS extrapolation, IDIIS=  1040.
 NGot=  1207959552 LenX=  1207804877 LenY=  1207729907
 Requested convergence on RMS density matrix=1.00D-08 within 128 cycles.
 Requested convergence on MAX density matrix=1.00D-06.
 Requested convergence on             energy=1.00D-06.
 No special actions if energy rises.
 Fock matrices will be formed incrementally for  20 cycles.

 Cycle   1  Pass 1  IDiag  1:
 FoFJK:  IHMeth= 1 ICntrl=       0 DoSepK=T KAlg= 0 I1Cent=           0 FoldK=F
 IRaf=         1 NMat=       1 IRICut=       1 DoRegI=T DoRafI=F ISym2E= 0 IDoP0=0 IntGTp=1.
 FoFCou: FMM=F IPFlag=           0 FMFlag=      100000 FMFlg1=           0
         NFxFlg=           0 DoJE=T BraDBF=F KetDBF=F FulRan=T
         wScrn=  0.000000 ICntrl=       500 IOpCl=  0 I1Cent=           0 NGrid=           0
         NMat0=    1 NMatS0=      1 NMatT0=    0 NMatD0=    1 NMtDS0=    0 NMtDT0=    0
 Symmetry not used in FoFCou.
 E= -3009.70803690609    
 DIIS: error= 3.21D-01 at cycle   1 NSaved=   1.
 NSaved= 1 IEnMin= 1 EnMin= -3009.70803690609     IErMin= 1 ErrMin= 3.21D-01
 ErrMax= 3.21D-01  0.00D+00 EMaxC= 1.00D-01 BMatC= 1.19D+01 BMatP= 1.19D+01
 IDIUse=3 WtCom= 0.00D+00 WtEn= 1.00D+00
 Coeff-Com:  0.100D+01
 Coeff-En:   0.100D+01
 Coeff:      0.100D+01
 Gap=     0.375 Goal=   None    Shift=    0.000
 GapD=    0.375 DampG=1.000 DampE=0.250 DampFc=0.2500 IDamp=-1.
 Damping current iteration by 2.50D-01
 RMSDP=5.34D-02 MaxDP=6.39D+00              OVMax= 2.45D-01

 Cycle   2  Pass 1  IDiag  1:
 RMSU=  4.94D-03    CP:  8.77D-01
 E= -3009.99506178321     Delta-E=       -0.287024877113 Rises=F Damp=T
 DIIS: error= 2.25D-01 at cycle   2 NSaved=   2.
 NSaved= 2 IEnMin= 2 EnMin= -3009.99506178321     IErMin= 2 ErrMin= 2.25D-01
 ErrMax= 2.25D-01  0.00D+00 EMaxC= 1.00D-01 BMatC= 5.45D+00 BMatP= 1.19D+01
 IDIUse=3 WtCom= 0.00D+00 WtEn= 1.00D+00
 Coeff-Com: -0.184D+01 0.284D+01
 Coeff-En:   0.000D+00 0.100D+01
 Coeff:      0.000D+00 0.100D+01
 Gap=     0.284 Goal=   None    Shift=    0.000
 RMSDP=4.16D-02 MaxDP=4.72D+00 DE=-2.87D-01 OVMax= 1.07D-01

 Cycle   3  Pass 1  IDiag  1:
 RMSU=  5.39D-03    CP:  4.87D-01  3.00D+00
 E= -3010.39015160620     Delta-E=       -0.395089822993 Rises=F Damp=F
 DIIS: error= 6.51D-02 at cycle   3 NSaved=   3.
 NSaved= 3 IEnMin= 3 EnMin= -3010.39015160620     IErMin= 3 ErrMin= 6.51D-02
 ErrMax= 6.51D-02  0.00D+00 EMaxC= 1.00D-01 BMatC= 7.19D-01 BMatP= 5.45D+00
 IDIUse=3 WtCom= 3.49D-01 WtEn= 6.51D-01
 Coeff-Com:  0.231D+01-0.301D+01 0.169D+01
 Coeff-En:   0.117D-01 0.000D+00 0.988D+00
 Coeff:      0.815D+00-0.105D+01 0.123D+01
 Gap=     0.254 Goal=   None    Shift=    0.000
 RMSDP=8.49D-03 MaxDP=4.99D-01 DE=-3.95D-01 OVMax= 7.18D-02

 Cycle   4  Pass 1  IDiag  1:
 RMSU=  6.61D-03    CP:  4.98D-01  2.73D+00  1.81D+00
 E= -3010.47720945097     Delta-E=       -0.087057844777 Rises=F Damp=F
 DIIS: error= 4.04D-02 at cycle   4 NSaved=   4.
 NSaved= 4 IEnMin= 4 EnMin= -3010.47720945097     IErMin= 4 ErrMin= 4.04D-02
 ErrMax= 4.04D-02  0.00D+00 EMaxC= 1.00D-01 BMatC= 2.69D-01 BMatP= 7.19D-01
 IDIUse=3 WtCom= 5.96D-01 WtEn= 4.04D-01
 Coeff-Com:  0.453D+00-0.587D+00 0.620D+00 0.514D+00
 Coeff-En:   0.000D+00 0.000D+00 0.254D+00 0.746D+00
 Coeff:      0.270D+00-0.350D+00 0.472D+00 0.608D+00
 Gap=     0.281 Goal=   None    Shift=    0.000
 RMSDP=3.82D-03 MaxDP=2.97D-01 DE=-8.71D-02 OVMax= 7.97D-02

 Cycle   5  Pass 1  IDiag  1:
 RMSU=  2.14D-03    CP:  4.72D-01  2.96D+00  1.79D+00  7.79D-01
 E= -3010.52730851142     Delta-E=       -0.050099060441 Rises=F Damp=F
 DIIS: error= 1.35D-02 at cycle   5 NSaved=   5.
 NSaved= 5 IEnMin= 5 EnMin= -3010.52730851142     IErMin= 5 ErrMin= 1.35D-02
 ErrMax= 1.35D-02  0.00D+00 EMaxC= 1.00D-01 BMatC= 1.71D-02 BMatP= 2.69D-01
 IDIUse=3 WtCom= 8.65D-01 WtEn= 1.35D-01
 Coeff-Com: -0.817D-02 0.170D-01 0.190D+00 0.366D+00 0.435D+00
 Coeff-En:   0.000D+00 0.000D+00 0.000D+00 0.603D-01 0.940D+00
 Coeff:     -0.707D-02 0.147D-01 0.164D+00 0.325D+00 0.503D+00
 Gap=     0.267 Goal=   None    Shift=    0.000
 RMSDP=1.34D-03 MaxDP=1.18D-01 DE=-5.01D-02 OVMax= 4.73D-02

 Cycle   6  Pass 1  IDiag  1:
 RMSU=  5.76D-04    CP:  4.65D-01  2.99D+00  1.76D+00  8.37D-01  5.90D-01
 E= -3010.53648781291     Delta-E=       -0.009179301495 Rises=F Damp=F
 DIIS: error= 3.67D-03 at cycle   6 NSaved=   6.
 NSaved= 6 IEnMin= 6 EnMin= -3010.53648781291     IErMin= 6 ErrMin= 3.67D-03
 ErrMax= 3.67D-03  0.00D+00 EMaxC= 1.00D-01 BMatC= 1.57D-03 BMatP= 1.71D-02
 IDIUse=3 WtCom= 9.63D-01 WtEn= 3.67D-02
 Coeff-Com: -0.658D-01 0.887D-01 0.674D-02 0.115D+00 0.322D+00 0.533D+00
 Coeff-En:   0.000D+00 0.000D+00 0.000D+00 0.000D+00 0.948D-01 0.905D+00
 Coeff:     -0.634D-01 0.854D-01 0.649D-02 0.111D+00 0.314D+00 0.547D+00
 Gap=     0.259 Goal=   None    Shift=    0.000
 RMSDP=4.05D-04 MaxDP=2.06D-02 DE=-9.18D-03 OVMax= 1.15D-02

 Cycle   7  Pass 1  IDiag  1:
 RMSU=  2.27D-04    CP:  4.64D-01  2.99D+00  1.77D+00  8.18D-01  7.14D-01
                    CP:  8.09D-01
 E= -3010.53757389992     Delta-E=       -0.001086087012 Rises=F Damp=F
 DIIS: error= 3.40D-04 at cycle   7 NSaved=   7.
 NSaved= 7 IEnMin= 7 EnMin= -3010.53757389992     IErMin= 7 ErrMin= 3.40D-04
 ErrMax= 3.40D-04  0.00D+00 EMaxC= 1.00D-01 BMatC= 1.91D-05 BMatP= 1.57D-03
 IDIUse=3 WtCom= 9.97D-01 WtEn= 3.40D-03
 Coeff-Com: -0.288D-01 0.383D-01-0.122D-01 0.199D-01 0.803D-01 0.191D+00
 Coeff-Com:  0.712D+00
 Coeff-En:   0.000D+00 0.000D+00 0.000D+00 0.000D+00 0.000D+00 0.000D+00
 Coeff-En:   0.100D+01
 Coeff:     -0.287D-01 0.382D-01-0.122D-01 0.198D-01 0.800D-01 0.190D+00
 Coeff:      0.713D+00
 Gap=     0.257 Goal=   None    Shift=    0.000
 RMSDP=1.67D-04 MaxDP=1.30D-02 DE=-1.09D-03 OVMax= 3.12D-03

 Cycle   8  Pass 1  IDiag  1:
 RMSU=  7.74D-05    CP:  4.63D-01  2.99D+00  1.79D+00  8.28D-01  7.31D-01
                    CP:  8.83D-01  9.93D-01
 E= -3010.53760266934     Delta-E=       -0.000028769416 Rises=F Damp=F
 DIIS: error= 1.26D-04 at cycle   8 NSaved=   8.
 NSaved= 8 IEnMin= 8 EnMin= -3010.53760266934     IErMin= 8 ErrMin= 1.26D-04
 ErrMax= 1.26D-04  0.00D+00 EMaxC= 1.00D-01 BMatC= 2.77D-06 BMatP= 1.91D-05
 IDIUse=3 WtCom= 9.99D-01 WtEn= 1.26D-03
 Coeff-Com:  0.271D-02-0.381D-02-0.419D-02-0.116D-01-0.334D-01-0.536D-01
 Coeff-Com:  0.182D+00 0.921D+00
 Coeff-En:   0.000D+00 0.000D+00 0.000D+00 0.000D+00 0.000D+00 0.000D+00
 Coeff-En:   0.000D+00 0.100D+01
 Coeff:      0.270D-02-0.380D-02-0.419D-02-0.116D-01-0.333D-01-0.536D-01
 Coeff:      0.182D+00 0.922D+00
 Gap=     0.256 Goal=   None    Shift=    0.000
 RMSDP=7.28D-05 MaxDP=4.67D-03 DE=-2.88D-05 OVMax= 2.37D-03

 Cycle   9  Pass 1  IDiag  1:
 RMSU=  2.86D-05    CP:  4.63D-01  2.99D+00  1.79D+00  8.30D-01  7.40D-01
                    CP:  9.04D-01  1.19D+00  1.36D+00
 E= -3010.53761068023     Delta-E=       -0.000008010887 Rises=F Damp=F
 DIIS: error= 5.20D-05 at cycle   9 NSaved=   9.
 NSaved= 9 IEnMin= 9 EnMin= -3010.53761068023     IErMin= 9 ErrMin= 5.20D-05
 ErrMax= 5.20D-05  0.00D+00 EMaxC= 1.00D-01 BMatC= 3.70D-07 BMatP= 2.77D-06
 IDIUse=1 WtCom= 1.00D+00 WtEn= 0.00D+00
 Coeff-Com:  0.483D-02-0.649D-02 0.285D-03-0.644D-02-0.200D-01-0.423D-01
 Coeff-Com: -0.409D-01 0.289D+00 0.822D+00
 Coeff:      0.483D-02-0.649D-02 0.285D-03-0.644D-02-0.200D-01-0.423D-01
 Coeff:     -0.409D-01 0.289D+00 0.822D+00
 Gap=     0.257 Goal=   None    Shift=    0.000
 RMSDP=2.43D-05 MaxDP=1.67D-03 DE=-8.01D-06 OVMax= 1.24D-03

 Cycle  10  Pass 1  IDiag  1:
 RMSU=  9.98D-06    CP:  4.63D-01  2.99D+00  1.79D+00  8.30D-01  7.44D-01
                    CP:  9.11D-01  1.24D+00  1.51D+00  1.26D+00
 E= -3010.53761214575     Delta-E=       -0.000001465528 Rises=F Damp=F
 DIIS: error= 1.81D-05 at cycle  10 NSaved=  10.
 NSaved=10 IEnMin=10 EnMin= -3010.53761214575     IErMin=10 ErrMin= 1.81D-05
 ErrMax= 1.81D-05  0.00D+00 EMaxC= 1.00D-01 BMatC= 8.76D-08 BMatP= 3.70D-07
 IDIUse=1 WtCom= 1.00D+00 WtEn= 0.00D+00
 Coeff-Com:  0.313D-03-0.393D-03 0.530D-03 0.438D-03 0.387D-02 0.519D-02
 Coeff-Com: -0.458D-01-0.139D+00 0.200D+00 0.974D+00
 Coeff:      0.313D-03-0.393D-03 0.530D-03 0.438D-03 0.387D-02 0.519D-02
 Coeff:     -0.458D-01-0.139D+00 0.200D+00 0.974D+00
 Gap=     0.257 Goal=   None    Shift=    0.000
 RMSDP=1.17D-05 MaxDP=6.12D-04 DE=-1.47D-06 OVMax= 6.82D-04

 Cycle  11  Pass 1  IDiag  1:
 RMSU=  6.53D-06    CP:  4.63D-01  2.99D+00  1.79D+00  8.29D-01  7.45D-01
                    CP:  9.10D-01  1.26D+00  1.54D+00  1.42D+00  1.28D+00
 E= -3010.53761246355     Delta-E=       -0.000000317799 Rises=F Damp=F
 DIIS: error= 6.01D-06 at cycle  11 NSaved=  11.
 NSaved=11 IEnMin=11 EnMin= -3010.53761246355     IErMin=11 ErrMin= 6.01D-06
 ErrMax= 6.01D-06  0.00D+00 EMaxC= 1.00D-01 BMatC= 1.14D-08 BMatP= 8.76D-08
 IDIUse=1 WtCom= 1.00D+00 WtEn= 0.00D+00
 Coeff-Com: -0.440D-03 0.601D-03 0.185D-03 0.950D-03 0.398D-02 0.719D-02
 Coeff-Com: -0.127D-01-0.872D-01-0.114D-02 0.379D+00 0.710D+00
 Coeff:     -0.440D-03 0.601D-03 0.185D-03 0.950D-03 0.398D-02 0.719D-02
 Coeff:     -0.127D-01-0.872D-01-0.114D-02 0.379D+00 0.710D+00
 Gap=     0.257 Goal=   None    Shift=    0.000
 RMSDP=4.52D-06 MaxDP=2.67D-04 DE=-3.18D-07 OVMax= 1.62D-04

 Cycle  12  Pass 1  IDiag  1:
 RMSU=  1.92D-06    CP:  4.63D-01  2.99D+00  1.79D+00  8.29D-01  7.44D-01
                    CP:  9.09D-01  1.26D+00  1.54D+00  1.47D+00  1.46D+00
                    CP:  1.24D+00
 E= -3010.53761249468     Delta-E=       -0.000000031123 Rises=F Damp=F
 DIIS: error= 2.94D-06 at cycle  12 NSaved=  12.
 NSaved=12 IEnMin=12 EnMin= -3010.53761249468     IErMin=12 ErrMin= 2.94D-06
 ErrMax= 2.94D-06  0.00D+00 EMaxC= 1.00D-01 BMatC= 1.97D-09 BMatP= 1.14D-08
 IDIUse=1 WtCom= 1.00D+00 WtEn= 0.00D+00
 Coeff-Com: -0.100D-03 0.132D-03-0.142D-04 0.159D-03-0.194D-03 0.210D-04
 Coeff-Com:  0.903D-02 0.117D-01-0.523D-01-0.169D+00 0.197D+00 0.100D+01
 Coeff:     -0.100D-03 0.132D-03-0.142D-04 0.159D-03-0.194D-03 0.210D-04
 Coeff:      0.903D-02 0.117D-01-0.523D-01-0.169D+00 0.197D+00 0.100D+01
 Gap=     0.257 Goal=   None    Shift=    0.000
 RMSDP=2.79D-06 MaxDP=1.24D-04 DE=-3.11D-08 OVMax= 1.23D-04

 Cycle  13  Pass 1  IDiag  1:
 RMSU=  6.63D-07    CP:  4.63D-01  2.99D+00  1.79D+00  8.29D-01  7.44D-01
                    CP:  9.09D-01  1.26D+00  1.53D+00  1.48D+00  1.55D+00
                    CP:  1.52D+00  1.21D+00
 E= -3010.53761250388     Delta-E=       -0.000000009208 Rises=F Damp=F
 DIIS: error= 5.98D-07 at cycle  13 NSaved=  13.
 NSaved=13 IEnMin=13 EnMin= -3010.53761250388     IErMin=13 ErrMin= 5.98D-07
 ErrMax= 5.98D-07  0.00D+00 EMaxC= 1.00D-01 BMatC= 2.42D-10 BMatP= 1.97D-09
 IDIUse=1 WtCom= 1.00D+00 WtEn= 0.00D+00
 Coeff-Com: -0.175D-04 0.221D-04-0.194D-04-0.287D-05-0.288D-03-0.468D-03
 Coeff-Com:  0.331D-02 0.673D-02-0.124D-01-0.663D-01-0.972D-02 0.253D+00
 Coeff-Com:  0.826D+00
 Coeff:     -0.175D-04 0.221D-04-0.194D-04-0.287D-05-0.288D-03-0.468D-03
 Coeff:      0.331D-02 0.673D-02-0.124D-01-0.663D-01-0.972D-02 0.253D+00
 Coeff:      0.826D+00
 Gap=     0.257 Goal=   None    Shift=    0.000
 RMSDP=6.43D-07 MaxDP=3.07D-05 DE=-9.21D-09 OVMax= 2.23D-05

 Cycle  14  Pass 1  IDiag  1:
 RMSU=  2.66D-07    CP:  4.63D-01  2.99D+00  1.79D+00  8.29D-01  7.44D-01
                    CP:  9.09D-01  1.26D+00  1.53D+00  1.49D+00  1.56D+00
                    CP:  1.57D+00  1.30D+00  1.32D+00
 E= -3010.53761250481     Delta-E=       -0.000000000929 Rises=F Damp=F
 DIIS: error= 4.83D-07 at cycle  14 NSaved=  14.
 NSaved=14 IEnMin=14 EnMin= -3010.53761250481     IErMin=14 ErrMin= 4.83D-07
 ErrMax= 4.83D-07  0.00D+00 EMaxC= 1.00D-01 BMatC= 4.77D-11 BMatP= 2.42D-10
 IDIUse=1 WtCom= 1.00D+00 WtEn= 0.00D+00
 Coeff-Com:  0.620D-05-0.816D-05-0.824D-05-0.359D-04-0.146D-04-0.104D-03
 Coeff-Com: -0.116D-02-0.160D-02 0.114D-01 0.259D-01-0.538D-01-0.184D+00
 Coeff-Com:  0.197D+00 0.101D+01
 Coeff:      0.620D-05-0.816D-05-0.824D-05-0.359D-04-0.146D-04-0.104D-03
 Coeff:     -0.116D-02-0.160D-02 0.114D-01 0.259D-01-0.538D-01-0.184D+00
 Coeff:      0.197D+00 0.101D+01
 Gap=     0.257 Goal=   None    Shift=    0.000
 RMSDP=2.61D-07 MaxDP=1.32D-05 DE=-9.29D-10 OVMax= 2.03D-05

 Cycle  15  Pass 1  IDiag  1:
 RMSU=  9.96D-08    CP:  4.63D-01  2.99D+00  1.79D+00  8.29D-01  7.44D-01
                    CP:  9.09D-01  1.26D+00  1.53D+00  1.49D+00  1.56D+00
                    CP:  1.58D+00  1.32D+00  1.57D+00  1.35D+00
 E= -3010.53761250515     Delta-E=       -0.000000000339 Rises=F Damp=F
 DIIS: error= 1.64D-07 at cycle  15 NSaved=  15.
 NSaved=15 IEnMin=15 EnMin= -3010.53761250515     IErMin=15 ErrMin= 1.64D-07
 ErrMax= 1.64D-07  0.00D+00 EMaxC= 1.00D-01 BMatC= 1.28D-11 BMatP= 4.77D-11
 IDIUse=1 WtCom= 1.00D+00 WtEn= 0.00D+00
 Coeff-Com:  0.565D-05-0.736D-05 0.144D-05-0.940D-05 0.379D-04 0.633D-04
 Coeff-Com: -0.686D-03-0.136D-02 0.408D-02 0.134D-01-0.579D-02-0.754D-01
 Coeff-Com: -0.179D+00 0.230D+00 0.101D+01
 Coeff:      0.565D-05-0.736D-05 0.144D-05-0.940D-05 0.379D-04 0.633D-04
 Coeff:     -0.686D-03-0.136D-02 0.408D-02 0.134D-01-0.579D-02-0.754D-01
 Coeff:     -0.179D+00 0.230D+00 0.101D+01
 Gap=     0.257 Goal=   None    Shift=    0.000
 RMSDP=1.83D-07 MaxDP=1.21D-05 DE=-3.39D-10 OVMax= 9.78D-06

 Cycle  16  Pass 1  IDiag  1:
 RMSU=  8.13D-08    CP:  4.63D-01  2.99D+00  1.79D+00  8.29D-01  7.44D-01
                    CP:  9.09D-01  1.26D+00  1.53D+00  1.49D+00  1.56D+00
                    CP:  1.59D+00  1.33D+00  1.71D+00  1.70D+00  1.34D+00
 E= -3010.53761250530     Delta-E=       -0.000000000146 Rises=F Damp=F
 DIIS: error= 7.31D-08 at cycle  16 NSaved=  16.
 NSaved=16 IEnMin=16 EnMin= -3010.53761250530     IErMin=16 ErrMin= 7.31D-08
 ErrMax= 7.31D-08  0.00D+00 EMaxC= 1.00D-01 BMatC= 1.49D-12 BMatP= 1.28D-11
 IDIUse=1 WtCom= 1.00D+00 WtEn= 0.00D+00
 Coeff-Com:  0.234D-05-0.310D-05 0.245D-05 0.290D-05 0.113D-04 0.382D-04
 Coeff-Com:  0.285D-04-0.125D-03-0.739D-03-0.644D-03 0.984D-02 0.138D-01
 Coeff-Com: -0.918D-01-0.755D-01 0.246D+00 0.899D+00
 Coeff:      0.234D-05-0.310D-05 0.245D-05 0.290D-05 0.113D-04 0.382D-04
 Coeff:      0.285D-04-0.125D-03-0.739D-03-0.644D-03 0.984D-02 0.138D-01
 Coeff:     -0.918D-01-0.755D-01 0.246D+00 0.899D+00
 Gap=     0.257 Goal=   None    Shift=    0.000
 RMSDP=4.17D-08 MaxDP=1.70D-06 DE=-1.46D-10 OVMax= 3.42D-06

 Cycle  17  Pass 1  IDiag  1:
 RMSU=  1.57D-08    CP:  4.63D-01  2.99D+00  1.79D+00  8.29D-01  7.44D-01
                    CP:  9.09D-01  1.26D+00  1.53D+00  1.49D+00  1.56D+00
                    CP:  1.59D+00  1.33D+00  1.73D+00  1.77D+00  1.54D+00
                    CP:  1.21D+00
 E= -3010.53761250527     Delta-E=        0.000000000028 Rises=F Damp=F
 DIIS: error= 3.36D-08 at cycle  17 NSaved=  17.
 NSaved=17 IEnMin=16 EnMin= -3010.53761250530     IErMin=17 ErrMin= 3.36D-08
 ErrMax= 3.36D-08  0.00D+00 EMaxC= 1.00D-01 BMatC= 3.36D-13 BMatP= 1.49D-12
 IDIUse=1 WtCom= 1.00D+00 WtEn= 0.00D+00
 Coeff-Com:  0.348D-06-0.486D-06 0.720D-06 0.220D-05 0.239D-06 0.993D-05
 Coeff-Com:  0.107D-03 0.117D-03-0.924D-03-0.209D-02 0.429D-02 0.144D-01
 Coeff-Com: -0.123D-01-0.523D-01-0.820D-01 0.310D+00 0.820D+00
 Coeff:      0.348D-06-0.486D-06 0.720D-06 0.220D-05 0.239D-06 0.993D-05
 Coeff:      0.107D-03 0.117D-03-0.924D-03-0.209D-02 0.429D-02 0.144D-01
 Coeff:     -0.123D-01-0.523D-01-0.820D-01 0.310D+00 0.820D+00
 Gap=     0.257 Goal=   None    Shift=    0.000
 RMSDP=2.38D-08 MaxDP=1.30D-06 DE= 2.82D-11 OVMax= 1.17D-06

 Cycle  18  Pass 1  IDiag  1:
 RMSU=  6.50D-09    CP:  4.63D-01  2.99D+00  1.79D+00  8.29D-01  7.44D-01
                    CP:  9.09D-01  1.26D+00  1.53D+00  1.49D+00  1.57D+00
                    CP:  1.59D+00  1.33D+00  1.74D+00  1.80D+00  1.61D+00
                    CP:  1.36D+00  1.18D+00
 E= -3010.53761250529     Delta-E=       -0.000000000024 Rises=F Damp=F
 DIIS: error= 8.77D-09 at cycle  18 NSaved=  18.
 NSaved=18 IEnMin=16 EnMin= -3010.53761250530     IErMin=18 ErrMin= 8.77D-09
 ErrMax= 8.77D-09  0.00D+00 EMaxC= 1.00D-01 BMatC= 2.34D-14 BMatP= 3.36D-13
 IDIUse=1 WtCom= 1.00D+00 WtEn= 0.00D+00
 Coeff-Com: -0.745D-07 0.962D-07-0.204D-06-0.373D-06-0.109D-05-0.250D-05
 Coeff-Com:  0.538D-05 0.305D-04 0.354D-05-0.488D-04-0.855D-03-0.569D-03
 Coeff-Com:  0.947D-02 0.116D-01-0.458D-01-0.890D-01 0.942D-01 0.102D+01
 Coeff:     -0.745D-07 0.962D-07-0.204D-06-0.373D-06-0.109D-05-0.250D-05
 Coeff:      0.538D-05 0.305D-04 0.354D-05-0.488D-04-0.855D-03-0.569D-03
 Coeff:      0.947D-02 0.116D-01-0.458D-01-0.890D-01 0.942D-01 0.102D+01
 Gap=     0.257 Goal=   None    Shift=    0.000
 RMSDP=8.71D-09 MaxDP=7.40D-07 DE=-2.36D-11 OVMax= 2.58D-07

 SCF Done:  E(RwB97XD) =  -3010.53761251     A.U. after   18 cycles
            NFock= 18  Conv=0.87D-08     -V/T= 2.0016
 KE= 3.005865413381D+03 PE=-8.633437849614D+03 EE= 1.876841496739D+03
 Leave Link  502 at Wed May  1 15:04:32 2024, MaxMem=  1207959552 cpu:             998.6 elap:             998.9
 (Enter /software/gaussian/g16-c01/sse4/g16/l601.exe)
 Copying SCF densities to generalized density rwf, IOpCl= 0 IROHF=0.

 **********************************************************************

            Population analysis using the SCF Density.

 **********************************************************************

 Alpha  occ. eigenvalues -- -483.32497 -62.87539 -56.67209 -56.66668 -56.66667
 Alpha  occ. eigenvalues --  -19.46018 -19.45784 -14.85413 -10.59321 -10.57448
 Alpha  occ. eigenvalues --  -10.57361 -10.57242 -10.56609 -10.52399  -9.03358
 Alpha  occ. eigenvalues --   -6.85974  -6.84196  -6.84186  -2.95893  -2.95419
 Alpha  occ. eigenvalues --   -2.95409  -2.93987  -2.93987  -1.49684  -1.32654
 Alpha  occ. eigenvalues --   -1.22892  -1.14557  -1.11705  -1.05324  -1.01069
 Alpha  occ. eigenvalues --   -0.95693  -0.91036  -0.85298  -0.80842  -0.80672
 Alpha  occ. eigenvalues --   -0.80061  -0.78640  -0.76127  -0.75855  -0.72698
 Alpha  occ. eigenvalues --   -0.69322  -0.67406  -0.63842  -0.60738  -0.58032
 Alpha  occ. eigenvalues --   -0.57106  -0.56252  -0.56042  -0.55591
 Alpha virt. eigenvalues --   -0.29940  -0.21413  -0.16341  -0.13646  -0.11093
 Alpha virt. eigenvalues --   -0.07491  -0.07048  -0.06108  -0.04921  -0.03792
 Alpha virt. eigenvalues --   -0.03307  -0.02788  -0.02338  -0.01742  -0.01588
 Alpha virt. eigenvalues --    0.00576   0.01281   0.02193   0.02400   0.03007
 Alpha virt. eigenvalues --    0.03215   0.04122   0.04995   0.05737   0.06350
 Alpha virt. eigenvalues --    0.07029   0.08256   0.08309   0.08663   0.09889
 Alpha virt. eigenvalues --    0.10423   0.10556   0.11416   0.11573   0.12416
 Alpha virt. eigenvalues --    0.13193   0.13301   0.14055   0.14890   0.15951
 Alpha virt. eigenvalues --    0.16943   0.17946   0.18309   0.19097   0.19697
 Alpha virt. eigenvalues --    0.20536   0.20742   0.21327   0.22290   0.24635
 Alpha virt. eigenvalues --    0.25886   0.27311   0.28045   0.28398   0.29362
 Alpha virt. eigenvalues --    0.31523   0.32642   0.33482   0.35115   0.36278
 Alpha virt. eigenvalues --    0.36878   0.38154   0.39190   0.40577   0.40884
 Alpha virt. eigenvalues --    0.42739   0.43644   0.44426   0.46250   0.47250
 Alpha virt. eigenvalues --    0.48173   0.49366   0.50760   0.51651   0.53354
 Alpha virt. eigenvalues --    0.53702   0.54321   0.56096   0.56762   0.60455
 Alpha virt. eigenvalues --    0.61132   0.61902   0.63138   0.66018   0.68546
 Alpha virt. eigenvalues --    0.69617   0.71912   0.72940   0.73823   0.73898
 Alpha virt. eigenvalues --    0.75334   0.79558   0.79900   0.82130   0.84899
 Alpha virt. eigenvalues --    0.86035   0.87996   0.91549   0.92786   0.98176
 Alpha virt. eigenvalues --    0.99638   1.01192   1.04236   1.05354   1.06346
 Alpha virt. eigenvalues --    1.08697   1.10915   1.12046   1.12452   1.14236
 Alpha virt. eigenvalues --    1.22143   1.24398   1.26569   1.33017   1.36349
 Alpha virt. eigenvalues --    1.36751   1.37450   1.44757   1.54222   1.56995
 Alpha virt. eigenvalues --    1.58309   1.58520   1.60553   1.62076   1.66065
 Alpha virt. eigenvalues --    1.68953   1.69381   1.73594   1.75227   1.78972
 Alpha virt. eigenvalues --    1.80835   1.85420   1.87543   1.92095   1.94193
 Alpha virt. eigenvalues --    1.97397   2.02772   2.03579   2.05967   2.07639
 Alpha virt. eigenvalues --    2.08955   2.14619   2.20532   2.22746   2.30170
 Alpha virt. eigenvalues --    2.37407   2.40868   2.41954   2.43331   2.52417
 Alpha virt. eigenvalues --    2.56655   2.63023   2.66000   2.68099   2.71754
 Alpha virt. eigenvalues --    2.73123   2.76345   2.77317   2.80948   2.81485
 Alpha virt. eigenvalues --    2.93162   2.95915   3.00556   3.04868   3.08772
 Alpha virt. eigenvalues --    3.12935   3.15252   3.19300   3.23688   3.24182
 Alpha virt. eigenvalues --    3.27287   3.39041   3.47967   3.51179   3.54236
 Alpha virt. eigenvalues --    3.56672   3.69835   3.74045   3.82088   3.86967
 Alpha virt. eigenvalues --    4.07466   4.07711   4.15340   4.20506   4.41372
 Alpha virt. eigenvalues --    4.44293   4.57213   4.59810   4.93127   4.95816
 Alpha virt. eigenvalues --    5.04435   5.08643   5.62755   6.15707   6.63209
 Alpha virt. eigenvalues --    7.46146   7.47717   7.57569  23.21161  23.61171
 Alpha virt. eigenvalues --   23.68666  23.79549  23.96091  24.01310  35.32543
 Alpha virt. eigenvalues --   47.89878  49.85487  49.94302 289.79226 289.80895
 Alpha virt. eigenvalues --  289.933531020.90328
          Condensed to atoms (all electrons):
               1          2          3          4          5          6
     1  C    8.590810  -1.965418   0.157244  -1.455878  -0.730678   0.308383
     2  C   -1.965418  12.152312  -1.674266  -2.786934   0.873033  -0.011951
     3  C    0.157244  -1.674266  12.750990  -2.753713  -1.235883   0.023319
     4  C   -1.455878  -2.786934  -2.753713  14.802228   1.007528   0.006835
     5  C   -0.730678   0.873033  -1.235883   1.007528   7.390273   0.009709
     6  H    0.308383  -0.011951   0.023319   0.006835   0.009709   0.304138
     7  H    0.055780   0.246080   0.059705  -0.025197  -0.016468  -0.001333
     8  H    0.006518  -0.021450   0.095598   0.209200  -0.023011   0.000003
     9  H    0.045958  -0.020219   0.006448  -0.014291   0.304053  -0.002138
    10  N   -0.108943   0.302905  -0.902746   0.314317   0.022592  -0.000520
    11  O    0.026980  -0.088348  -0.252922  -0.044500  -0.061802  -0.000025
    12  O    0.296143   0.009013  -0.286588  -0.086707  -0.038606   0.000003
    13  C    1.316167  -1.529121   0.699797  -3.451437  -1.536289  -0.005101
    14  H   -0.014757   0.011890  -0.007371  -0.000318  -0.012841  -0.000032
    15  Br   0.031163   0.026086  -0.006751   0.011691   0.019776  -0.000357
               7          8          9         10         11         12
     1  C    0.055780   0.006518   0.045958  -0.108943   0.026980   0.296143
     2  C    0.246080  -0.021450  -0.020219   0.302905  -0.088348   0.009013
     3  C    0.059705   0.095598   0.006448  -0.902746  -0.252922  -0.286588
     4  C   -0.025197   0.209200  -0.014291   0.314317  -0.044500  -0.086707
     5  C   -0.016468  -0.023011   0.304053   0.022592  -0.061802  -0.038606
     6  H   -0.001333   0.000003  -0.002138  -0.000520  -0.000025   0.000003
     7  H    0.275911   0.000006   0.000031  -0.022214  -0.001224   0.019563
     8  H    0.000006   0.320416   0.000095  -0.026703   0.025212  -0.001129
     9  H    0.000031   0.000095   0.320716   0.000336   0.000006   0.000006
    10  N   -0.022214  -0.026703   0.000336   7.356306   0.153734   0.188377
    11  O   -0.001224   0.025212   0.000006   0.153734   7.918339   0.001026
    12  O    0.019563  -0.001129   0.000006   0.188377   0.001026   7.786936
    13  C    0.012218   0.072157   0.007224  -0.178135   0.336923   0.031789
    14  H   -0.000022  -0.004980  -0.005264  -0.000166  -0.000194  -0.000080
    15  Br  -0.000014   0.003992   0.003623   0.009464  -0.000401   0.002080
              13         14         15
     1  C    1.316167  -0.014757   0.031163
     2  C   -1.529121   0.011890   0.026086
     3  C    0.699797  -0.007371  -0.006751
     4  C   -3.451437  -0.000318   0.011691
     5  C   -1.536289  -0.012841   0.019776
     6  H   -0.005101  -0.000032  -0.000357
     7  H    0.012218  -0.000022  -0.000014
     8  H    0.072157  -0.004980   0.003992
     9  H    0.007224  -0.005264   0.003623
    10  N   -0.178135  -0.000166   0.009464
    11  O    0.336923  -0.000194  -0.000401
    12  O    0.031789  -0.000080   0.002080
    13  C   10.279840   0.334225   0.069052
    14  H    0.334225   0.368434  -0.050070
    15  Br   0.069052  -0.050070  34.763254
 Mulliken charges:
               1
     1  C   -0.559471
     2  C    0.476390
     3  C   -0.672862
     4  C    0.267175
     5  C    0.028613
     6  H    0.369067
     7  H    0.397177
     8  H    0.344077
     9  H    0.353416
    10  N   -0.108604
    11  O   -0.012803
    12  O    0.078175
    13  C   -0.459310
    14  H    0.381546
    15  Br   0.117413
 Sum of Mulliken charges =   1.00000
 Mulliken charges with hydrogens summed into heavy atoms:
               1
     1  C   -0.190404
     2  C    0.873567
     3  C   -0.672862
     4  C    0.611252
     5  C    0.382029
    10  N   -0.108604
    11  O   -0.012803
    12  O    0.078175
    13  C   -0.077764
    15  Br   0.117413
 Electronic spatial extent (au):  <R**2>=           2799.4629
 Charge=              1.0000 electrons
 Dipole moment (field-independent basis, Debye):
    X=             -0.5263    Y=              1.9125    Z=              0.3031  Tot=              2.0066
 Quadrupole moment (field-independent basis, Debye-Ang):
   XX=            -70.7546   YY=            -53.2051   ZZ=            -63.3603
   XY=              4.0951   XZ=              0.8317   YZ=              0.5177
 Traceless Quadrupole moment (field-independent basis, Debye-Ang):
   XX=             -8.3146   YY=              9.2349   ZZ=             -0.9203
   XY=              4.0951   XZ=              0.8317   YZ=              0.5177
 Octapole moment (field-independent basis, Debye-Ang**2):
  XXX=           -296.5697  YYY=            102.6530  ZZZ=             79.4505  XYY=            -74.4129
  XXY=             43.4286  XXZ=             32.5505  XZZ=            -77.4089  YZZ=             20.2691
  YYZ=             28.8187  XYZ=             -2.8330
 Hexadecapole moment (field-independent basis, Debye-Ang**3):
 XXXX=          -2268.3715 YYYY=           -691.4981 ZZZZ=           -353.3708 XXXY=            -22.0254
 XXXZ=            -22.6778 YYYX=            -51.0684 YYYZ=           -165.7607 ZZZX=            -19.7348
 ZZZY=           -142.1181 XXYY=           -455.8427 XXZZ=           -370.9718 YYZZ=           -170.8977
 XXYZ=            -56.6388 YYXZ=             -4.2066 ZZXY=             -8.2614
 N-N= 7.401933269889D+02 E-N=-8.633437850926D+03  KE= 3.005865413381D+03
 No NMR shielding tensors so no spin-rotation constants.
 Leave Link  601 at Wed May  1 15:04:39 2024, MaxMem=  1207959552 cpu:               7.5 elap:               7.5
 (Enter /software/gaussian/g16-c01/sse4/g16/l9999.exe)
 Unable to Open any file for archive entry.
 1\1\GINC-BHX0015\SP\RwB97XD\6-311+G(d)\C6H5Br1N1O2(1+)\BWEIGHT\01-May-
 2024\0\\#P wB97XD/6-311+G* NoSymm #P Field=Y-87\\TitleMe\\1,1\C,0,0.02
 95,1.3397,0.0682\C,0,1.4348,1.2867,0.0064\C,0,2.1118,0.0511,-0.0054\C,
 0,1.4451,-1.1372,0.0312\C,0,-0.6879,0.1682,0.11\H,0,-0.4713,2.2984,0.0
 781\H,0,2.0273,2.1965,-0.0322\H,0,1.9897,-2.0764,0.0232\H,0,-1.7716,0.
 1804,0.1582\N,0,3.5864,0.051,-0.0675\O,0,4.1471,-1.0597,-0.0881\O,0,4.
 145,1.1639,-0.0901\C,0,-0.0236,-1.1458,0.0835\H,0,-0.4367,-1.8725,0.78
 89\Br,0,-0.5359,-1.8697,-1.7408\\Version=ES64L-G16RevC.01\HF=-3010.537
 6125\RMSD=8.715e-09\Dipole=-2.1135869,1.9005324,1.2654189\Quadrupole=-
 6.1817136,6.8659581,-0.6842444,3.0445698,0.6183664,0.3849336\PG=C01 [X
 (C6H5Br1N1O2)]\\@
 The archive entry for this job was punched.


 ... IT IS NO ONE DREAME THAT
     CAN PLEASE THESE ALL ...

                -- BEN JONSON
 Job cpu time:       0 days  0 hours 17 minutes 45.3 seconds.
 Elapsed time:       0 days  0 hours 17 minutes 45.6 seconds.
 File lengths (MBytes):  RWF=     40 Int=      0 D2E=      0 Chk=     32 Scr=      1
 Normal termination of Gaussian 16 at Wed May  1 15:04:40 2024.
