 Entering Gaussian System, Link 0=g16
 Initial command:
 /software/gaussian/g16-c01/sse4/g16/l1.exe "/local_scratch/24657477/Gau-15930.inp" -scrdir="/local_scratch/24657477/"
 Entering Link 1 = /software/gaussian/g16-c01/sse4/g16/l1.exe PID=     15937.
  
 Copyright (c) 1988-2019, Gaussian, Inc.  All Rights Reserved.
  
 This is part of the Gaussian(R) 16 program.  It is based on
 the Gaussian(R) 09 system (copyright 2009, Gaussian, Inc.),
 the Gaussian(R) 03 system (copyright 2003, Gaussian, Inc.),
 the Gaussian(R) 98 system (copyright 1998, Gaussian, Inc.),
 the Gaussian(R) 94 system (copyright 1995, Gaussian, Inc.),
 the Gaussian 92(TM) system (copyright 1992, Gaussian, Inc.),
 the Gaussian 90(TM) system (copyright 1990, Gaussian, Inc.),
 the Gaussian 88(TM) system (copyright 1988, Gaussian, Inc.),
 the Gaussian 86(TM) system (copyright 1986, Carnegie Mellon
 University), and the Gaussian 82(TM) system (copyright 1983,
 Carnegie Mellon University). Gaussian is a federally registered
 trademark of Gaussian, Inc.
  
 This software contains proprietary and confidential information,
 including trade secrets, belonging to Gaussian, Inc.
  
 This software is provided under written license and may be
 used, copied, transmitted, or stored only in accord with that
 written license.
  
 The following legend is applicable only to US Government
 contracts under FAR:
  
                    RESTRICTED RIGHTS LEGEND
  
 Use, reproduction and disclosure by the US Government is
 subject to restrictions as set forth in subparagraphs (a)
 and (c) of the Commercial Computer Software - Restricted
 Rights clause in FAR 52.227-19.
  
 Gaussian, Inc.
 340 Quinnipiac St., Bldg. 40, Wallingford CT 06492
  
  
 ---------------------------------------------------------------
 Warning -- This program may not be used in any manner that
 competes with the business of Gaussian, Inc. or will provide
 assistance to any competitor of Gaussian, Inc.  The licensee
 of this program is prohibited from giving any competitor of
 Gaussian, Inc. access to this program.  By using this program,
 the user acknowledges that Gaussian, Inc. is engaged in the
 business of creating and licensing software in the field of
 computational chemistry and represents and warrants to the
 licensee that it is not a competitor of Gaussian, Inc. and that
 it will not use this program in any manner prohibited above.
 ---------------------------------------------------------------
  

 Cite this work as:
 Gaussian 16, Revision C.01,
 M. J. Frisch, G. W. Trucks, H. B. Schlegel, G. E. Scuseria, 
 M. A. Robb, J. R. Cheeseman, G. Scalmani, V. Barone, 
 G. A. Petersson, H. Nakatsuji, X. Li, M. Caricato, A. V. Marenich, 
 J. Bloino, B. G. Janesko, R. Gomperts, B. Mennucci, H. P. Hratchian, 
 J. V. Ortiz, A. F. Izmaylov, J. L. Sonnenberg, D. Williams-Young, 
 F. Ding, F. Lipparini, F. Egidi, J. Goings, B. Peng, A. Petrone, 
 T. Henderson, D. Ranasinghe, V. G. Zakrzewski, J. Gao, N. Rega, 
 G. Zheng, W. Liang, M. Hada, M. Ehara, K. Toyota, R. Fukuda, 
 J. Hasegawa, M. Ishida, T. Nakajima, Y. Honda, O. Kitao, H. Nakai, 
 T. Vreven, K. Throssell, J. A. Montgomery, Jr., J. E. Peralta, 
 F. Ogliaro, M. J. Bearpark, J. J. Heyd, E. N. Brothers, K. N. Kudin, 
 V. N. Staroverov, T. A. Keith, R. Kobayashi, J. Normand, 
 K. Raghavachari, A. P. Rendell, J. C. Burant, S. S. Iyengar, 
 J. Tomasi, M. Cossi, J. M. Millam, M. Klene, C. Adamo, R. Cammi, 
 J. W. Ochterski, R. L. Martin, K. Morokuma, O. Farkas, 
 J. B. Foresman, and D. J. Fox, Gaussian, Inc., Wallingford CT, 2019.
 
 ******************************************
 Gaussian 16:  ES64L-G16RevC.01  3-Jul-2019
                 1-May-2024 
 ******************************************
 %chk=geometry.chk
 %mem=9GB
 %nprocshared=12
 Will use up to   12 processors via shared memory.
 ----------------------------------------
 #P wB97XD/6-311+G* NoSymm #P Field=Y-233
 ----------------------------------------
 1/38=1,172=1/1;
 2/12=2,15=1,17=6,18=5,40=1/2;
 3/5=4,6=6,7=11,11=2,14=2,15=-233,25=1,30=1,74=-58/1,2,3;
 4//1;
 5/5=2,38=5/2;
 6/7=2,8=2,9=2,10=2,28=1/1;
 99/5=1,9=1/99;
 Leave Link    1 at Wed May  1 14:27:48 2024, MaxMem=  1207959552 cpu:               3.4 elap:               3.5
 (Enter /software/gaussian/g16-c01/sse4/g16/l101.exe)
 -------
 TitleMe
 -------
 Symbolic Z-matrix:
 Charge =  1 Multiplicity = 1
 C                     0.0295    1.3397    0.0682 
 C                     1.4348    1.2867    0.0064 
 C                     2.1118    0.0511   -0.0054 
 C                     1.4451   -1.1372    0.0312 
 C                    -0.6879    0.1682    0.11 
 H                    -0.4713    2.2984    0.0781 
 H                     2.0273    2.1965   -0.0322 
 H                     1.9897   -2.0764    0.0232 
 H                    -1.7716    0.1804    0.1582 
 N                     3.5864    0.051    -0.0675 
 O                     4.1471   -1.0597   -0.0881 
 O                     4.145     1.1639   -0.0901 
 C                    -0.0236   -1.1458    0.0835 
 H                    -0.4367   -1.8725    0.7889 
 Br                   -0.5359   -1.8697   -1.7408 
 
 ITRead=  0  0  0  0  0  0  0  0  0  0  0  0  0  0  0
 MicOpt= -1 -1 -1 -1 -1 -1 -1 -1 -1 -1 -1 -1 -1 -1 -1
 NAtoms=     15 NQM=       15 NQMF=       0 NMMI=      0 NMMIF=      0
                NMic=       0 NMicF=      0.
                    Isotopes and Nuclear Properties:
 (Nuclear quadrupole moments (NQMom) in fm**2, nuclear magnetic moments (NMagM)
  in nuclear magnetons)

  Atom         1           2           3           4           5           6           7           8           9          10
 IAtWgt=          12          12          12          12          12           1           1           1           1          14
 AtmWgt=  12.0000000  12.0000000  12.0000000  12.0000000  12.0000000   1.0078250   1.0078250   1.0078250   1.0078250  14.0030740
 NucSpn=           0           0           0           0           0           1           1           1           1           2
 AtZEff=  -0.0000000  -0.0000000  -0.0000000  -0.0000000  -0.0000000  -0.0000000  -0.0000000  -0.0000000  -0.0000000  -0.0000000
 NQMom=    0.0000000   0.0000000   0.0000000   0.0000000   0.0000000   0.0000000   0.0000000   0.0000000   0.0000000   2.0440000
 NMagM=    0.0000000   0.0000000   0.0000000   0.0000000   0.0000000   2.7928460   2.7928460   2.7928460   2.7928460   0.4037610
 AtZNuc=   6.0000000   6.0000000   6.0000000   6.0000000   6.0000000   1.0000000   1.0000000   1.0000000   1.0000000   7.0000000

  Atom        11          12          13          14          15
 IAtWgt=          16          16          12           1          79
 AtmWgt=  15.9949146  15.9949146  12.0000000   1.0078250  78.9183361
 NucSpn=           0           0           0           1           3
 AtZEff=  -0.0000000  -0.0000000  -0.0000000  -0.0000000  -0.0000000
 NQMom=    0.0000000   0.0000000   0.0000000   0.0000000  31.3000000
 NMagM=    0.0000000   0.0000000   0.0000000   2.7928460   2.1063990
 AtZNuc=   8.0000000   8.0000000   6.0000000   1.0000000  35.0000000
 Leave Link  101 at Wed May  1 14:27:55 2024, MaxMem=  1207959552 cpu:               1.4 elap:               3.9
 (Enter /software/gaussian/g16-c01/sse4/g16/l202.exe)
                          Input orientation:                          
 ---------------------------------------------------------------------
 Center     Atomic      Atomic             Coordinates (Angstroms)
 Number     Number       Type             X           Y           Z
 ---------------------------------------------------------------------
      1          6           0        0.029500    1.339700    0.068200
      2          6           0        1.434800    1.286700    0.006400
      3          6           0        2.111800    0.051100   -0.005400
      4          6           0        1.445100   -1.137200    0.031200
      5          6           0       -0.687900    0.168200    0.110000
      6          1           0       -0.471300    2.298400    0.078100
      7          1           0        2.027300    2.196500   -0.032200
      8          1           0        1.989700   -2.076400    0.023200
      9          1           0       -1.771600    0.180400    0.158200
     10          7           0        3.586400    0.051000   -0.067500
     11          8           0        4.147100   -1.059700   -0.088100
     12          8           0        4.145000    1.163900   -0.090100
     13          6           0       -0.023600   -1.145800    0.083500
     14          1           0       -0.436700   -1.872500    0.788900
     15         35           0       -0.535900   -1.869700   -1.740800
 ---------------------------------------------------------------------
                    Distance matrix (angstroms):
                    1          2          3          4          5
     1  C    0.000000
     2  C    1.407656   0.000000
     3  C    2.449874   1.408963   0.000000
     4  C    2.853126   2.424049   1.363043   0.000000
     5  C    1.374344   2.401589   2.804523   2.501993   0.000000
     6  H    1.081667   2.159142   3.424870   3.934226   2.141421
     7  H    2.176095   1.086408   2.147231   3.384750   3.392128
     8  H    3.938800   3.408612   2.131193   1.085702   3.495040
     9  H    2.143837   3.395283   3.888995   3.478413   1.084840
    10  N    3.785591   2.482297   1.475907   2.450862   4.279589
    11  O    4.768247   3.587631   2.320164   2.705743   4.992415
    12  O    4.122294   2.714696   2.319353   3.549540   4.938459
    13  C    2.486114   2.837240   2.449573   1.469656   1.472614
    14  H    3.324903   3.754379   3.290289   2.157764   2.165286
    15  Br   3.727252   4.110867   3.702891   2.756973   2.757100
                    6          7          8          9         10
     6  H    0.000000
     7  H    2.503108   0.000000
     8  H    5.019802   4.273425   0.000000
     9  H    2.486588   4.304945   4.388479   0.000000
    10  N    4.640790   2.652397   2.661486   5.364313   0.000000
    11  O    5.712624   3.885809   2.387560   6.052233   1.244373
    12  O    4.756638   2.356750   3.893289   6.002923   1.245428
    13  C    3.473180   3.923079   2.218790   2.195425   3.806210
    14  H    4.231175   4.827242   2.552506   2.528663   4.540772
    15  Br   4.548146   5.101303   3.087568   3.055498   4.845862
                   11         12         13         14         15
    11  O    0.000000
    12  O    2.223602   0.000000
    13  C    4.175117   4.768865   0.000000
    14  H    4.737193   5.566358   1.093770   0.000000
    15  Br   5.031700   5.817075   2.028436   2.531646   0.000000
 Symmetry turned off by external request.
 Stoichiometry    C6H5BrNO2(1+)
 Framework group  C1[X(C6H5BrNO2)]
 Deg. of freedom    39
 Full point group                 C1      NOp   1
 Rotational constants (GHZ):           1.8252210           0.5518633           0.4576002
 Leave Link  202 at Wed May  1 14:27:57 2024, MaxMem=  1207959552 cpu:               1.2 elap:               1.2
 (Enter /software/gaussian/g16-c01/sse4/g16/l301.exe)
 Standard basis: 6-311+G(d) (5D, 7F)
 Ernie: Thresh=  0.10000D-02 Tol=  0.10000D-05 Strict=F.
 The following finite field(s) will be applied:
 An electric field of              0.0000 -0.0233  0.0000
   261 basis functions,   443 primitive gaussians,   273 cartesian basis functions
    49 alpha electrons       49 beta electrons
       nuclear repulsion energy       739.2122215416 Hartrees.
 IExCor= 4639 DFT=T Ex+Corr=wB97XD ExCW=0 ScaHFX=  1.000000
 ScaDFX=  1.000000  1.000000  1.000000  1.000000 ScalE2=  1.000000  1.000000
 IRadAn=      5 IRanWt=     -1 IRanGd=            0 ICorTp=0 IEmpDi=121
 HFx  wShort=  0.000000 wLong=  0.200000 cFull=  0.222036 cShort=  0.000000 cLong=  0.777964
 DFx  wShort=  0.000000 wLong=  0.200000 cFull=  0.000000 cShort=  0.000000 cLong=  1.000000
 NAtoms=   15 NActive=   15 NUniq=   15 SFac= 1.00D+00 NAtFMM=   60 NAOKFM=F Big=F
 Integral buffers will be    131072 words long.
 Raffenetti 2 integral format.
 Two-electron integral symmetry is turned off.
 R6Disp:  Grimme-D2 Dispersion energy=       -0.0077368520 Hartrees.
 Nuclear repulsion after empirical dispersion term =      739.2044846896 Hartrees.
 Leave Link  301 at Wed May  1 14:27:58 2024, MaxMem=  1207959552 cpu:               1.0 elap:               1.0
 (Enter /software/gaussian/g16-c01/sse4/g16/l302.exe)
 NPDir=0 NMtPBC=     1 NCelOv=     1 NCel=       1 NClECP=     1 NCelD=      1
         NCelK=      1 NCelE2=     1 NClLst=     1 CellRange=     0.0.
 One-electron integrals computed using PRISM.
 NBasis=   261 RedAO= T EigKep=  2.35D-06  NBF=   261
 NBsUse=   261 1.00D-06 EigRej= -1.00D+00 NBFU=   261
 Precomputing XC quadrature grid using
 IXCGrd= 4 IRadAn=           5 IRanWt=          -1 IRanGd=           0 AccXCQ= 0.00D+00.
 Generated NRdTot=       0 NPtTot=           0 NUsed=           0 NTot=          32
 NSgBfM=   273   273   273   273   273 MxSgAt=    15 MxSgA2=    15.
 Leave Link  302 at Wed May  1 14:28:20 2024, MaxMem=  1207959552 cpu:              22.0 elap:              22.0
 (Enter /software/gaussian/g16-c01/sse4/g16/l303.exe)
 DipDrv:  MaxL=1.
 The nuclear repulsion energy is now       741.8527634912 hartrees.
 Leave Link  303 at Wed May  1 14:28:23 2024, MaxMem=  1207959552 cpu:               3.3 elap:               3.3
 (Enter /software/gaussian/g16-c01/sse4/g16/l401.exe)
 ExpMin= 3.50D-02 ExpMax= 4.40D+05 ExpMxC= 1.51D+04 IAcc=3 IRadAn=         5 AccDes= 0.00D+00
 Harris functional with IExCor= 4639 and IRadAn=       5 diagonalized for initial guess.
 HarFok:  IExCor= 4639 AccDes= 0.00D+00 IRadAn=         5 IDoV= 1 UseB2=F ITyADJ=14
 ICtDFT=  3500011 ScaDFX=  1.000000  1.000000  1.000000  1.000000
 FoFCou: FMM=F IPFlag=           0 FMFlag=      100000 FMFlg1=           0
         NFxFlg=           0 DoJE=T BraDBF=F KetDBF=T FulRan=T
         wScrn=  0.000000 ICntrl=       500 IOpCl=  0 I1Cent=   200000004 NGrid=           0
         NMat0=    1 NMatS0=      1 NMatT0=    0 NMatD0=    1 NMtDS0=    0 NMtDT0=    0
 Symmetry not used in FoFCou.
 Harris En= -2970.77559429149    
 JPrj=0 DoOrth=F DoCkMO=F.
 Leave Link  401 at Wed May  1 14:28:54 2024, MaxMem=  1207959552 cpu:              30.7 elap:              30.7
 (Enter /software/gaussian/g16-c01/sse4/g16/l502.exe)
 Two-electron integral symmetry not used.
 Closed shell SCF:
 Using DIIS extrapolation, IDIIS=  1040.
 NGot=  1207959552 LenX=  1207804877 LenY=  1207729907
 Requested convergence on RMS density matrix=1.00D-08 within 128 cycles.
 Requested convergence on MAX density matrix=1.00D-06.
 Requested convergence on             energy=1.00D-06.
 No special actions if energy rises.
 Fock matrices will be formed incrementally for  20 cycles.

 Cycle   1  Pass 1  IDiag  1:
 FoFJK:  IHMeth= 1 ICntrl=       0 DoSepK=T KAlg= 0 I1Cent=           0 FoldK=F
 IRaf=         1 NMat=       1 IRICut=       1 DoRegI=T DoRafI=F ISym2E= 0 IDoP0=0 IntGTp=1.
 FoFCou: FMM=F IPFlag=           0 FMFlag=      100000 FMFlg1=           0
         NFxFlg=           0 DoJE=T BraDBF=F KetDBF=F FulRan=T
         wScrn=  0.000000 ICntrl=       500 IOpCl=  0 I1Cent=           0 NGrid=           0
         NMat0=    1 NMatS0=      1 NMatT0=    0 NMatD0=    1 NMtDS0=    0 NMtDT0=    0
 Symmetry not used in FoFCou.
 E= -3007.44147189299    
 DIIS: error= 3.19D-01 at cycle   1 NSaved=   1.
 NSaved= 1 IEnMin= 1 EnMin= -3007.44147189299     IErMin= 1 ErrMin= 3.19D-01
 ErrMax= 3.19D-01  0.00D+00 EMaxC= 1.00D-01 BMatC= 1.30D+01 BMatP= 1.30D+01
 IDIUse=3 WtCom= 0.00D+00 WtEn= 1.00D+00
 Coeff-Com:  0.100D+01
 Coeff-En:   0.100D+01
 Coeff:      0.100D+01
 Gap=     0.159 Goal=   None    Shift=    0.000
 GapD=    0.159 DampG=1.000 DampE=0.250 DampFc=0.2500 IDamp=-1.
 Damping current iteration by 2.50D-01
 RMSDP=1.49D+00 MaxDP=1.66D+02              OVMax= 7.46D-01

 Cycle   2  Pass 1  IDiag  1:
 RMSU=  2.35D-02    CP:  7.55D-01
 E= -3008.43519003349     Delta-E=       -0.993718140500 Rises=F Damp=T
 DIIS: error= 2.24D-01 at cycle   2 NSaved=   2.
 NSaved= 2 IEnMin= 2 EnMin= -3008.43519003349     IErMin= 2 ErrMin= 2.24D-01
 ErrMax= 2.24D-01  0.00D+00 EMaxC= 1.00D-01 BMatC= 5.70D+00 BMatP= 1.30D+01
 IDIUse=3 WtCom= 0.00D+00 WtEn= 1.00D+00
 Coeff-Com: -0.115D+01 0.215D+01
 Coeff-En:   0.123D+00 0.877D+00
 Coeff:      0.123D+00 0.877D+00
 Gap=     0.667 Goal=   None    Shift=    0.000
 RMSDP=1.12D+00 MaxDP=1.27D+02 DE=-9.94D-01 OVMax= 8.83D-01

 Cycle   3  Pass 1  IDiag  1:
 RMSU=  2.43D-02    CP:  1.43D-02  2.46D+00
 E= -3009.45893436724     Delta-E=       -1.023744333747 Rises=F Damp=F
 DIIS: error= 8.81D-02 at cycle   3 NSaved=   3.
 NSaved= 3 IEnMin= 3 EnMin= -3009.45893436724     IErMin= 3 ErrMin= 8.81D-02
 ErrMax= 8.81D-02  0.00D+00 EMaxC= 1.00D-01 BMatC= 2.27D+00 BMatP= 5.70D+00
 IDIUse=3 WtCom= 1.19D-01 WtEn= 8.81D-01
 EnCoef did   100 forward-backward iterations
 Coeff-Com:  0.476D-01 0.285D+00 0.668D+00
 Coeff-En:   0.260D+00 0.474D-02 0.735D+00
 Coeff:      0.235D+00 0.381D-01 0.727D+00
 Gap=     0.386 Goal=   None    Shift=    0.000
 RMSDP=2.94D-02 MaxDP=2.04D+00 DE=-1.02D+00 OVMax= 5.24D-01

 Cycle   4  Pass 1  IDiag  1:
 RMSU=  2.76D-02    CP:  1.20D-02  2.06D+00  9.90D-01
 E= -3009.64172018492     Delta-E=       -0.182785817681 Rises=F Damp=F
 DIIS: error= 1.07D-01 at cycle   4 NSaved=   4.
 NSaved= 4 IEnMin= 4 EnMin= -3009.64172018492     IErMin= 3 ErrMin= 8.81D-02
 ErrMax= 1.07D-01  0.00D+00 EMaxC= 1.00D-01 BMatC= 1.32D+00 BMatP= 2.27D+00
 IDIUse=3 WtCom= 0.00D+00 WtEn= 1.00D+00
 Coeff-Com:  0.141D+00-0.868D-01 0.461D+00 0.485D+00
 Coeff-En:   0.000D+00 0.000D+00 0.461D+00 0.539D+00
 Coeff:      0.000D+00 0.000D+00 0.461D+00 0.539D+00
 Gap=     0.193 Goal=   None    Shift=    0.000
 RMSDP=1.76D-02 MaxDP=1.21D+00 DE=-1.83D-01 OVMax= 4.14D-01

 Cycle   5  Pass 1  IDiag  1:
 RMSU=  1.45D-02    CP:  1.25D-02  2.07D+00  1.24D+00  7.22D-01
 E= -3010.46095871249     Delta-E=       -0.819238527572 Rises=F Damp=F
 DIIS: error= 2.57D-02 at cycle   5 NSaved=   5.
 NSaved= 5 IEnMin= 5 EnMin= -3010.46095871249     IErMin= 5 ErrMin= 2.57D-02
 ErrMax= 2.57D-02  0.00D+00 EMaxC= 1.00D-01 BMatC= 1.82D-01 BMatP= 1.32D+00
 IDIUse=3 WtCom= 7.43D-01 WtEn= 2.57D-01
 Coeff-Com: -0.109D-01 0.155D-01 0.182D+00 0.274D+00 0.540D+00
 Coeff-En:   0.000D+00 0.000D+00 0.000D+00 0.657D-01 0.934D+00
 Coeff:     -0.808D-02 0.115D-01 0.135D+00 0.220D+00 0.641D+00
 Gap=     0.282 Goal=   None    Shift=    0.000
 RMSDP=1.22D-02 MaxDP=1.10D+00 DE=-8.19D-01 OVMax= 1.35D-01

 Cycle   6  Pass 1  IDiag  1:
 RMSU=  4.45D-03    CP:  1.09D-02  1.79D+00  1.07D+00  6.96D-01  4.55D-01
 E= -3010.54188905387     Delta-E=       -0.080930341374 Rises=F Damp=F
 DIIS: error= 1.62D-02 at cycle   6 NSaved=   6.
 NSaved= 6 IEnMin= 6 EnMin= -3010.54188905387     IErMin= 6 ErrMin= 1.62D-02
 ErrMax= 1.62D-02  0.00D+00 EMaxC= 1.00D-01 BMatC= 3.26D-02 BMatP= 1.82D-01
 IDIUse=3 WtCom= 8.38D-01 WtEn= 1.62D-01
 Coeff-Com: -0.310D-01 0.429D-01 0.114D-01 0.577D-02 0.303D+00 0.668D+00
 Coeff-En:   0.000D+00 0.000D+00 0.000D+00 0.000D+00 0.141D+00 0.859D+00
 Coeff:     -0.260D-01 0.359D-01 0.956D-02 0.484D-02 0.277D+00 0.699D+00
 Gap=     0.249 Goal=   None    Shift=    0.000
 RMSDP=1.86D-03 MaxDP=9.54D-02 DE=-8.09D-02 OVMax= 5.34D-02

 Cycle   7  Pass 1  IDiag  1:
 RMSU=  1.06D-03    CP:  1.08D-02  1.77D+00  1.08D+00  6.66D-01  5.34D-01
                    CP:  9.95D-01
 E= -3010.55946320802     Delta-E=       -0.017574154156 Rises=F Damp=F
 DIIS: error= 2.64D-03 at cycle   7 NSaved=   7.
 NSaved= 7 IEnMin= 7 EnMin= -3010.55946320802     IErMin= 7 ErrMin= 2.64D-03
 ErrMax= 2.64D-03  0.00D+00 EMaxC= 1.00D-01 BMatC= 1.48D-03 BMatP= 3.26D-02
 IDIUse=3 WtCom= 9.74D-01 WtEn= 2.64D-02
 Coeff-Com: -0.178D-01 0.244D-01-0.113D-01-0.106D-01 0.621D-01 0.272D+00
 Coeff-Com:  0.681D+00
 Coeff-En:   0.000D+00 0.000D+00 0.000D+00 0.000D+00 0.000D+00 0.000D+00
 Coeff-En:   0.100D+01
 Coeff:     -0.174D-01 0.237D-01-0.110D-01-0.103D-01 0.604D-01 0.265D+00
 Coeff:      0.689D+00
 Gap=     0.246 Goal=   None    Shift=    0.000
 RMSDP=6.92D-04 MaxDP=4.36D-02 DE=-1.76D-02 OVMax= 7.30D-03

 Cycle   8  Pass 1  IDiag  1:
 RMSU=  4.72D-04    CP:  1.07D-02  1.77D+00  1.07D+00  6.72D-01  5.09D-01
                    CP:  1.03D+00  9.37D-01
 E= -3010.56052392968     Delta-E=       -0.001060721661 Rises=F Damp=F
 DIIS: error= 5.23D-04 at cycle   8 NSaved=   8.
 NSaved= 8 IEnMin= 8 EnMin= -3010.56052392968     IErMin= 8 ErrMin= 5.23D-04
 ErrMax= 5.23D-04  0.00D+00 EMaxC= 1.00D-01 BMatC= 1.19D-04 BMatP= 1.48D-03
 IDIUse=3 WtCom= 9.95D-01 WtEn= 5.23D-03
 Coeff-Com: -0.567D-02 0.763D-02-0.414D-02-0.356D-03-0.151D-01-0.583D-02
 Coeff-Com:  0.255D+00 0.769D+00
 Coeff-En:   0.000D+00 0.000D+00 0.000D+00 0.000D+00 0.000D+00 0.000D+00
 Coeff-En:   0.000D+00 0.100D+01
 Coeff:     -0.564D-02 0.759D-02-0.412D-02-0.354D-03-0.151D-01-0.580D-02
 Coeff:      0.253D+00 0.770D+00
 Gap=     0.250 Goal=   None    Shift=    0.000
 RMSDP=5.35D-04 MaxDP=2.98D-02 DE=-1.06D-03 OVMax= 3.71D-03

 Cycle   9  Pass 1  IDiag  1:
 RMSU=  2.31D-04    CP:  1.07D-02  1.77D+00  1.06D+00  6.72D-01  4.89D-01
                    CP:  1.03D+00  1.14D+00  1.54D+00
 E= -3010.56067140906     Delta-E=       -0.000147479379 Rises=F Damp=F
 DIIS: error= 2.38D-04 at cycle   9 NSaved=   9.
 NSaved= 9 IEnMin= 9 EnMin= -3010.56067140906     IErMin= 9 ErrMin= 2.38D-04
 ErrMax= 2.38D-04  0.00D+00 EMaxC= 1.00D-01 BMatC= 1.26D-05 BMatP= 1.19D-04
 IDIUse=3 WtCom= 9.98D-01 WtEn= 2.38D-03
 Coeff-Com: -0.123D-02 0.167D-02-0.371D-03 0.101D-02-0.120D-01-0.318D-01
 Coeff-Com: -0.214D-01 0.199D+00 0.865D+00
 Coeff-En:   0.000D+00 0.000D+00 0.000D+00 0.000D+00 0.000D+00 0.000D+00
 Coeff-En:   0.000D+00 0.000D+00 0.100D+01
 Coeff:     -0.123D-02 0.166D-02-0.370D-03 0.101D-02-0.119D-01-0.317D-01
 Coeff:     -0.213D-01 0.199D+00 0.865D+00
 Gap=     0.250 Goal=   None    Shift=    0.000
 RMSDP=2.02D-04 MaxDP=1.65D-02 DE=-1.47D-04 OVMax= 2.09D-03

 Cycle  10  Pass 1  IDiag  1:
 RMSU=  6.76D-05    CP:  1.06D-02  1.77D+00  1.06D+00  6.72D-01  4.80D-01
                    CP:  1.04D+00  1.18D+00  1.68D+00  1.16D+00
 E= -3010.56069075164     Delta-E=       -0.000019342580 Rises=F Damp=F
 DIIS: error= 9.32D-05 at cycle  10 NSaved=  10.
 NSaved=10 IEnMin=10 EnMin= -3010.56069075164     IErMin=10 ErrMin= 9.32D-05
 ErrMax= 9.32D-05  0.00D+00 EMaxC= 1.00D-01 BMatC= 1.98D-06 BMatP= 1.26D-05
 IDIUse=1 WtCom= 1.00D+00 WtEn= 0.00D+00
 Coeff-Com: -0.160D-03 0.216D-03 0.333D-04 0.558D-03-0.263D-02-0.851D-02
 Coeff-Com: -0.272D-01-0.172D-02 0.321D+00 0.719D+00
 Coeff:     -0.160D-03 0.216D-03 0.333D-04 0.558D-03-0.263D-02-0.851D-02
 Coeff:     -0.272D-01-0.172D-02 0.321D+00 0.719D+00
 Gap=     0.250 Goal=   None    Shift=    0.000
 RMSDP=7.43D-05 MaxDP=6.04D-03 DE=-1.93D-05 OVMax= 9.36D-04

 Cycle  11  Pass 1  IDiag  1:
 RMSU=  2.28D-05    CP:  1.06D-02  1.77D+00  1.06D+00  6.73D-01  4.77D-01
                    CP:  1.04D+00  1.19D+00  1.75D+00  1.25D+00  1.05D+00
 E= -3010.56069397282     Delta-E=       -0.000003221172 Rises=F Damp=F
 DIIS: error= 4.73D-05 at cycle  11 NSaved=  11.
 NSaved=11 IEnMin=11 EnMin= -3010.56069397282     IErMin=11 ErrMin= 4.73D-05
 ErrMax= 4.73D-05  0.00D+00 EMaxC= 1.00D-01 BMatC= 5.25D-07 BMatP= 1.98D-06
 IDIUse=1 WtCom= 1.00D+00 WtEn= 0.00D+00
 Coeff-Com:  0.804D-04-0.130D-03-0.143D-03 0.389D-04 0.148D-02 0.415D-02
 Coeff-Com: -0.313D-02-0.372D-01-0.488D-01 0.292D+00 0.792D+00
 Coeff:      0.804D-04-0.130D-03-0.143D-03 0.389D-04 0.148D-02 0.415D-02
 Coeff:     -0.313D-02-0.372D-01-0.488D-01 0.292D+00 0.792D+00
 Gap=     0.250 Goal=   None    Shift=    0.000
 RMSDP=2.68D-05 MaxDP=2.19D-03 DE=-3.22D-06 OVMax= 5.58D-04

 Cycle  12  Pass 1  IDiag  1:
 RMSU=  1.26D-05    CP:  1.06D-02  1.77D+00  1.06D+00  6.73D-01  4.77D-01
                    CP:  1.04D+00  1.19D+00  1.76D+00  1.24D+00  1.16D+00
                    CP:  1.25D+00
 E= -3010.56069500513     Delta-E=       -0.000001032315 Rises=F Damp=F
 DIIS: error= 1.19D-05 at cycle  12 NSaved=  12.
 NSaved=12 IEnMin=12 EnMin= -3010.56069500513     IErMin=12 ErrMin= 1.19D-05
 ErrMax= 1.19D-05  0.00D+00 EMaxC= 1.00D-01 BMatC= 7.58D-08 BMatP= 5.25D-07
 IDIUse=1 WtCom= 1.00D+00 WtEn= 0.00D+00
 Coeff-Com:  0.472D-04-0.754D-04-0.107D-03-0.580D-04 0.730D-03 0.294D-02
 Coeff-Com:  0.635D-02-0.601D-02-0.625D-01-0.396D-01 0.204D+00 0.894D+00
 Coeff:      0.472D-04-0.754D-04-0.107D-03-0.580D-04 0.730D-03 0.294D-02
 Coeff:      0.635D-02-0.601D-02-0.625D-01-0.396D-01 0.204D+00 0.894D+00
 Gap=     0.250 Goal=   None    Shift=    0.000
 RMSDP=1.45D-05 MaxDP=8.62D-04 DE=-1.03D-06 OVMax= 3.37D-04

 Cycle  13  Pass 1  IDiag  1:
 RMSU=  4.63D-06    CP:  1.06D-02  1.77D+00  1.06D+00  6.74D-01  4.77D-01
                    CP:  1.05D+00  1.19D+00  1.76D+00  1.22D+00  1.20D+00
                    CP:  1.48D+00  1.36D+00
 E= -3010.56069524532     Delta-E=       -0.000000240187 Rises=F Damp=F
 DIIS: error= 7.41D-06 at cycle  13 NSaved=  13.
 NSaved=13 IEnMin=13 EnMin= -3010.56069524532     IErMin=13 ErrMin= 7.41D-06
 ErrMax= 7.41D-06  0.00D+00 EMaxC= 1.00D-01 BMatC= 1.53D-08 BMatP= 7.58D-08
 IDIUse=1 WtCom= 1.00D+00 WtEn= 0.00D+00
 Coeff-Com:  0.149D-04-0.173D-04 0.140D-05-0.350D-04-0.162D-03 0.851D-04
 Coeff-Com:  0.249D-02 0.520D-02-0.510D-02-0.775D-01-0.153D+00 0.276D+00
 Coeff-Com:  0.952D+00
 Coeff:      0.149D-04-0.173D-04 0.140D-05-0.350D-04-0.162D-03 0.851D-04
 Coeff:      0.249D-02 0.520D-02-0.510D-02-0.775D-01-0.153D+00 0.276D+00
 Coeff:      0.952D+00
 Gap=     0.250 Goal=   None    Shift=    0.000
 RMSDP=6.48D-06 MaxDP=2.76D-04 DE=-2.40D-07 OVMax= 2.67D-04

 Cycle  14  Pass 1  IDiag  1:
 RMSU=  2.12D-06    CP:  1.06D-02  1.77D+00  1.06D+00  6.74D-01  4.77D-01
                    CP:  1.05D+00  1.19D+00  1.76D+00  1.21D+00  1.21D+00
                    CP:  1.59D+00  1.59D+00  1.27D+00
 E= -3010.56069531411     Delta-E=       -0.000000068794 Rises=F Damp=F
 DIIS: error= 3.18D-06 at cycle  14 NSaved=  14.
 NSaved=14 IEnMin=14 EnMin= -3010.56069531411     IErMin=14 ErrMin= 3.18D-06
 ErrMax= 3.18D-06  0.00D+00 EMaxC= 1.00D-01 BMatC= 3.26D-09 BMatP= 1.53D-08
 IDIUse=1 WtCom= 1.00D+00 WtEn= 0.00D+00
 Coeff-Com:  0.839D-06 0.109D-05 0.123D-04-0.379D-05-0.177D-03-0.417D-03
 Coeff-Com: -0.130D-04 0.275D-02 0.637D-02-0.217D-01-0.945D-01-0.719D-02
 Coeff-Com:  0.412D+00 0.703D+00
 Coeff:      0.839D-06 0.109D-05 0.123D-04-0.379D-05-0.177D-03-0.417D-03
 Coeff:     -0.130D-04 0.275D-02 0.637D-02-0.217D-01-0.945D-01-0.719D-02
 Coeff:      0.412D+00 0.703D+00
 Gap=     0.250 Goal=   None    Shift=    0.000
 RMSDP=2.15D-06 MaxDP=8.77D-05 DE=-6.88D-08 OVMax= 6.43D-05

 Cycle  15  Pass 1  IDiag  1:
 RMSU=  9.97D-07    CP:  1.06D-02  1.77D+00  1.06D+00  6.74D-01  4.77D-01
                    CP:  1.05D+00  1.19D+00  1.76D+00  1.21D+00  1.21D+00
                    CP:  1.59D+00  1.68D+00  1.40D+00  1.12D+00
 E= -3010.56069532207     Delta-E=       -0.000000007957 Rises=F Damp=F
 DIIS: error= 1.13D-06 at cycle  15 NSaved=  15.
 NSaved=15 IEnMin=15 EnMin= -3010.56069532207     IErMin=15 ErrMin= 1.13D-06
 ErrMax= 1.13D-06  0.00D+00 EMaxC= 1.00D-01 BMatC= 3.08D-10 BMatP= 3.26D-09
 IDIUse=1 WtCom= 1.00D+00 WtEn= 0.00D+00
 Coeff-Com:  0.286D-06-0.723D-06 0.434D-05 0.948D-05 0.259D-05-0.140D-03
 Coeff-Com: -0.678D-03-0.892D-03 0.154D-02 0.136D-01 0.828D-02-0.588D-01
 Coeff-Com: -0.691D-01 0.659D-01 0.104D+01
 Coeff:      0.286D-06-0.723D-06 0.434D-05 0.948D-05 0.259D-05-0.140D-03
 Coeff:     -0.678D-03-0.892D-03 0.154D-02 0.136D-01 0.828D-02-0.588D-01
 Coeff:     -0.691D-01 0.659D-01 0.104D+01
 Gap=     0.250 Goal=   None    Shift=    0.000
 RMSDP=1.15D-06 MaxDP=6.01D-05 DE=-7.96D-09 OVMax= 5.12D-05

 Cycle  16  Pass 1  IDiag  1:
 RMSU=  3.32D-07    CP:  1.06D-02  1.77D+00  1.06D+00  6.74D-01  4.77D-01
                    CP:  1.05D+00  1.19D+00  1.76D+00  1.21D+00  1.21D+00
                    CP:  1.58D+00  1.69D+00  1.47D+00  1.25D+00  1.54D+00
 E= -3010.56069532391     Delta-E=       -0.000000001838 Rises=F Damp=F
 DIIS: error= 4.73D-07 at cycle  16 NSaved=  16.
 NSaved=16 IEnMin=16 EnMin= -3010.56069532391     IErMin=16 ErrMin= 4.73D-07
 ErrMax= 4.73D-07  0.00D+00 EMaxC= 1.00D-01 BMatC= 1.11D-10 BMatP= 3.08D-10
 IDIUse=1 WtCom= 1.00D+00 WtEn= 0.00D+00
 Coeff-Com:  0.869D-06-0.123D-05 0.193D-05 0.193D-05 0.290D-04 0.260D-04
 Coeff-Com: -0.153D-03-0.648D-03-0.983D-03 0.540D-02 0.138D-01-0.111D-01
 Coeff-Com: -0.595D-01-0.153D+00 0.284D+00 0.923D+00
 Coeff:      0.869D-06-0.123D-05 0.193D-05 0.193D-05 0.290D-04 0.260D-04
 Coeff:     -0.153D-03-0.648D-03-0.983D-03 0.540D-02 0.138D-01-0.111D-01
 Coeff:     -0.595D-01-0.153D+00 0.284D+00 0.923D+00
 Gap=     0.250 Goal=   None    Shift=    0.000
 RMSDP=5.49D-07 MaxDP=3.22D-05 DE=-1.84D-09 OVMax= 1.89D-05

 Cycle  17  Pass 1  IDiag  1:
 RMSU=  1.54D-07    CP:  1.06D-02  1.77D+00  1.06D+00  6.74D-01  4.77D-01
                    CP:  1.05D+00  1.19D+00  1.76D+00  1.21D+00  1.21D+00
                    CP:  1.58D+00  1.70D+00  1.50D+00  1.27D+00  1.81D+00
                    CP:  1.29D+00
 E= -3010.56069532424     Delta-E=       -0.000000000329 Rises=F Damp=F
 DIIS: error= 2.39D-07 at cycle  17 NSaved=  17.
 NSaved=17 IEnMin=17 EnMin= -3010.56069532424     IErMin=17 ErrMin= 2.39D-07
 ErrMax= 2.39D-07  0.00D+00 EMaxC= 1.00D-01 BMatC= 1.45D-11 BMatP= 1.11D-10
 IDIUse=1 WtCom= 1.00D+00 WtEn= 0.00D+00
 Coeff-Com:  0.159D-06-0.127D-06 0.616D-06-0.996D-06 0.816D-05 0.267D-04
 Coeff-Com:  0.680D-04-0.342D-04-0.375D-03-0.354D-03 0.256D-02 0.656D-02
 Coeff-Com: -0.867D-03-0.664D-01-0.630D-01 0.193D+00 0.929D+00
 Coeff:      0.159D-06-0.127D-06 0.616D-06-0.996D-06 0.816D-05 0.267D-04
 Coeff:      0.680D-04-0.342D-04-0.375D-03-0.354D-03 0.256D-02 0.656D-02
 Coeff:     -0.867D-03-0.664D-01-0.630D-01 0.193D+00 0.929D+00
 Gap=     0.250 Goal=   None    Shift=    0.000
 RMSDP=2.75D-07 MaxDP=2.13D-05 DE=-3.29D-10 OVMax= 6.05D-06

 Cycle  18  Pass 1  IDiag  1:
 RMSU=  5.39D-08    CP:  1.06D-02  1.77D+00  1.06D+00  6.74D-01  4.77D-01
                    CP:  1.05D+00  1.19D+00  1.75D+00  1.21D+00  1.21D+00
                    CP:  1.58D+00  1.70D+00  1.50D+00  1.27D+00  1.90D+00
                    CP:  1.39D+00  1.42D+00
 E= -3010.56069532425     Delta-E=       -0.000000000014 Rises=F Damp=F
 DIIS: error= 7.79D-08 at cycle  18 NSaved=  18.
 NSaved=18 IEnMin=18 EnMin= -3010.56069532425     IErMin=18 ErrMin= 7.79D-08
 ErrMax= 7.79D-08  0.00D+00 EMaxC= 1.00D-01 BMatC= 2.32D-12 BMatP= 1.45D-11
 IDIUse=1 WtCom= 1.00D+00 WtEn= 0.00D+00
 Coeff-Com:  0.212D-06-0.253D-06 0.236D-06-0.594D-06-0.235D-05 0.141D-05
 Coeff-Com:  0.417D-04 0.828D-04 0.695D-04-0.967D-03-0.209D-02 0.280D-02
 Coeff-Com:  0.103D-01 0.626D-02-0.525D-01-0.126D+00 0.255D+00 0.907D+00
 Coeff:      0.212D-06-0.253D-06 0.236D-06-0.594D-06-0.235D-05 0.141D-05
 Coeff:      0.417D-04 0.828D-04 0.695D-04-0.967D-03-0.209D-02 0.280D-02
 Coeff:      0.103D-01 0.626D-02-0.525D-01-0.126D+00 0.255D+00 0.907D+00
 Gap=     0.250 Goal=   None    Shift=    0.000
 RMSDP=9.22D-08 MaxDP=5.51D-06 DE=-1.36D-11 OVMax= 2.53D-06

 Cycle  19  Pass 1  IDiag  1:
 RMSU=  2.23D-08    CP:  1.06D-02  1.77D+00  1.06D+00  6.74D-01  4.77D-01
                    CP:  1.05D+00  1.19D+00  1.75D+00  1.21D+00  1.21D+00
                    CP:  1.58D+00  1.70D+00  1.50D+00  1.27D+00  1.91D+00
                    CP:  1.39D+00  1.76D+00  1.46D+00
 E= -3010.56069532427     Delta-E=       -0.000000000023 Rises=F Damp=F
 DIIS: error= 4.47D-08 at cycle  19 NSaved=  19.
 NSaved=19 IEnMin=19 EnMin= -3010.56069532427     IErMin=19 ErrMin= 4.47D-08
 ErrMax= 4.47D-08  0.00D+00 EMaxC= 1.00D-01 BMatC= 2.25D-13 BMatP= 2.32D-12
 IDIUse=1 WtCom= 1.00D+00 WtEn= 0.00D+00
 Coeff-Com:  0.816D-07-0.118D-06-0.128D-06-0.521D-07-0.171D-05-0.301D-05
 Coeff-Com:  0.270D-05 0.244D-04 0.662D-04-0.946D-04-0.790D-03-0.109D-03
 Coeff-Com:  0.232D-02 0.108D-01 0.277D-03-0.659D-01-0.490D-01 0.180D+00
 Coeff-Com:  0.922D+00
 Coeff:      0.816D-07-0.118D-06-0.128D-06-0.521D-07-0.171D-05-0.301D-05
 Coeff:      0.270D-05 0.244D-04 0.662D-04-0.946D-04-0.790D-03-0.109D-03
 Coeff:      0.232D-02 0.108D-01 0.277D-03-0.659D-01-0.490D-01 0.180D+00
 Coeff:      0.922D+00
 Gap=     0.250 Goal=   None    Shift=    0.000
 RMSDP=2.62D-08 MaxDP=1.44D-06 DE=-2.27D-11 OVMax= 1.14D-06

 Cycle  20  Pass 1  IDiag  1:
 RMSU=  1.00D-08    CP:  1.06D-02  1.77D+00  1.06D+00  6.74D-01  4.77D-01
                    CP:  1.05D+00  1.19D+00  1.75D+00  1.21D+00  1.21D+00
                    CP:  1.58D+00  1.70D+00  1.50D+00  1.27D+00  1.91D+00
                    CP:  1.38D+00  1.84D+00  1.60D+00  1.24D+00
 E= -3010.56069532429     Delta-E=       -0.000000000020 Rises=F Damp=F
 DIIS: error= 1.49D-08 at cycle  20 NSaved=  20.
 NSaved=20 IEnMin=20 EnMin= -3010.56069532429     IErMin=20 ErrMin= 1.49D-08
 ErrMax= 1.49D-08  0.00D+00 EMaxC= 1.00D-01 BMatC= 6.70D-14 BMatP= 2.25D-13
 IDIUse=1 WtCom= 1.00D+00 WtEn= 0.00D+00
 Coeff-Com:  0.480D-07-0.747D-07-0.103D-06 0.714D-07-0.139D-06-0.698D-06
 Coeff-Com: -0.553D-05-0.906D-05 0.302D-05 0.146D-03 0.128D-03-0.511D-03
 Coeff-Com: -0.130D-02 0.171D-02 0.941D-02 0.262D-02-0.489D-01-0.150D+00
 Coeff-Com:  0.259D+00 0.928D+00
 Coeff:      0.480D-07-0.747D-07-0.103D-06 0.714D-07-0.139D-06-0.698D-06
 Coeff:     -0.553D-05-0.906D-05 0.302D-05 0.146D-03 0.128D-03-0.511D-03
 Coeff:     -0.130D-02 0.171D-02 0.941D-02 0.262D-02-0.489D-01-0.150D+00
 Coeff:      0.259D+00 0.928D+00
 Gap=     0.250 Goal=   None    Shift=    0.000
 RMSDP=1.60D-08 MaxDP=9.21D-07 DE=-2.00D-11 OVMax= 4.51D-07

 Cycle  21  Pass 1  IDiag  1:
 Restarting incremental Fock formation.
 E= -3010.56069532429     Delta-E=        0.000000000001 Rises=F Damp=F
 DIIS: error= 4.90D-09 at cycle  21 NSaved=  20.
 NSaved=20 IEnMin=19 EnMin= -3010.56069532429     IErMin=20 ErrMin= 4.90D-09
 ErrMax= 4.90D-09  0.00D+00 EMaxC= 1.00D-01 BMatC= 6.23D-15 BMatP= 6.70D-14
 IDIUse=1 WtCom= 1.00D+00 WtEn= 0.00D+00
 Coeff-Com: -0.240D-08-0.269D-07 0.658D-08 0.151D-06 0.443D-06-0.789D-06
 Coeff-Com: -0.419D-05-0.420D-05 0.451D-04 0.119D-03-0.865D-04-0.543D-03
 Coeff-Com: -0.115D-02 0.189D-02 0.869D-02 0.799D-03-0.576D-01-0.586D-01
 Coeff-Com:  0.174D+00 0.932D+00
 Coeff:     -0.240D-08-0.269D-07 0.658D-08 0.151D-06 0.443D-06-0.789D-06
 Coeff:     -0.419D-05-0.420D-05 0.451D-04 0.119D-03-0.865D-04-0.543D-03
 Coeff:     -0.115D-02 0.189D-02 0.869D-02 0.799D-03-0.576D-01-0.586D-01
 Coeff:      0.174D+00 0.932D+00
 Gap=     0.250 Goal=   None    Shift=    0.000
 RMSDP=5.88D-09 MaxDP=3.47D-07 DE= 9.09D-13 OVMax= 1.25D-07

 SCF Done:  E(RwB97XD) =  -3010.56069532     A.U. after   21 cycles
            NFock= 21  Conv=0.59D-08     -V/T= 2.0016
 KE= 3.005871736556D+03 PE=-8.635468502231D+03 EE= 1.877183306859D+03
 Leave Link  502 at Wed May  1 14:49:12 2024, MaxMem=  1207959552 cpu:            1217.2 elap:            1217.3
 (Enter /software/gaussian/g16-c01/sse4/g16/l601.exe)
 Copying SCF densities to generalized density rwf, IOpCl= 0 IROHF=0.

 **********************************************************************

            Population analysis using the SCF Density.

 **********************************************************************

 Alpha  occ. eigenvalues -- -483.35163 -62.90225 -56.69860 -56.69371 -56.69365
 Alpha  occ. eigenvalues --  -19.46862 -19.46336 -14.85950 -10.61534 -10.58490
 Alpha  occ. eigenvalues --  -10.58406 -10.57274 -10.56777 -10.51967  -9.06058
 Alpha  occ. eigenvalues --   -6.88575  -6.86954  -6.86938  -2.98517  -2.98083
 Alpha  occ. eigenvalues --   -2.98070  -2.96772  -2.96772  -1.50288  -1.33255
 Alpha  occ. eigenvalues --   -1.23938  -1.15989  -1.12113  -1.07332  -1.01663
 Alpha  occ. eigenvalues --   -0.96604  -0.91716  -0.86019  -0.81707  -0.81255
 Alpha  occ. eigenvalues --   -0.80713  -0.79751  -0.76655  -0.76163  -0.74113
 Alpha  occ. eigenvalues --   -0.69515  -0.67319  -0.64626  -0.62687  -0.61004
 Alpha  occ. eigenvalues --   -0.57910  -0.57516  -0.56735  -0.56013
 Alpha virt. eigenvalues --   -0.31048  -0.22056  -0.19872  -0.18671  -0.15090
 Alpha virt. eigenvalues --   -0.14272  -0.13476  -0.10023  -0.08879  -0.08485
 Alpha virt. eigenvalues --   -0.06752  -0.05477  -0.04415  -0.03412  -0.02158
 Alpha virt. eigenvalues --   -0.01585  -0.00984   0.00411   0.01227   0.01566
 Alpha virt. eigenvalues --    0.02259   0.02758   0.04477   0.05000   0.05622
 Alpha virt. eigenvalues --    0.05795   0.07454   0.08365   0.09368   0.09803
 Alpha virt. eigenvalues --    0.10192   0.11260   0.11513   0.12616   0.13285
 Alpha virt. eigenvalues --    0.13679   0.13986   0.14236   0.14713   0.15896
 Alpha virt. eigenvalues --    0.17224   0.19007   0.19470   0.20134   0.20674
 Alpha virt. eigenvalues --    0.21932   0.22465   0.23746   0.25222   0.25497
 Alpha virt. eigenvalues --    0.25904   0.26909   0.27782   0.28043   0.28932
 Alpha virt. eigenvalues --    0.29813   0.31796   0.32682   0.34510   0.35260
 Alpha virt. eigenvalues --    0.36444   0.37263   0.38946   0.41005   0.41498
 Alpha virt. eigenvalues --    0.42995   0.43388   0.44525   0.45855   0.47099
 Alpha virt. eigenvalues --    0.47738   0.49070   0.50325   0.50929   0.51681
 Alpha virt. eigenvalues --    0.51961   0.52994   0.56314   0.56808   0.59128
 Alpha virt. eigenvalues --    0.60650   0.61343   0.63979   0.64182   0.67451
 Alpha virt. eigenvalues --    0.69351   0.71004   0.72313   0.72812   0.75755
 Alpha virt. eigenvalues --    0.76236   0.79449   0.80270   0.81537   0.84367
 Alpha virt. eigenvalues --    0.85208   0.87752   0.90768   0.92049   0.96884
 Alpha virt. eigenvalues --    0.99364   1.01129   1.03147   1.04882   1.05819
 Alpha virt. eigenvalues --    1.07641   1.10034   1.11713   1.12188   1.14444
 Alpha virt. eigenvalues --    1.22305   1.23927   1.25934   1.32834   1.35633
 Alpha virt. eigenvalues --    1.35986   1.36443   1.43808   1.53610   1.56424
 Alpha virt. eigenvalues --    1.57303   1.58007   1.60141   1.61227   1.65323
 Alpha virt. eigenvalues --    1.68202   1.68474   1.73443   1.74810   1.78529
 Alpha virt. eigenvalues --    1.79969   1.84740   1.87624   1.89682   1.91558
 Alpha virt. eigenvalues --    1.96493   2.01997   2.02679   2.04244   2.06711
 Alpha virt. eigenvalues --    2.07675   2.14124   2.20436   2.22575   2.31090
 Alpha virt. eigenvalues --    2.36386   2.40001   2.40888   2.42951   2.51911
 Alpha virt. eigenvalues --    2.56410   2.62666   2.65535   2.67639   2.71224
 Alpha virt. eigenvalues --    2.72434   2.75592   2.76854   2.80237   2.80791
 Alpha virt. eigenvalues --    2.92360   2.94868   2.99922   3.03284   3.08191
 Alpha virt. eigenvalues --    3.12432   3.15376   3.19337   3.23051   3.24043
 Alpha virt. eigenvalues --    3.26709   3.38505   3.48204   3.50738   3.53426
 Alpha virt. eigenvalues --    3.56031   3.69227   3.73499   3.81641   3.86308
 Alpha virt. eigenvalues --    4.04588   4.04848   4.12712   4.17800   4.38742
 Alpha virt. eigenvalues --    4.43729   4.56496   4.59259   4.92445   4.95317
 Alpha virt. eigenvalues --    5.03744   5.08163   5.62149   6.15128   6.60389
 Alpha virt. eigenvalues --    7.43282   7.44850   7.54824  23.20546  23.60642
 Alpha virt. eigenvalues --   23.66761  23.79368  23.95719  24.00901  35.32001
 Alpha virt. eigenvalues --   47.87174  49.84793  49.93619 289.76540 289.78211
 Alpha virt. eigenvalues --  289.906961020.87655
          Condensed to atoms (all electrons):
               1          2          3          4          5          6
     1  C    8.613923  -1.840200   0.252857  -1.573960  -1.040052   0.299109
     2  C   -1.840200  12.310276  -2.071867  -2.534641   1.341080  -0.007683
     3  C    0.252857  -2.071867  13.272142  -2.640805  -1.591337   0.020695
     4  C   -1.573960  -2.534641  -2.640805  16.968398   0.667290   0.001703
     5  C   -1.040052   1.341080  -1.591337   0.667290   8.008548   0.008751
     6  H    0.299109  -0.007683   0.020695   0.001703   0.008751   0.260275
     7  H    0.039441   0.252422   0.043460  -0.013321  -0.013662  -0.000731
     8  H    0.013553  -0.047960   0.151034   0.101417  -0.032496   0.000003
     9  H    0.070667  -0.031584   0.010900  -0.021371   0.283089  -0.001841
    10  N   -0.084610   0.282395  -0.936711   0.321800   0.052944  -0.000284
    11  O    0.053694  -0.132382  -0.232405  -0.087751  -0.076935  -0.000032
    12  O    0.257691   0.091747  -0.302613  -0.095016  -0.029946  -0.000016
    13  C    1.484620  -2.118381   0.768274  -5.324512  -1.632993  -0.003043
    14  H   -0.024329   0.037287  -0.025858   0.138162   0.002210   0.000001
    15  Br  -0.000791   0.049198  -0.101338  -0.187341  -0.004521  -0.000202
               7          8          9         10         11         12
     1  C    0.039441   0.013553   0.070667  -0.084610   0.053694   0.257691
     2  C    0.252422  -0.047960  -0.031584   0.282395  -0.132382   0.091747
     3  C    0.043460   0.151034   0.010900  -0.936711  -0.232405  -0.302613
     4  C   -0.013321   0.101417  -0.021371   0.321800  -0.087751  -0.095016
     5  C   -0.013662  -0.032496   0.283089   0.052944  -0.076935  -0.029946
     6  H   -0.000731   0.000003  -0.001841  -0.000284  -0.000032  -0.000016
     7  H    0.240513   0.000039   0.000064  -0.017676  -0.000785   0.015450
     8  H    0.000039   0.372131   0.000096  -0.032237   0.029138  -0.001585
     9  H    0.000064   0.000096   0.313243   0.000208   0.000011   0.000002
    10  N   -0.017676  -0.032237   0.000208   7.402143   0.084194   0.236684
    11  O   -0.000785   0.029138   0.000011   0.084194   8.058323   0.000401
    12  O    0.015450  -0.001585   0.000002   0.236684   0.000401   7.647370
    13  C    0.009759   0.153877   0.014441  -0.221399   0.391450   0.013779
    14  H   -0.000030  -0.007019  -0.004998  -0.000297  -0.000022  -0.000092
    15  Br   0.000147   0.008978   0.008650   0.022850  -0.002960   0.002335
              13         14         15
     1  C    1.484620  -0.024329  -0.000791
     2  C   -2.118381   0.037287   0.049198
     3  C    0.768274  -0.025858  -0.101338
     4  C   -5.324512   0.138162  -0.187341
     5  C   -1.632993   0.002210  -0.004521
     6  H   -0.003043   0.000001  -0.000202
     7  H    0.009759  -0.000030   0.000147
     8  H    0.153877  -0.007019   0.008978
     9  H    0.014441  -0.004998   0.008650
    10  N   -0.221399  -0.000297   0.022850
    11  O    0.391450  -0.000022  -0.002960
    12  O    0.013779  -0.000092   0.002335
    13  C   12.404180   0.194092   0.339300
    14  H    0.194092   0.418982  -0.071724
    15  Br   0.339300  -0.071724  34.915372
 Mulliken charges:
               1
     1  C   -0.521611
     2  C    0.420294
     3  C   -0.616428
     4  C    0.279949
     5  C    0.058031
     6  H    0.423296
     7  H    0.444910
     8  H    0.291030
     9  H    0.358423
    10  N   -0.110006
    11  O   -0.083938
    12  O    0.163808
    13  C   -0.473443
    14  H    0.343636
    15  Br   0.022047
 Sum of Mulliken charges =   1.00000
 Mulliken charges with hydrogens summed into heavy atoms:
               1
     1  C   -0.098315
     2  C    0.865205
     3  C   -0.616428
     4  C    0.570980
     5  C    0.416454
    10  N   -0.110006
    11  O   -0.083938
    12  O    0.163808
    13  C   -0.129808
    15  Br   0.022047
 Electronic spatial extent (au):  <R**2>=           2801.6989
 Charge=              1.0000 electrons
 Dipole moment (field-independent basis, Debye):
    X=              0.0300    Y=              6.1372    Z=              0.8281  Tot=              6.1929
 Quadrupole moment (field-independent basis, Debye-Ang):
   XX=            -69.8213   YY=            -55.8174   ZZ=            -64.6889
   XY=              8.8001   XZ=              0.3701   YZ=             -1.4378
 Traceless Quadrupole moment (field-independent basis, Debye-Ang):
   XX=             -6.3788   YY=              7.6251   ZZ=             -1.2463
   XY=              8.8001   XZ=              0.3701   YZ=             -1.4378
 Octapole moment (field-independent basis, Debye-Ang**2):
  XXX=           -290.8500  YYY=            129.2511  ZZZ=             83.2030  XYY=            -71.8121
  XXY=             66.0883  XXZ=             33.1352  XZZ=            -76.2345  YZZ=             27.2893
  YYZ=             34.9987  XYZ=             -1.8899
 Hexadecapole moment (field-independent basis, Debye-Ang**3):
 XXXX=          -2248.0796 YYYY=           -726.7395 ZZZZ=           -364.4872 XXXY=             55.7015
 XXXZ=            -24.7163 YYYX=            -37.1351 YYYZ=           -185.3046 ZZZX=            -22.4207
 ZZZY=           -154.2818 XXYY=           -457.5642 XXZZ=           -372.6734 YYZZ=           -185.6105
 XXYZ=            -60.3605 YYXZ=             -7.9990 ZZXY=             -7.9195
 N-N= 7.418527634912D+02 E-N=-8.635468502558D+03  KE= 3.005871736556D+03
 No NMR shielding tensors so no spin-rotation constants.
 Leave Link  601 at Wed May  1 14:49:19 2024, MaxMem=  1207959552 cpu:               7.4 elap:               7.5
 (Enter /software/gaussian/g16-c01/sse4/g16/l9999.exe)
 Unable to Open any file for archive entry.
 1\1\GINC-BHX0033\SP\RwB97XD\6-311+G(d)\C6H5Br1N1O2(1+)\BWEIGHT\01-May-
 2024\0\\#P wB97XD/6-311+G* NoSymm #P Field=Y-233\\TitleMe\\1,1\C,0,0.0
 295,1.3397,0.0682\C,0,1.4348,1.2867,0.0064\C,0,2.1118,0.0511,-0.0054\C
 ,0,1.4451,-1.1372,0.0312\C,0,-0.6879,0.1682,0.11\H,0,-0.4713,2.2984,0.
 0781\H,0,2.0273,2.1965,-0.0322\H,0,1.9897,-2.0764,0.0232\H,0,-1.7716,0
 .1804,0.1582\N,0,3.5864,0.051,-0.0675\O,0,4.1471,-1.0597,-0.0881\O,0,4
 .145,1.1639,-0.0901\C,0,-0.0236,-1.1458,0.0835\H,0,-0.4367,-1.8725,0.7
 889\Br,0,-0.5359,-1.8697,-1.7408\\Version=ES64L-G16RevC.01\HF=-3010.56
 06953\RMSD=5.875e-09\Dipole=-1.8947483,3.5626462,1.4719866\Quadrupole=
 -4.7424917,5.6691102,-0.9266185,6.5426215,0.2751908,-1.0689977\PG=C01 
 [X(C6H5Br1N1O2)]\\@
 The archive entry for this job was punched.


 IF IT HAPPENS, IT MUST BE POSSIBLE.

 -- THE UNNAMED LAW FROM PAUL DICKSON'S 
    "THE OFFICIAL RULES"
 Job cpu time:       0 days  0 hours 21 minutes 28.4 seconds.
 Elapsed time:       0 days  0 hours 21 minutes 31.2 seconds.
 File lengths (MBytes):  RWF=     40 Int=      0 D2E=      0 Chk=     32 Scr=      1
 Normal termination of Gaussian 16 at Wed May  1 14:49:20 2024.
