 Entering Gaussian System, Link 0=g16
 Initial command:
 /software/gaussian/g16-a03/l1.exe "/local_scratch/6484999/Gau-2601.inp" -scrdir="/local_scratch/6484999/"
 Entering Link 1 = /software/gaussian/g16-a03/l1.exe PID=      2603.
  
 Copyright (c) 1988,1990,1992,1993,1995,1998,2003,2009,2016,
            Gaussian, Inc.  All Rights Reserved.
  
 This is part of the Gaussian(R) 16 program.  It is based on
 the Gaussian(R) 09 system (copyright 2009, Gaussian, Inc.),
 the Gaussian(R) 03 system (copyright 2003, Gaussian, Inc.),
 the Gaussian(R) 98 system (copyright 1998, Gaussian, Inc.),
 the Gaussian(R) 94 system (copyright 1995, Gaussian, Inc.),
 the Gaussian 92(TM) system (copyright 1992, Gaussian, Inc.),
 the Gaussian 90(TM) system (copyright 1990, Gaussian, Inc.),
 the Gaussian 88(TM) system (copyright 1988, Gaussian, Inc.),
 the Gaussian 86(TM) system (copyright 1986, Carnegie Mellon
 University), and the Gaussian 82(TM) system (copyright 1983,
 Carnegie Mellon University). Gaussian is a federally registered
 trademark of Gaussian, Inc.
  
 This software contains proprietary and confidential information,
 including trade secrets, belonging to Gaussian, Inc.
  
 This software is provided under written license and may be
 used, copied, transmitted, or stored only in accord with that
 written license.
  
 The following legend is applicable only to US Government
 contracts under FAR:
  
                    RESTRICTED RIGHTS LEGEND
  
 Use, reproduction and disclosure by the US Government is
 subject to restrictions as set forth in subparagraphs (a)
 and (c) of the Commercial Computer Software - Restricted
 Rights clause in FAR 52.227-19.
  
 Gaussian, Inc.
 340 Quinnipiac St., Bldg. 40, Wallingford CT 06492
  
  
 ---------------------------------------------------------------
 Warning -- This program may not be used in any manner that
 competes with the business of Gaussian, Inc. or will provide
 assistance to any competitor of Gaussian, Inc.  The licensee
 of this program is prohibited from giving any competitor of
 Gaussian, Inc. access to this program.  By using this program,
 the user acknowledges that Gaussian, Inc. is engaged in the
 business of creating and licensing software in the field of
 computational chemistry and represents and warrants to the
 licensee that it is not a competitor of Gaussian, Inc. and that
 it will not use this program in any manner prohibited above.
 ---------------------------------------------------------------
  

 Cite this work as:
 Gaussian 16, Revision A.03,
 M. J. Frisch, G. W. Trucks, H. B. Schlegel, G. E. Scuseria, 
 M. A. Robb, J. R. Cheeseman, G. Scalmani, V. Barone, 
 G. A. Petersson, H. Nakatsuji, X. Li, M. Caricato, A. V. Marenich, 
 J. Bloino, B. G. Janesko, R. Gomperts, B. Mennucci, H. P. Hratchian, 
 J. V. Ortiz, A. F. Izmaylov, J. L. Sonnenberg, D. Williams-Young, 
 F. Ding, F. Lipparini, F. Egidi, J. Goings, B. Peng, A. Petrone, 
 T. Henderson, D. Ranasinghe, V. G. Zakrzewski, J. Gao, N. Rega, 
 G. Zheng, W. Liang, M. Hada, M. Ehara, K. Toyota, R. Fukuda, 
 J. Hasegawa, M. Ishida, T. Nakajima, Y. Honda, O. Kitao, H. Nakai, 
 T. Vreven, K. Throssell, J. A. Montgomery, Jr., J. E. Peralta, 
 F. Ogliaro, M. J. Bearpark, J. J. Heyd, E. N. Brothers, K. N. Kudin, 
 V. N. Staroverov, T. A. Keith, R. Kobayashi, J. Normand, 
 K. Raghavachari, A. P. Rendell, J. C. Burant, S. S. Iyengar, 
 J. Tomasi, M. Cossi, J. M. Millam, M. Klene, C. Adamo, R. Cammi, 
 J. W. Ochterski, R. L. Martin, K. Morokuma, O. Farkas, 
 J. B. Foresman, and D. J. Fox, Gaussian, Inc., Wallingford CT, 2016.
 
 ******************************************
 Gaussian 16:  ES64L-G16RevA.03 25-Dec-2016
                17-Sep-2021 
 ******************************************
 %chk=geometry.chk
 %mem=2GB
 %nprocshared=1
 Will use up to    1 processors via shared memory.
 --------------------------------------------------------------------
 #p B3LYP/6-311+G** #p TD=(singlets,nstates=30)IOp(6/8=3) IOp(9/40=4)
 --------------------------------------------------------------------
 1/38=1,172=1/1;
 2/12=2,17=6,18=5,40=1/2;
 3/5=4,6=6,7=111,11=9,25=1,30=1,74=-5/1,2,3,8;
 4//1;
 5/5=2,38=5/2;
 8/6=1,10=2,108=30/1;
 9/40=4,41=30,42=1,48=1,70=2/14;
 6/7=2,8=3,9=2,10=2/1;
 99/5=1,9=1/99;
 Leave Link    1 at Fri Sep 17 10:52:43 2021, MaxMem=   268435456 cpu:               0.0 elap:               0.2
 (Enter /software/gaussian/g16-a03/l101.exe)
 -------------------------------
 Scan Step 268, Bond Length 1.84
 -------------------------------
 Symbolic Z-matrix:
 Charge =  0 Multiplicity = 1
 C                     0.        0.       -0.52736 
 H                     0.        0.93726  -1.11871 
 H                     0.       -0.93726  -1.11871 
 O                     0.        0.        1.31264 
 
 ITRead=  0  0  0  0
 MicOpt= -1 -1 -1 -1
 NAtoms=      4 NQM=        4 NQMF=       0 NMMI=      0 NMMIF=      0
                NMic=       0 NMicF=      0.
                    Isotopes and Nuclear Properties:
 (Nuclear quadrupole moments (NQMom) in fm**2, nuclear magnetic moments (NMagM)
  in nuclear magnetons)

  Atom         1           2           3           4
 IAtWgt=          12           1           1          16
 AtmWgt=  12.0000000   1.0078250   1.0078250  15.9949146
 NucSpn=           0           1           1           0
 AtZEff=  -0.0000000  -0.0000000  -0.0000000  -0.0000000
 NQMom=    0.0000000   0.0000000   0.0000000   0.0000000
 NMagM=    0.0000000   2.7928460   2.7928460   0.0000000
 AtZNuc=   6.0000000   1.0000000   1.0000000   8.0000000
 Leave Link  101 at Fri Sep 17 10:52:43 2021, MaxMem=   268435456 cpu:               0.1 elap:               0.1
 (Enter /software/gaussian/g16-a03/l202.exe)
                          Input orientation:                          
 ---------------------------------------------------------------------
 Center     Atomic      Atomic             Coordinates (Angstroms)
 Number     Number       Type             X           Y           Z
 ---------------------------------------------------------------------
      1          6           0        0.000000    0.000000   -0.527360
      2          1           0        0.000000    0.937260   -1.118710
      3          1           0        0.000000   -0.937260   -1.118710
      4          8           0        0.000000    0.000000    1.312640
 ---------------------------------------------------------------------
                    Distance matrix (angstroms):
                    1          2          3          4
     1  C    0.000000
     2  H    1.108220   0.000000
     3  H    1.108220   1.874520   0.000000
     4  O    1.840000   2.605747   2.605747   0.000000
 Stoichiometry    CH2O
 Framework group  C2V[C2(CO),SGV(H2)]
 Deg. of freedom     3
 Full point group                 C2V     NOp   4
 Largest Abelian subgroup         C2V     NOp   4
 Largest concise Abelian subgroup C2      NOp   2
                         Standard orientation:                         
 ---------------------------------------------------------------------
 Center     Atomic      Atomic             Coordinates (Angstroms)
 Number     Number       Type             X           Y           Z
 ---------------------------------------------------------------------
      1          6           0        0.000000    0.000000   -0.846081
      2          1           0        0.000000    0.937260   -1.437431
      3          1           0       -0.000000   -0.937260   -1.437431
      4          8           0        0.000000   -0.000000    0.993919
 ---------------------------------------------------------------------
 Rotational constants (GHZ):         285.4183527          17.8668686          16.8143116
 Leave Link  202 at Fri Sep 17 10:52:43 2021, MaxMem=   268435456 cpu:               0.0 elap:               0.0
 (Enter /software/gaussian/g16-a03/l301.exe)
 Standard basis: 6-311+G(d,p) (5D, 7F)
 Ernie: Thresh=  0.10000D-02 Tol=  0.10000D-05 Strict=F.
 There are    29 symmetry adapted cartesian basis functions of A1  symmetry.
 There are     3 symmetry adapted cartesian basis functions of A2  symmetry.
 There are    11 symmetry adapted cartesian basis functions of B1  symmetry.
 There are    15 symmetry adapted cartesian basis functions of B2  symmetry.
 There are    27 symmetry adapted basis functions of A1  symmetry.
 There are     3 symmetry adapted basis functions of A2  symmetry.
 There are    11 symmetry adapted basis functions of B1  symmetry.
 There are    15 symmetry adapted basis functions of B2  symmetry.
    56 basis functions,    88 primitive gaussians,    58 cartesian basis functions
     8 alpha electrons        8 beta electrons
       nuclear repulsion energy        23.0662399792 Hartrees.
 IExCor=  402 DFT=T Ex+Corr=B3LYP ExCW=0 ScaHFX=  0.200000
 ScaDFX=  0.800000  0.720000  1.000000  0.810000 ScalE2=  1.000000  1.000000
 IRadAn=      5 IRanWt=     -1 IRanGd=            0 ICorTp=0 IEmpDi=  4
 NAtoms=    4 NActive=    4 NUniq=    3 SFac= 1.78D+00 NAtFMM=   60 NAOKFM=F Big=F
 Integral buffers will be    131072 words long.
 Regular integral format.
 Two-electron integral symmetry is turned on.
 Leave Link  301 at Fri Sep 17 10:52:43 2021, MaxMem=   268435456 cpu:               0.0 elap:               0.1
 (Enter /software/gaussian/g16-a03/l302.exe)
 NPDir=0 NMtPBC=     1 NCelOv=     1 NCel=       1 NClECP=     1 NCelD=      1
         NCelK=      1 NCelE2=     1 NClLst=     1 CellRange=     0.0.
 One-electron integrals computed using PRISM.
 One-electron integral symmetry used in STVInt
 NBasis=    56 RedAO= T EigKep=  1.32D-02  NBF=    27     3    11    15
 NBsUse=    56 1.00D-06 EigRej= -1.00D+00 NBFU=    27     3    11    15
 Precomputing XC quadrature grid using
 IXCGrd= 4 IRadAn=           5 IRanWt=          -1 IRanGd=           0 AccXCQ= 0.00D+00.
 Generated NRdTot=       0 NPtTot=           0 NUsed=           0 NTot=          32
 NSgBfM=    58    58    58    58    58 MxSgAt=     4 MxSgA2=     4.
 Leave Link  302 at Fri Sep 17 10:52:44 2021, MaxMem=   268435456 cpu:               0.1 elap:               0.1
 (Enter /software/gaussian/g16-a03/l303.exe)
 DipDrv:  MaxL=1.
 Leave Link  303 at Fri Sep 17 10:52:44 2021, MaxMem=   268435456 cpu:               0.0 elap:               0.0
 (Enter /software/gaussian/g16-a03/l308.exe)
 Leave Link  308 at Fri Sep 17 10:52:44 2021, MaxMem=   268435456 cpu:               0.0 elap:               0.0
 (Enter /software/gaussian/g16-a03/l401.exe)
 ExpMin= 4.38D-02 ExpMax= 8.59D+03 ExpMxC= 1.30D+03 IAcc=3 IRadAn=         5 AccDes= 0.00D+00
 Harris functional with IExCor=  402 and IRadAn=       5 diagonalized for initial guess.
 HarFok:  IExCor=  402 AccDes= 0.00D+00 IRadAn=         5 IDoV= 1 UseB2=F ITyADJ=14
 ICtDFT=  3500011 ScaDFX=  1.000000  1.000000  1.000000  1.000000
 FoFCou: FMM=F IPFlag=           0 FMFlag=      100000 FMFlg1=           0
         NFxFlg=           0 DoJE=T BraDBF=F KetDBF=T FulRan=T
         wScrn=  0.000000 ICntrl=       500 IOpCl=  0 I1Cent=   200000004 NGrid=           0
         NMat0=    1 NMatS0=      1 NMatT0=    0 NMatD0=    1 NMtDS0=    0 NMtDT0=    0
 Petite list used in FoFCou.
 Harris En= -114.381660492717    
 JPrj=0 DoOrth=F DoCkMO=F.
 Initial guess orbital symmetries:
       Occupied  (A1) (A1) (A1) (A1) (B2) (A1) (B1) (B2)
       Virtual   (B1) (A1) (A1) (B2) (A1) (B1) (A1) (B2) (A1) (B1)
                 (B2) (A1) (B2) (A1) (B1) (A1) (B2) (A1) (B1) (A2)
                 (B2) (A1) (A1) (B1) (B2) (A1) (A1) (B2) (B1) (A2)
                 (A1) (B2) (A1) (B2) (A1) (B1) (A1) (A2) (A1) (B1)
                 (B2) (A1) (B2) (B1) (B2) (A1) (A1) (A1)
 The electronic state of the initial guess is 1-A1.
 Leave Link  401 at Fri Sep 17 10:52:44 2021, MaxMem=   268435456 cpu:               0.3 elap:               0.3
 (Enter /software/gaussian/g16-a03/l502.exe)
 Keep R1 ints in memory in symmetry-blocked form, NReq=2159901.
 FoFCou: FMM=F IPFlag=           0 FMFlag=           0 FMFlg1=           0
         NFxFlg=           0 DoJE=F BraDBF=F KetDBF=F FulRan=T
         wScrn=  0.000000 ICntrl=       600 IOpCl=  0 I1Cent=           0 NGrid=           0
         NMat0=    1 NMatS0=   1596 NMatT0=    0 NMatD0=    1 NMtDS0=    0 NMtDT0=    0
 Petite list used in FoFCou.
 Closed shell SCF:
 Using DIIS extrapolation, IDIIS=  1040.
 NGot=   268435456 LenX=   268074392 LenY=   268070587
 Requested convergence on RMS density matrix=1.00D-08 within 128 cycles.
 Requested convergence on MAX density matrix=1.00D-06.
 Requested convergence on             energy=1.00D-06.
 No special actions if energy rises.

 Cycle   1  Pass 1  IDiag  1:
 E= -114.180415458692    
 DIIS: error= 7.46D-02 at cycle   1 NSaved=   1.
 NSaved= 1 IEnMin= 1 EnMin= -114.180415458692     IErMin= 1 ErrMin= 7.46D-02
 ErrMax= 7.46D-02  0.00D+00 EMaxC= 1.00D-01 BMatC= 1.65D-01 BMatP= 1.65D-01
 IDIUse=3 WtCom= 2.54D-01 WtEn= 7.46D-01
 Coeff-Com:  0.100D+01
 Coeff-En:   0.100D+01
 Coeff:      0.100D+01
 Gap=     0.213 Goal=   None    Shift=    0.000
 GapD=    0.213 DampG=1.000 DampE=0.500 DampFc=0.5000 IDamp=-1.
 Damping current iteration by 5.00D-01
 RMSDP=4.07D-02 MaxDP=7.59D-01              OVMax= 5.09D-01

 Cycle   2  Pass 1  IDiag  1:
 E= -113.072361705954     Delta-E=        1.108053752738 Rises=F Damp=T
 DIIS: error= 1.29D-01 at cycle   2 NSaved=   2.
 NSaved= 2 IEnMin= 1 EnMin= -114.180415458692     IErMin= 1 ErrMin= 7.46D-02
 ErrMax= 1.29D-01  0.00D+00 EMaxC= 1.00D-01 BMatC= 4.91D-01 BMatP= 1.65D-01
 IDIUse=2 WtCom= 0.00D+00 WtEn= 1.00D+00
 Coeff-En:   0.841D+00 0.159D+00
 Coeff:      0.841D+00 0.159D+00
 Gap=     0.011 Goal=   None    Shift=    0.000
 RMSDP=1.95D-02 MaxDP=3.78D-01 DE= 1.11D+00 OVMax= 3.51D-01

 Cycle   3  Pass 1  IDiag  1:
 E= -113.218569313721     Delta-E=       -0.146207607767 Rises=F Damp=F
 DIIS: error= 1.99D-01 at cycle   3 NSaved=   3.
 NSaved= 3 IEnMin= 1 EnMin= -114.180415458692     IErMin= 1 ErrMin= 7.46D-02
 ErrMax= 1.99D-01  0.00D+00 EMaxC= 1.00D-01 BMatC= 1.01D+00 BMatP= 1.65D-01
 IDIUse=2 WtCom= 0.00D+00 WtEn= 1.00D+00
 Coeff-En:   0.763D+00 0.000D+00 0.237D+00
 Coeff:      0.763D+00 0.000D+00 0.237D+00
 Gap=     0.062 Goal=   None    Shift=    0.000
 RMSDP=6.71D-03 MaxDP=8.98D-02 DE=-1.46D-01 OVMax= 4.15D-01

 Cycle   4  Pass 1  IDiag  1:
 E= -114.242637433821     Delta-E=       -1.024068120100 Rises=F Damp=F
 DIIS: error= 8.14D-02 at cycle   4 NSaved=   4.
 NSaved= 4 IEnMin= 4 EnMin= -114.242637433821     IErMin= 1 ErrMin= 7.46D-02
 ErrMax= 8.14D-02  0.00D+00 EMaxC= 1.00D-01 BMatC= 1.16D-01 BMatP= 1.65D-01
 IDIUse=3 WtCom= 1.86D-01 WtEn= 8.14D-01
 Coeff-Com:  0.391D+00 0.286D-01-0.945D-01 0.675D+00
 Coeff-En:   0.428D+00 0.000D+00 0.000D+00 0.572D+00
 Coeff:      0.421D+00 0.532D-02-0.176D-01 0.591D+00
 Gap=     0.112 Goal=   None    Shift=    0.000
 RMSDP=3.19D-03 MaxDP=4.60D-02 DE=-1.02D+00 OVMax= 2.02D-01

 Cycle   5  Pass 1  IDiag  1:
 E= -114.340921635382     Delta-E=       -0.098284201561 Rises=F Damp=F
 DIIS: error= 1.23D-02 at cycle   5 NSaved=   5.
 NSaved= 5 IEnMin= 5 EnMin= -114.340921635382     IErMin= 5 ErrMin= 1.23D-02
 ErrMax= 1.23D-02  0.00D+00 EMaxC= 1.00D-01 BMatC= 2.97D-03 BMatP= 1.16D-01
 IDIUse=3 WtCom= 8.77D-01 WtEn= 1.23D-01
 Coeff-Com:  0.412D-02 0.153D-01-0.172D-01 0.157D+00 0.841D+00
 Coeff-En:   0.000D+00 0.000D+00 0.000D+00 0.762D-01 0.924D+00
 Coeff:      0.361D-02 0.135D-01-0.151D-01 0.147D+00 0.851D+00
 Gap=     0.113 Goal=   None    Shift=    0.000
 RMSDP=4.40D-04 MaxDP=6.59D-03 DE=-9.83D-02 OVMax= 2.95D-02

 Cycle   6  Pass 1  IDiag  1:
 E= -114.343536502277     Delta-E=       -0.002614866895 Rises=F Damp=F
 DIIS: error= 8.32D-04 at cycle   6 NSaved=   6.
 NSaved= 6 IEnMin= 6 EnMin= -114.343536502277     IErMin= 6 ErrMin= 8.32D-04
 ErrMax= 8.32D-04  0.00D+00 EMaxC= 1.00D-01 BMatC= 2.58D-05 BMatP= 2.97D-03
 IDIUse=3 WtCom= 9.92D-01 WtEn= 8.32D-03
 Coeff-Com: -0.369D-02 0.162D-02-0.527D-02 0.324D-01 0.212D+00 0.763D+00
 Coeff-En:   0.000D+00 0.000D+00 0.000D+00 0.000D+00 0.000D+00 0.100D+01
 Coeff:     -0.366D-02 0.161D-02-0.522D-02 0.321D-01 0.211D+00 0.765D+00
 Gap=     0.114 Goal=   None    Shift=    0.000
 RMSDP=5.39D-05 MaxDP=9.39D-04 DE=-2.61D-03 OVMax= 1.20D-03

 Cycle   7  Pass 1  IDiag  1:
 E= -114.343550464813     Delta-E=       -0.000013962535 Rises=F Damp=F
 DIIS: error= 5.93D-04 at cycle   7 NSaved=   7.
 NSaved= 7 IEnMin= 7 EnMin= -114.343550464813     IErMin= 7 ErrMin= 5.93D-04
 ErrMax= 5.93D-04  0.00D+00 EMaxC= 1.00D-01 BMatC= 6.47D-06 BMatP= 2.58D-05
 IDIUse=3 WtCom= 9.94D-01 WtEn= 5.93D-03
 Coeff-Com: -0.810D-03 0.678D-04 0.174D-04-0.281D-02 0.367D-01 0.104D+00
 Coeff-Com:  0.863D+00
 Coeff-En:   0.000D+00 0.000D+00 0.000D+00 0.000D+00 0.000D+00 0.000D+00
 Coeff-En:   0.100D+01
 Coeff:     -0.806D-03 0.674D-04 0.173D-04-0.280D-02 0.365D-01 0.103D+00
 Coeff:      0.864D+00
 Gap=     0.114 Goal=   None    Shift=    0.000
 RMSDP=2.69D-05 MaxDP=3.59D-04 DE=-1.40D-05 OVMax= 1.62D-03

 Cycle   8  Pass 1  IDiag  1:
 E= -114.343556307897     Delta-E=       -0.000005843085 Rises=F Damp=F
 DIIS: error= 8.44D-05 at cycle   8 NSaved=   8.
 NSaved= 8 IEnMin= 8 EnMin= -114.343556307897     IErMin= 8 ErrMin= 8.44D-05
 ErrMax= 8.44D-05  0.00D+00 EMaxC= 1.00D-01 BMatC= 1.29D-07 BMatP= 6.47D-06
 IDIUse=1 WtCom= 1.00D+00 WtEn= 0.00D+00
 Coeff-Com: -0.150D-03 0.915D-04 0.434D-04 0.860D-04 0.187D-03 0.578D-02
 Coeff-Com:  0.532D-01 0.941D+00
 Coeff:     -0.150D-03 0.915D-04 0.434D-04 0.860D-04 0.187D-03 0.578D-02
 Coeff:      0.532D-01 0.941D+00
 Gap=     0.114 Goal=   None    Shift=    0.000
 RMSDP=1.52D-06 MaxDP=1.73D-05 DE=-5.84D-06 OVMax= 7.02D-05

 Cycle   9  Pass 1  IDiag  1:
 E= -114.343556381608     Delta-E=       -0.000000073710 Rises=F Damp=F
 DIIS: error= 5.23D-05 at cycle   9 NSaved=   9.
 NSaved= 9 IEnMin= 9 EnMin= -114.343556381608     IErMin= 9 ErrMin= 5.23D-05
 ErrMax= 5.23D-05  0.00D+00 EMaxC= 1.00D-01 BMatC= 5.40D-08 BMatP= 1.29D-07
 IDIUse=1 WtCom= 1.00D+00 WtEn= 0.00D+00
 Coeff-Com: -0.513D-04 0.146D-04-0.207D-04 0.348D-03-0.251D-02-0.109D-02
 Coeff-Com: -0.559D-02 0.945D-01 0.914D+00
 Coeff:     -0.513D-04 0.146D-04-0.207D-04 0.348D-03-0.251D-02-0.109D-02
 Coeff:     -0.559D-02 0.945D-01 0.914D+00
 Gap=     0.114 Goal=   None    Shift=    0.000
 RMSDP=1.62D-06 MaxDP=2.28D-05 DE=-7.37D-08 OVMax= 9.64D-05

 Cycle  10  Pass 1  IDiag  1:
 E= -114.343556427721     Delta-E=       -0.000000046113 Rises=F Damp=F
 DIIS: error= 7.14D-06 at cycle  10 NSaved=  10.
 NSaved=10 IEnMin=10 EnMin= -114.343556427721     IErMin=10 ErrMin= 7.14D-06
 ErrMax= 7.14D-06  0.00D+00 EMaxC= 1.00D-01 BMatC= 9.33D-10 BMatP= 5.40D-08
 IDIUse=1 WtCom= 1.00D+00 WtEn= 0.00D+00
 Coeff-Com: -0.176D-05 0.102D-05 0.234D-06 0.243D-04-0.140D-03 0.661D-04
 Coeff-Com: -0.134D-02-0.420D-01-0.132D-01 0.106D+01
 Coeff:     -0.176D-05 0.102D-05 0.234D-06 0.243D-04-0.140D-03 0.661D-04
 Coeff:     -0.134D-02-0.420D-01-0.132D-01 0.106D+01
 Gap=     0.114 Goal=   None    Shift=    0.000
 RMSDP=2.57D-07 MaxDP=3.00D-06 DE=-4.61D-08 OVMax= 1.37D-05

 Cycle  11  Pass 1  IDiag  1:
 E= -114.343556428583     Delta-E=       -0.000000000862 Rises=F Damp=F
 DIIS: error= 1.41D-07 at cycle  11 NSaved=  11.
 NSaved=11 IEnMin=11 EnMin= -114.343556428583     IErMin=11 ErrMin= 1.41D-07
 ErrMax= 1.41D-07  0.00D+00 EMaxC= 1.00D-01 BMatC= 6.79D-13 BMatP= 9.33D-10
 IDIUse=1 WtCom= 1.00D+00 WtEn= 0.00D+00
 Coeff-Com: -0.664D-06 0.306D-07 0.304D-06 0.312D-06-0.262D-04-0.192D-04
 Coeff-Com: -0.959D-04-0.257D-02 0.277D-03 0.614D-01 0.941D+00
 Coeff:     -0.664D-06 0.306D-07 0.304D-06 0.312D-06-0.262D-04-0.192D-04
 Coeff:     -0.959D-04-0.257D-02 0.277D-03 0.614D-01 0.941D+00
 Gap=     0.114 Goal=   None    Shift=    0.000
 RMSDP=7.60D-09 MaxDP=1.13D-07 DE=-8.62D-10 OVMax= 5.50D-07

 SCF Done:  E(RB3LYP) =  -114.343556429     A.U. after   11 cycles
            NFock= 11  Conv=0.76D-08     -V/T= 2.0091
 KE= 1.133112113127D+02 PE=-3.145391105868D+02 EE= 6.381810286633D+01
 Leave Link  502 at Fri Sep 17 10:52:46 2021, MaxMem=   268435456 cpu:               1.9 elap:               2.2
 (Enter /software/gaussian/g16-a03/l801.exe)
 DoSCS=F DFT=T ScalE2(SS,OS)=  1.000000  1.000000
 ExpMin= 4.38D-02 ExpMax= 8.59D+03 ExpMxC= 1.30D+03 IAcc=3 IRadAn=         5 AccDes= 0.00D+00
 HarFok:  IExCor=  205 AccDes= 0.00D+00 IRadAn=         5 IDoV=-2 UseB2=F ITyADJ=14
 ICtDFT= 12500011 ScaDFX=  1.000000  1.000000  1.000000  1.000000
 Largest valence mixing into a core orbital is  5.43D-05
 Largest core mixing into a valence orbital is  1.28D-05
 Range of M.O.s used for correlation:     3    56
 NBasis=    56 NAE=     8 NBE=     8 NFC=     2 NFV=     0
 NROrb=     54 NOA=     6 NOB=     6 NVA=    48 NVB=    48
 Leave Link  801 at Fri Sep 17 10:52:46 2021, MaxMem=   268435456 cpu:               0.2 elap:               0.2
 (Enter /software/gaussian/g16-a03/l914.exe)
 RHF ground state
 Keep R1, R2, and R3 ints in memory in symmetry-blocked form, NReq=6042840.
 FoFCou: FMM=F IPFlag=           0 FMFlag=           0 FMFlg1=           0
         NFxFlg=           0 DoJE=F BraDBF=F KetDBF=F FulRan=T
         wScrn=  0.000000 ICntrl=       600 IOpCl=  0 I1Cent=           0 NGrid=           0
         NMat0=    1 NMatS0=   1596 NMatT0=    0 NMatD0=    1 NMtDS0=    0 NMtDT0=    0
 Petite list used in FoFCou.
 MDV=   268435456 DFT=T DoStab=F Mixed=T DoRPA=T DoScal=F NonHer=T
 Making orbital integer symmetry assigments:
 Orbital symmetries:
       Occupied  (A1) (A1) (A1) (A1) (B2) (A1) (B1) (B2)
       Virtual   (B1) (A1) (A1) (B2) (B1) (A1) (A1) (B2) (A1) (B1)
                 (B2) (A1) (A1) (B2) (B1) (A1) (B2) (A1) (A2) (B1)
                 (B2) (A1) (B1) (A1) (B2) (A1) (B2) (A1) (B1) (A2)
                 (A1) (B2) (A1) (B2) (A1) (B1) (A1) (A2) (A1) (B1)
                 (B2) (A1) (B2) (B1) (B2) (A1) (A1) (A1)
   120 initial guesses have been made.
 Convergence on wavefunction:    0.001000000000000
 Davidson Disk Diagonalization:  ConvIn= 1.00D-03 SkipCon=T Conv= 1.00D-03.
 Max sub-space:  1728 roots to seek:   120 dimension of matrix:          576
 Iteration     1 Dimension   120 NMult     0 NNew    120
 CISAX will form   120 AO SS matrices at one time.
 NMat=   120 NSing=   120 JSym2X=-1.
 New state      7 was old state      9
 New state      8 was old state      7
 New state      9 was old state     10
 New state     10 was old state     11
 New state     11 was old state     13
 New state     13 was old state     14
 New state     14 was old state     15
 New state     15 was old state     16
 New state     16 was old state     19
 New state     17 was old state     18
 New state     18 was old state     17
 New state     19 was old state     20
 New state     20 was old state     21
 New state     21 was old state     22
 New state     22 was old state     24
 New state     24 was old state     25
 New state     25 was old state     30
 New state     26 was old state     28
 New state     28 was old state     26
 New state     30 was old state     32
 Excitation Energies [eV] at current iteration:
 Root      1 :     1.279944841406420
 Root      2 :     3.366334252991332
 Root      3 :     3.682717281136360
 Root      4 :     3.828184757711404
 Root      5 :     4.455936440024517
 Root      6 :     6.877193032699197
 Root      7 :     6.904918009055351
 Root      8 :     7.327958599696847
 Root      9 :     8.000780373166133
 Root     10 :     8.441516375342443
 Root     11 :     8.488490642977208
 Root     12 :     8.566083639453861
 Root     13 :     8.984409380492128
 Root     14 :     9.005177511979715
 Root     15 :     9.175102016939018
 Root     16 :     9.741068225687485
 Root     17 :     9.904221980813150
 Root     18 :    10.023107475873820
 Root     19 :    10.419365608610060
 Root     20 :    10.664583357484710
 Root     21 :    10.666965493133220
 Root     22 :    10.833448551816170
 Root     23 :    11.211882799376480
 Root     24 :    11.477574002563830
 Root     25 :    11.939292202126290
 Root     26 :    12.013386711037930
 Root     27 :    12.124726669405490
 Root     28 :    12.207406694634930
 Root     29 :    12.653992782962210
 Root     30 :    12.867954664338000
 Root     31 :    13.049580729333630
 Root     32 :    13.564367073190060
 Root     33 :    13.731839727818280
 Root     34 :    13.923590692447820
 Root     35 :    14.111387543081200
 Root     36 :    14.116407910610390
 Root     37 :    14.422665731231020
 Root     38 :    14.778836478155300
 Root     39 :    14.975587481067600
 Root     40 :    15.415455537813460
 Root     41 :    15.541735233120350
 Root     42 :    15.720913451079960
 Root     43 :    15.807153862832350
 Root     44 :    16.054766655939250
 Root     45 :    17.082110968288730
 Root     46 :    17.328787946845800
 Root     47 :    17.495664461012570
 Root     48 :    17.627542404425730
 Root     49 :    17.709929425355760
 Root     50 :    17.736410114642060
 Root     51 :    17.997048031641640
 Root     52 :    18.149361798033580
 Root     53 :    18.714418940141270
 Root     54 :    19.071596182887800
 Root     55 :    19.142322903304890
 Root     56 :    19.539031939624550
 Root     57 :    19.991187911863940
 Root     58 :    20.122265650255570
 Root     59 :    20.251806247666850
 Root     60 :    20.272962884955040
 Root     61 :    20.315514043872830
 Root     62 :    20.640152503714320
 Root     63 :    21.033057261746130
 Root     64 :    21.130171370809350
 Root     65 :    21.472968699585630
 Root     66 :    21.855025633932430
 Root     67 :    21.987682837623070
 Root     68 :    22.137914824441250
 Root     69 :    22.440911124462540
 Root     70 :    22.484184328677540
 Root     71 :    22.697320782662940
 Root     72 :    23.201376342711070
 Root     73 :    23.416547885889370
 Root     74 :    23.688557170971760
 Root     75 :    23.820436271038710
 Root     76 :    24.201216661203390
 Root     77 :    24.274480874602820
 Root     78 :    24.465132426937770
 Root     79 :    24.646250643275830
 Root     80 :    25.021101647746840
 Root     81 :    25.038837137993700
 Root     82 :    25.111630556606340
 Root     83 :    25.221038852004180
 Root     84 :    25.227669573491550
 Root     85 :    25.617265620834700
 Root     86 :    26.443823173321410
 Root     87 :    26.531858113851450
 Root     88 :    26.669165624406400
 Root     89 :    26.856399322258660
 Root     90 :    27.800550622214090
 Root     91 :    28.190774702265250
 Root     92 :    28.778152470158620
 Root     93 :    28.835571460901020
 Root     94 :    29.255711736477660
 Root     95 :    29.552151944389490
 Root     96 :    29.642137608708830
 Root     97 :    30.567235565180290
 Root     98 :    31.332390777119270
 Root     99 :    31.539289746699140
 Root    100 :    32.754220188420240
 Root    101 :    33.142266105162340
 Root    102 :    33.179959120377380
 Root    103 :    33.617004581652080
 Root    104 :    33.734932222747460
 Root    105 :    33.791874552623380
 Root    106 :    33.935606984935350
 Root    107 :    33.996219823147780
 Root    108 :    34.877650433426840
 Root    109 :    35.275354522476040
 Root    110 :    35.337907015016810
 Root    111 :    35.701973976768270
 Root    112 :    35.966936641930690
 Root    113 :    36.704062355338330
 Root    114 :    36.717782518225090
 Root    115 :    37.525668989286110
 Root    116 :    37.657933186286790
 Root    117 :    38.171666225711820
 Root    118 :    38.593789680266800
 Root    119 :    39.748243853160830
 Root    120 :    43.235458411159480
 Iteration     2 Dimension   180 NMult   120 NNew     60
 CISAX will form    60 AO SS matrices at one time.
 NMat=    60 NSing=    60 JSym2X=-1.
 Root      1 not converged, maximum delta is    0.006733507455614
 Root      2 not converged, maximum delta is    0.008143372205975
 Root      3 not converged, maximum delta is    0.007765660209459
 Root      4 not converged, maximum delta is    0.008271848750204
 Root      5 not converged, maximum delta is    0.008794823560097
 Root      6 not converged, maximum delta is    0.002441414153636
 Root      7 not converged, maximum delta is    0.011570293176842
 Root      8 not converged, maximum delta is    0.002635239322104
 Root      9 not converged, maximum delta is    0.001659079448090
 Root     10 not converged, maximum delta is    0.001405528450486
 Root     11 not converged, maximum delta is    0.002880615978738
 Root     12 not converged, maximum delta is    0.001915213672456
 Root     13 not converged, maximum delta is    0.015673602795807
 Root     14 not converged, maximum delta is    0.002249754110504
 Root     15 not converged, maximum delta is    0.020829361483975
 Root     16 not converged, maximum delta is    0.006620138330833
 Root     17 not converged, maximum delta is    0.037738484548457
 Root     18 not converged, maximum delta is    0.036369429234213
 Root     19 not converged, maximum delta is    0.005341316428296
 Root     20 not converged, maximum delta is    0.006788855273540
 Root     21 not converged, maximum delta is    0.003852586124900
 Root     22 not converged, maximum delta is    0.010015634132745
 Root     23 not converged, maximum delta is    0.001686873879941
 Root     24 not converged, maximum delta is    0.004564449877312
 Root     25 not converged, maximum delta is    0.008861556679916
 Root     26 not converged, maximum delta is    0.007251484851148
 Root     27 not converged, maximum delta is    0.003042157400344
 Root     28 not converged, maximum delta is    0.004334718314374
 Root     29 not converged, maximum delta is    0.007508106183985
 Root     30 not converged, maximum delta is    0.010302937949830
 Excitation Energies [eV] at current iteration:
 Root      1 :     1.272481001201100   Change is   -0.007463840205321
 Root      2 :     3.348452245384962   Change is   -0.017882007606371
 Root      3 :     3.657915243242764   Change is   -0.024802037893596
 Root      4 :     3.808792328865886   Change is   -0.019392428845518
 Root      5 :     4.437724348106359   Change is   -0.018212091918158
 Root      6 :     6.875242923451753   Change is   -0.001950109247444
 Root      7 :     6.888742880778474   Change is   -0.016175128276878
 Root      8 :     7.326865915469468   Change is   -0.001092684227378
 Root      9 :     7.999880937020748   Change is   -0.000899436145384
 Root     10 :     8.441028718246111   Change is   -0.000487657096332
 Root     11 :     8.486160416637434   Change is   -0.002330226339773
 Root     12 :     8.565705750903858   Change is   -0.000377888550003
 Root     13 :     8.974009666220150   Change is   -0.010399714271979
 Root     14 :     9.003845939186652   Change is   -0.001331572793063
 Root     15 :     9.167140343533635   Change is   -0.007961673405382
 Root     16 :     9.732094957015326   Change is   -0.008973268672159
 Root     17 :     9.883254575322981   Change is   -0.020967405490168
 Root     18 :    10.019517080615650   Change is   -0.003590395258178
 Root     19 :    10.416523674730140   Change is   -0.002841933879923
 Root     20 :    10.661034718666420   Change is   -0.003548638818286
 Root     21 :    10.664723174997570   Change is   -0.002242318135642
 Root     22 :    10.819471637821320   Change is   -0.013976913994857
 Root     23 :    11.211109765168360   Change is   -0.000773034208118
 Root     24 :    11.470247515717460   Change is   -0.007326486846368
 Root     25 :    11.916727280451280   Change is   -0.022564921675014
 Root     26 :    12.009127005844380   Change is   -0.004259705193559
 Root     27 :    12.121467638727270   Change is   -0.003259030678219
 Root     28 :    12.202535707490590   Change is   -0.004870987144343
 Root     29 :    12.646535093360310   Change is   -0.007457689601891
 Root     30 :    12.861715381967270   Change is   -0.006239282370735
 Iteration     3 Dimension   240 NMult   180 NNew     60
 CISAX will form    60 AO SS matrices at one time.
 NMat=    60 NSing=    60 JSym2X=-1.
 Root      1 has converged.
 Root      2 has converged.
 Root      3 has converged.
 Root      4 has converged.
 Root      5 has converged.
 Root      6 has converged.
 Root      7 has converged.
 Root      8 has converged.
 Root      9 has converged.
 Root     10 has converged.
 Root     11 has converged.
 Root     12 has converged.
 Root     13 has converged.
 Root     14 has converged.
 Root     15 has converged.
 Root     16 has converged.
 Root     17 has converged.
 Root     18 has converged.
 Root     19 has converged.
 Root     20 has converged.
 Root     21 has converged.
 Root     22 has converged.
 Root     23 has converged.
 Root     24 has converged.
 Root     25 has converged.
 Root     26 has converged.
 Root     27 has converged.
 Root     28 has converged.
 Root     29 has converged.
 Root     30 has converged.
 Excitation Energies [eV] at current iteration:
 Root      1 :     1.272479981042646   Change is   -0.000001020158454
 Root      2 :     3.348436969307334   Change is   -0.000015276077627
 Root      3 :     3.657907875602075   Change is   -0.000007367640689
 Root      4 :     3.808786167954434   Change is   -0.000006160911451
 Root      5 :     4.437719076713717   Change is   -0.000005271392642
 Root      6 :     6.875242116195991   Change is   -0.000000807255762
 Root      7 :     6.888738244863168   Change is   -0.000004635915306
 Root      8 :     7.326865542884131   Change is   -0.000000372585337
 Root      9 :     7.999879579954680   Change is   -0.000001357066069
 Root     10 :     8.441028498242892   Change is   -0.000000220003220
 Root     11 :     8.486159321456602   Change is   -0.000001095180831
 Root     12 :     8.565705674212703   Change is   -0.000000076691154
 Root     13 :     8.973994627394454   Change is   -0.000015038825695
 Root     14 :     9.003845372353968   Change is   -0.000000566832685
 Root     15 :     9.167124705212697   Change is   -0.000015638320940
 Root     16 :     9.732080436755265   Change is   -0.000014520260062
 Root     17 :     9.883231266929100   Change is   -0.000023308393882
 Root     18 :    10.019513480940780   Change is   -0.000003599674871
 Root     19 :    10.416520621016690   Change is   -0.000003053713445
 Root     20 :    10.661030724416510   Change is   -0.000003994249908
 Root     21 :    10.664720331189360   Change is   -0.000002843808213
 Root     22 :    10.819439638483220   Change is   -0.000031999338094
 Root     23 :    11.211109439532100   Change is   -0.000000325636258
 Root     24 :    11.470241809269880   Change is   -0.000005706447582
 Root     25 :    11.916675706025420   Change is   -0.000051574425859
 Root     26 :    12.009125224747220   Change is   -0.000001781097151
 Root     27 :    12.121463265393690   Change is   -0.000004373333582
 Root     28 :    12.202528684031320   Change is   -0.000007023459263
 Root     29 :    12.646514928394690   Change is   -0.000020164965622
 Root     30 :    12.861700116166940   Change is   -0.000015265800327
 Convergence achieved on expansion vectors.
 ***********************************************************************
 Excited states from <AA,BB:AA,BB> singles matrix:
 ***********************************************************************
 
 1PDM for each excited state written to RWF  633
 Ground to excited state transition densities written to RWF  633
 Ground to excited state transition electric dipole moments (Au):
       state          X           Y           Z        Dip. S.      Osc.
         1        -0.0000     -0.0000      0.0000      0.0000      0.0000
         2        -0.0000     -0.0000      0.6091      0.3710      0.0304
         3        -0.0000     -0.1661     -0.0000      0.0276      0.0025
         4         0.0477     -0.0000     -0.0000      0.0023      0.0002
         5        -0.2489      0.0000      0.0000      0.0620      0.0067
         6         0.0000     -0.1110      0.0000      0.0123      0.0021
         7        -0.0000      0.0000     -0.0000      0.0000      0.0000
         8        -0.6108      0.0000     -0.0000      0.3730      0.0670
         9         0.0000      0.0000     -0.3151      0.0993      0.0195
        10         0.0000     -0.0000     -0.0000      0.0000      0.0000
        11        -0.0000     -0.4230     -0.0000      0.1790      0.0372
        12         0.0000      0.0000      0.0000      0.0000      0.0000
        13         0.0000     -0.0000      1.0548      1.1126      0.2446
        14        -0.4288      0.0000      0.0000      0.1839      0.0406
        15        -0.0000     -0.0000     -0.9536      0.9093      0.2042
        16         0.0000     -0.0000     -0.5453      0.2974      0.0709
        17        -0.0000      0.0299     -0.0000      0.0009      0.0002
        18        -0.0000     -0.2693      0.0000      0.0725      0.0178
        19        -0.4442      0.0000      0.0000      0.1973      0.0504
        20        -0.0000     -0.2318      0.0000      0.0537      0.0140
        21         0.0000      0.0000     -0.0000      0.0000      0.0000
        22         0.0000     -0.0000     -0.8801      0.7746      0.2053
        23        -0.0719     -0.0000      0.0000      0.0052      0.0014
        24        -0.0000     -0.1114      0.0000      0.0124      0.0035
        25         0.0000      0.0000      1.1216      1.2580      0.3673
        26         0.0000      0.0000      0.0000      0.0000      0.0000
        27         0.0750      0.0000      0.0000      0.0056      0.0017
        28         0.0000     -0.6741      0.0000      0.4544      0.1359
        29         0.0000      0.0000      0.3833      0.1469      0.0455
        30         0.0000     -0.0000     -0.5253      0.2759      0.0869
 Ground to excited state transition velocity dipole moments (Au):
       state          X           Y           Z        Dip. S.      Osc.
         1         0.0000      0.0000     -0.0000      0.0000      0.0000
         2         0.0000     -0.0000     -0.0646      0.0042      0.0226
         3        -0.0000      0.0195      0.0000      0.0004      0.0019
         4        -0.0286      0.0000      0.0000      0.0008      0.0039
         5         0.0381     -0.0000     -0.0000      0.0014      0.0059
         6        -0.0000      0.0233     -0.0000      0.0005      0.0014
         7        -0.0000     -0.0000      0.0000      0.0000      0.0000
         8         0.1674     -0.0000     -0.0000      0.0280      0.0694
         9        -0.0000     -0.0000      0.0900      0.0081      0.0184
        10        -0.0000      0.0000      0.0000      0.0000      0.0000
        11         0.0000      0.1342      0.0000      0.0180      0.0385
        12        -0.0000      0.0000     -0.0000      0.0000      0.0000
        13        -0.0000      0.0000     -0.3469      0.1203      0.2433
        14         0.1505      0.0000     -0.0000      0.0227      0.0457
        15         0.0000      0.0000      0.3241      0.1051      0.2079
        16        -0.0000      0.0000      0.2027      0.0411      0.0766
        17         0.0000     -0.0152      0.0000      0.0002      0.0004
        18         0.0000      0.1050     -0.0000      0.0110      0.0200
        19         0.1527     -0.0000     -0.0000      0.0233      0.0406
        20         0.0000      0.0901     -0.0000      0.0081      0.0138
        21        -0.0000     -0.0000      0.0000      0.0000      0.0000
        22        -0.0000      0.0000      0.3509      0.1232      0.2065
        23         0.0238      0.0000      0.0000      0.0006      0.0009
        24         0.0000      0.0415     -0.0000      0.0017      0.0027
        25        -0.0000     -0.0000     -0.4713      0.2222      0.3382
        26        -0.0000     -0.0000     -0.0000      0.0000      0.0000
        27        -0.0232     -0.0000     -0.0000      0.0005      0.0008
        28        -0.0000      0.2990     -0.0000      0.0894      0.1329
        29         0.0000      0.0000     -0.1699      0.0289      0.0414
        30         0.0000      0.0000      0.2346      0.0550      0.0776
 Ground to excited state transition magnetic dipole moments (Au):
       state          X           Y           Z
         1         0.0000     -0.0000      0.9535
         2         0.0000      0.0000     -0.0000
         3         0.5607      0.0000     -0.0000
         4         0.0000     -1.9661     -0.0000
         5        -0.0000     -0.1985     -0.0000
         6        -0.3064      0.0000     -0.0000
         7         0.0000      0.0000     -1.0807
         8         0.0000     -0.1454      0.0000
         9         0.0000     -0.0000      0.0000
        10        -0.0000      0.0000      0.0241
        11        -0.5288     -0.0000      0.0000
        12         0.0000     -0.0000     -0.0017
        13         0.0000      0.0000     -0.0000
        14        -0.0000      0.2597     -0.0000
        15        -0.0000      0.0000     -0.0000
        16         0.0000     -0.0000     -0.0000
        17         0.8457     -0.0000     -0.0000
        18         0.0245      0.0000      0.0000
        19        -0.0000      0.1728      0.0000
        20         0.0770      0.0000     -0.0000
        21        -0.0000      0.0000     -0.0743
        22         0.0000     -0.0000      0.0000
        23         0.0000      0.0715     -0.0000
        24         0.0203     -0.0000     -0.0000
        25         0.0000      0.0000      0.0000
        26        -0.0000      0.0000     -0.0282
        27        -0.0000      0.0972      0.0000
        28         0.7711      0.0000     -0.0000
        29        -0.0000     -0.0000      0.0000
        30         0.0000     -0.0000      0.0000
 Ground to excited state transition velocity quadrupole moments (Au):
       state          XX          YY          ZZ          XY          XZ          YZ
         1        -0.0000     -0.0000      0.0000     -0.0251     -0.0000     -0.0000
         2         0.0462     -0.0071     -0.0273      0.0000      0.0000     -0.0000
         3         0.0000      0.0000     -0.0000      0.0000      0.0000      0.0236
         4         0.0000      0.0000     -0.0000      0.0000     -0.0405     -0.0000
         5        -0.0000      0.0000      0.0000      0.0000      0.1355      0.0000
         6         0.0000     -0.0000      0.0000      0.0000      0.0000      0.2319
         7        -0.0000      0.0000     -0.0000      0.1726     -0.0000     -0.0000
         8        -0.0000      0.0000      0.0000     -0.0000     -0.1789     -0.0000
         9         0.0354      0.1118     -0.2004     -0.0000     -0.0000     -0.0000
        10        -0.0000      0.0000     -0.0000      0.2862      0.0000      0.0000
        11        -0.0000      0.0000      0.0000     -0.0000     -0.0000      0.2427
        12         0.0000     -0.0000      0.0000      0.0576     -0.0000      0.0000
        13         0.6141      0.0561      0.0074     -0.0000     -0.0000     -0.0000
        14        -0.0000     -0.0000      0.0000      0.0000      0.3354      0.0000
        15         0.5079      0.0431     -0.3471     -0.0000      0.0000     -0.0000
        16         0.2900      0.2180      0.6319      0.0000      0.0000     -0.0000
        17         0.0000     -0.0000     -0.0000      0.0000     -0.0000      0.3925
        18        -0.0000     -0.0000     -0.0000     -0.0000      0.0000     -0.1356
        19        -0.0000     -0.0000      0.0000     -0.0000     -0.0658      0.0000
        20         0.0000      0.0000      0.0000     -0.0000     -0.0000     -0.3237
        21        -0.0000     -0.0000     -0.0000     -0.2775      0.0000      0.0000
        22        -0.0996     -0.4183     -0.0886      0.0000     -0.0000      0.0000
        23        -0.0000      0.0000     -0.0000      0.0000     -0.1624     -0.0000
        24         0.0000     -0.0000      0.0000      0.0000     -0.0000      0.4634
        25        -0.2848      0.4207     -0.2866     -0.0000     -0.0000      0.0000
        26        -0.0000      0.0000      0.0000      0.3729      0.0000      0.0000
        27        -0.0000      0.0000      0.0000     -0.0000      0.3875      0.0000
        28        -0.0000      0.0000      0.0000      0.0000      0.0000     -0.8307
        29        -0.2477      0.0844      0.1936     -0.0000     -0.0000      0.0000
        30        -0.3068      0.1824      0.1612     -0.0000     -0.0000      0.0000
 <0|del|b> * <b|rxdel|0> + <0|del|b> * <b|delr+rdel|0>
 Rotatory Strengths (R) in cgs (10**-40 erg-esu-cm/Gauss)
       state          XX          YY          ZZ    R(velocity)    E-M Angle
         1        -0.0000     -0.0000     -0.0000     -0.0000       90.00
         2        -0.0000      0.0000      0.0000      0.0000       90.00
         3         0.0000     -0.0000      0.0000      0.0000       90.00
         4        -0.0000     -0.0000     -0.0000     -0.0000       90.00
         5         0.0000     -0.0000     -0.0000     -0.0000       90.00
         6         0.0000      0.0000      0.0000      0.0000       90.00
         7        -0.0000     -0.0000     -0.0000     -0.0000       90.00
         8        -0.0000      0.0000      0.0000      0.0000       90.00
         9        -0.0000      0.0000     -0.0000      0.0000       90.00
        10         0.0000     -0.0000      0.0000      0.0000       90.00
        11        -0.0000     -0.0000     -0.0000     -0.0000       90.00
        12        -0.0000      0.0000     -0.0000      0.0000       90.00
        13         0.0000      0.0000     -0.0000      0.0000       90.00
        14        -0.0000      0.0000     -0.0000     -0.0000       90.00
        15        -0.0000     -0.0000      0.0000     -0.0000       90.00
        16        -0.0000     -0.0000     -0.0000     -0.0000       90.00
        17         0.0000      0.0000      0.0000      0.0000       90.00
        18         0.0000     -0.0000      0.0000      0.0000       90.00
        19        -0.0000      0.0000     -0.0000     -0.0000       90.00
        20         0.0000     -0.0000      0.0000      0.0000       90.00
        21        -0.0000      0.0000      0.0000     -0.0000       90.00
        22         0.0000     -0.0000     -0.0000      0.0000       90.00
        23         0.0000      0.0000     -0.0000      0.0000       90.00
        24        -0.0000      0.0000     -0.0000     -0.0000       90.00
        25        -0.0000     -0.0000      0.0000     -0.0000       90.00
        26        -0.0000      0.0000     -0.0000      0.0000       90.00
        27         0.0000     -0.0000     -0.0000     -0.0000       90.00
        28        -0.0000      0.0000      0.0000      0.0000       90.00
        29        -0.0000     -0.0000     -0.0000     -0.0000       90.00
        30         0.0000      0.0000     -0.0000      0.0000       90.00
 1/2[<0|r|b>*<b|rxdel|0> + (<0|rxdel|b>*<b|r|0>)*]
 Rotatory Strengths (R) in cgs (10**-40 erg-esu-cm/Gauss)
       state          XX          YY          ZZ     R(length)
         1         0.0000     -0.0000     -0.0000     -0.0000
         2         0.0000      0.0000      0.0000      0.0000
         3         0.0000      0.0000     -0.0000      0.0000
         4        -0.0000     -0.0000     -0.0000     -0.0000
         5        -0.0000      0.0000      0.0000     -0.0000
         6         0.0000      0.0000      0.0000      0.0000
         7         0.0000     -0.0000     -0.0000     -0.0000
         8         0.0000      0.0000      0.0000      0.0000
         9        -0.0000      0.0000      0.0000      0.0000
        10         0.0000      0.0000      0.0000      0.0000
        11        -0.0000     -0.0000      0.0000     -0.0000
        12        -0.0000      0.0000      0.0000      0.0000
        13        -0.0000      0.0000      0.0000      0.0000
        14        -0.0000     -0.0000      0.0000     -0.0000
        15        -0.0000      0.0000     -0.0000     -0.0000
        16        -0.0000     -0.0000     -0.0000     -0.0000
        17         0.0000      0.0000     -0.0000      0.0000
        18         0.0000      0.0000     -0.0000      0.0000
        19        -0.0000     -0.0000     -0.0000     -0.0000
        20         0.0000      0.0000      0.0000      0.0000
        21         0.0000     -0.0000     -0.0000     -0.0000
        22        -0.0000     -0.0000      0.0000      0.0000
        23         0.0000      0.0000      0.0000      0.0000
        24         0.0000     -0.0000      0.0000     -0.0000
        25        -0.0000     -0.0000     -0.0000     -0.0000
        26         0.0000     -0.0000      0.0000      0.0000
        27         0.0000     -0.0000     -0.0000      0.0000
        28        -0.0000      0.0000      0.0000     -0.0000
        29         0.0000      0.0000     -0.0000     -0.0000
        30        -0.0000     -0.0000      0.0000      0.0000
  1/2[<0|del|b>*<b|r|0> + (<0|r|b>*<b|del|0>)*] (Au)
       state          X           Y           Z        Dip. S.   Osc.(frdel)
         1        -0.0000     -0.0000     -0.0000      0.0000      0.0000
         2        -0.0000      0.0000     -0.0394      0.0394      0.0262
         3         0.0000     -0.0032     -0.0000      0.0032      0.0022
         4        -0.0014     -0.0000     -0.0000      0.0014      0.0009
         5        -0.0095     -0.0000     -0.0000      0.0095      0.0063
         6        -0.0000     -0.0026     -0.0000      0.0026      0.0017
         7         0.0000     -0.0000     -0.0000      0.0000      0.0000
         8        -0.1022     -0.0000      0.0000      0.1022      0.0682
         9        -0.0000     -0.0000     -0.0284      0.0284      0.0189
        10        -0.0000     -0.0000     -0.0000      0.0000      0.0000
        11        -0.0000     -0.0568     -0.0000      0.0568      0.0379
        12        -0.0000      0.0000     -0.0000      0.0000      0.0000
        13        -0.0000     -0.0000     -0.3659      0.3659      0.2439
        14        -0.0646      0.0000     -0.0000      0.0646      0.0430
        15        -0.0000     -0.0000     -0.3091      0.3091      0.2061
        16        -0.0000     -0.0000     -0.1105      0.1105      0.0737
        17        -0.0000     -0.0005     -0.0000      0.0005      0.0003
        18        -0.0000     -0.0283     -0.0000      0.0283      0.0189
        19        -0.0678     -0.0000     -0.0000      0.0678      0.0452
        20        -0.0000     -0.0209     -0.0000      0.0209      0.0139
        21        -0.0000     -0.0000     -0.0000      0.0000      0.0000
        22        -0.0000     -0.0000     -0.3089      0.3089      0.2059
        23        -0.0017     -0.0000      0.0000      0.0017      0.0011
        24        -0.0000     -0.0046     -0.0000      0.0046      0.0031
        25        -0.0000     -0.0000     -0.5287      0.5287      0.3524
        26        -0.0000     -0.0000     -0.0000      0.0000      0.0000
        27        -0.0017     -0.0000     -0.0000      0.0017      0.0012
        28        -0.0000     -0.2015     -0.0000      0.2015      0.1344
        29         0.0000      0.0000     -0.0651      0.0651      0.0434
        30         0.0000     -0.0000     -0.1232      0.1232      0.0821

 Excitation energies and oscillator strengths:
 
 Excited State   1:      Singlet-A2     1.2725 eV  974.35 nm  f=0.0000  <S**2>=0.000
       3 -> 27         0.00071
       3 -> 38         0.00044
       3 -> 46         0.00334
       4 -> 27         0.00038
       4 -> 46        -0.00095
       5 ->  9         0.00160
       5 -> 13         0.00110
       5 -> 18         0.00168
       5 -> 23         0.00136
       5 -> 28         0.00129
       5 -> 37         0.00073
       5 -> 44         0.00020
       5 -> 52         0.00017
       6 -> 27        -0.00057
       6 -> 38        -0.00056
       6 -> 46         0.00093
       7 -> 12        -0.00129
       7 -> 16         0.00531
       7 -> 19        -0.00470
       7 -> 22        -0.00112
       7 -> 25        -0.00056
       7 -> 29        -0.00192
       7 -> 33         0.00027
       7 -> 49         0.00013
       7 -> 53         0.00038
       8 ->  9         0.71091
       8 -> 13        -0.00671
       8 -> 18         0.02078
       8 -> 23        -0.00093
       8 -> 28         0.01026
       8 -> 31         0.00161
       8 -> 37         0.00049
       8 -> 48        -0.00029
       8 -> 52         0.00185
       3 <- 27         0.00019
       3 <- 38         0.00022
       3 <- 46         0.00336
       4 <- 27         0.00071
       4 <- 38         0.00019
       4 <- 46        -0.00074
       5 <-  9         0.00037
       5 <- 13        -0.00033
       5 <- 18        -0.00038
       5 <- 23         0.00016
       5 <- 28        -0.00028
       5 <- 31         0.00022
       5 <- 37         0.00042
       6 <- 38        -0.00042
       6 <- 46         0.00068
       7 <- 12         0.00183
       7 <- 16        -0.01054
       7 <- 19         0.00562
       7 <- 22         0.00569
       7 <- 25        -0.00063
       7 <- 29         0.00562
       7 <- 33        -0.00035
       7 <- 35         0.00015
       7 <- 40        -0.00011
       7 <- 42        -0.00010
       7 <- 49        -0.00048
       7 <- 53         0.00145
       8 <-  9        -0.07591
       8 <- 13        -0.00045
       8 <- 18        -0.00775
       8 <- 23        -0.00034
       8 <- 28        -0.00276
       8 <- 31        -0.00082
       8 <- 37        -0.00020
       8 <- 48         0.00013
       8 <- 52         0.00044
 This state for optimization and/or second-order correction.
 Total Energy, E(TD-HF/TD-DFT) =  -114.296793650    
 Copying the excited state density for this state as the 1-particle RhoCI density.
 
 Excited State   2:      Singlet-A1     3.3484 eV  370.27 nm  f=0.0304  <S**2>=0.000
       3 -> 10        -0.01448
       3 -> 11        -0.00306
       3 -> 14         0.00135
       3 -> 15         0.00043
       3 -> 17        -0.00306
       3 -> 20        -0.00352
       3 -> 21         0.00046
       3 -> 24         0.00051
       3 -> 26         0.00131
       3 -> 30        -0.00054
       3 -> 32         0.00276
       3 -> 34        -0.00107
       3 -> 36        -0.00098
       3 -> 39        -0.00041
       3 -> 43         0.00052
       3 -> 45        -0.00100
       3 -> 47         0.00231
       3 -> 50         0.00156
       4 -> 10        -0.00155
       4 -> 11         0.01038
       4 -> 14         0.00186
       4 -> 15        -0.00772
       4 -> 17         0.00222
       4 -> 20         0.00211
       4 -> 21         0.00027
       4 -> 24        -0.00379
       4 -> 26         0.00328
       4 -> 30         0.00032
       4 -> 32        -0.00122
       4 -> 34         0.00078
       4 -> 36         0.00012
       4 -> 39        -0.00021
       4 -> 43        -0.00046
       4 -> 45         0.00077
       4 -> 47        -0.00077
       4 -> 50        -0.00027
       4 -> 54         0.00015
       5 -> 12         0.00960
       5 -> 16         0.00266
       5 -> 19         0.00115
       5 -> 22         0.00679
       5 -> 25        -0.00458
       5 -> 29         0.00034
       5 -> 33        -0.00241
       5 -> 35         0.00273
       5 -> 40        -0.00099
       5 -> 42        -0.00098
       5 -> 49         0.00014
       5 -> 51        -0.00086
       6 -> 10         0.25098
       6 -> 11         0.03725
       6 -> 14        -0.04195
       6 -> 15        -0.02304
       6 -> 17        -0.01571
       6 -> 20        -0.00155
       6 -> 21         0.00544
       6 -> 24        -0.00790
       6 -> 26        -0.00317
       6 -> 30        -0.00403
       6 -> 32         0.00407
       6 -> 34        -0.00138
       6 -> 36         0.00050
       6 -> 39        -0.00136
       6 -> 41        -0.00011
       6 -> 43         0.00082
       6 -> 45        -0.00088
       6 -> 47         0.00079
       6 -> 50         0.00055
       6 -> 54        -0.00096
       7 ->  9         0.67585
       7 -> 13        -0.00693
       7 -> 18        -0.01033
       7 -> 23        -0.00263
       7 -> 28         0.00125
       7 -> 31        -0.00328
       7 -> 37         0.00132
       7 -> 44        -0.00096
       7 -> 52         0.00105
       8 -> 12        -0.00749
       8 -> 16         0.03642
       8 -> 19        -0.01843
       8 -> 22        -0.01253
       8 -> 29        -0.00796
       8 -> 33         0.00096
       8 -> 35        -0.00071
       8 -> 40         0.00027
       8 -> 42         0.00025
       8 -> 49         0.00010
       8 -> 51         0.00014
       8 -> 53        -0.00051
       3 <- 10        -0.01143
       3 <- 11        -0.00277
       3 <- 14         0.00114
       3 <- 17        -0.00176
       3 <- 20        -0.00304
       3 <- 26         0.00039
       3 <- 30        -0.00012
       3 <- 32         0.00240
       3 <- 34        -0.00056
       3 <- 36        -0.00099
       3 <- 39        -0.00037
       3 <- 43         0.00057
       3 <- 45        -0.00113
       3 <- 47         0.00232
       3 <- 50         0.00156
       4 <- 10         0.00012
       4 <- 11         0.00763
       4 <- 14         0.00145
       4 <- 15        -0.00532
       4 <- 17         0.00134
       4 <- 20         0.00258
       4 <- 24        -0.00290
       4 <- 26         0.00291
       4 <- 30        -0.00026
       4 <- 32        -0.00128
       4 <- 34         0.00066
       4 <- 36         0.00040
       4 <- 39        -0.00023
       4 <- 43        -0.00042
       4 <- 45         0.00071
       4 <- 47        -0.00047
       4 <- 50        -0.00014
       4 <- 54         0.00012
       5 <- 12         0.00580
       5 <- 16         0.00178
       5 <- 19         0.00093
       5 <- 22         0.00491
       5 <- 25        -0.00358
       5 <- 29         0.00035
       5 <- 33        -0.00202
       5 <- 35         0.00237
       5 <- 40        -0.00090
       5 <- 42        -0.00087
       5 <- 49         0.00014
       5 <- 51        -0.00081
       6 <- 10         0.08602
       6 <- 11         0.01561
       6 <- 14        -0.02048
       6 <- 15        -0.01238
       6 <- 17        -0.00953
       6 <- 20        -0.00227
       6 <- 21         0.00382
       6 <- 24        -0.00525
       6 <- 26        -0.00161
       6 <- 30        -0.00262
       6 <- 32         0.00395
       6 <- 34        -0.00155
       6 <- 39        -0.00123
       6 <- 41        -0.00011
       6 <- 43         0.00068
       6 <- 45        -0.00065
       6 <- 47         0.00045
       6 <- 50         0.00041
       6 <- 54        -0.00088
       7 <-  9        -0.13090
       7 <- 13         0.00333
       7 <- 18        -0.01129
       7 <- 23         0.00076
       7 <- 28        -0.00168
       7 <- 31        -0.00159
       7 <- 37         0.00063
       7 <- 44        -0.00079
       7 <- 48        -0.00042
       7 <- 52         0.00097
       8 <- 12        -0.00311
       8 <- 16         0.01840
       8 <- 19        -0.01072
       8 <- 22        -0.00833
       8 <- 25         0.00013
       8 <- 29        -0.00640
       8 <- 33         0.00077
       8 <- 35        -0.00056
       8 <- 40         0.00021
       8 <- 42         0.00020
       8 <- 51         0.00012
       8 <- 53        -0.00047
 
 Excited State   3:      Singlet-B2     3.6579 eV  338.95 nm  f=0.0025  <S**2>=0.000
       3 -> 12        -0.00122
       3 -> 16         0.00129
       3 -> 19        -0.00393
       3 -> 22         0.00106
       3 -> 25        -0.00087
       3 -> 29        -0.00260
       3 -> 33         0.00023
       3 -> 35         0.00142
       3 -> 40        -0.00130
       3 -> 42        -0.00050
       3 -> 49        -0.00385
       3 -> 51         0.00017
       3 -> 53         0.00027
       4 -> 12         0.00039
       4 -> 16        -0.00150
       4 -> 19         0.00037
       4 -> 22         0.00179
       4 -> 25         0.00065
       4 -> 29         0.00091
       4 -> 33        -0.00034
       4 -> 35         0.00043
       4 -> 40         0.00029
       4 -> 42         0.00012
       4 -> 49         0.00073
       4 -> 51        -0.00010
       5 -> 10         0.01014
       5 -> 11         0.00134
       5 -> 14        -0.00352
       5 -> 15         0.00322
       5 -> 17        -0.00050
       5 -> 20         0.00198
       5 -> 21         0.00314
       5 -> 24         0.00144
       5 -> 26        -0.00055
       5 -> 30        -0.00210
       5 -> 32        -0.00131
       5 -> 34         0.00028
       5 -> 39         0.00067
       5 -> 41         0.00042
       5 -> 47        -0.00041
       5 -> 50         0.00026
       5 -> 54        -0.00019
       6 -> 12         0.00248
       6 -> 16        -0.00274
       6 -> 19         0.00413
       6 -> 22        -0.00062
       6 -> 25         0.00113
       6 -> 29         0.00013
       6 -> 33        -0.00012
       6 -> 35        -0.00127
       6 -> 40         0.00085
       6 -> 42         0.00065
       6 -> 49         0.00124
       6 -> 53        -0.00045
       7 -> 27        -0.00054
       7 -> 38         0.00035
       7 -> 46         0.00308
       8 -> 10         0.70281
       8 -> 11         0.06092
       8 -> 14        -0.05658
       8 -> 15        -0.02283
       8 -> 17        -0.01648
       8 -> 20         0.00478
       8 -> 21         0.00607
       8 -> 24        -0.00586
       8 -> 26        -0.00449
       8 -> 30        -0.01302
       8 -> 32        -0.00145
       8 -> 34         0.00121
       8 -> 36         0.00140
       8 -> 39         0.00053
       8 -> 41        -0.00016
       8 -> 45        -0.00083
       8 -> 47        -0.00380
       8 -> 50         0.00147
       8 -> 54        -0.00243
       3 <- 12        -0.00043
       3 <- 16         0.00045
       3 <- 19        -0.00194
       3 <- 22         0.00093
       3 <- 25        -0.00078
       3 <- 29        -0.00106
       3 <- 33         0.00022
       3 <- 35         0.00095
       3 <- 40        -0.00113
       3 <- 42        -0.00035
       3 <- 49        -0.00391
       3 <- 51         0.00016
       3 <- 53         0.00074
       4 <- 12         0.00010
       4 <- 16        -0.00171
       4 <- 19         0.00018
       4 <- 22         0.00211
       4 <- 25         0.00037
       4 <- 29         0.00113
       4 <- 33        -0.00035
       4 <- 35         0.00063
       4 <- 40         0.00012
       4 <- 49         0.00051
       5 <- 10        -0.00092
       5 <- 11        -0.00067
       5 <- 14        -0.00048
       5 <- 15         0.00253
       5 <- 17         0.00020
       5 <- 20         0.00077
       5 <- 21         0.00166
       5 <- 24         0.00164
       5 <- 26        -0.00013
       5 <- 30        -0.00045
       5 <- 32        -0.00030
       5 <- 39         0.00030
       5 <- 41         0.00045
       5 <- 45        -0.00023
       5 <- 47        -0.00041
       5 <- 50         0.00014
       6 <- 12        -0.00075
       6 <- 16         0.00771
       6 <- 19        -0.00412
       6 <- 22        -0.00516
       6 <- 25         0.00121
       6 <- 29        -0.00606
       6 <- 33         0.00022
       6 <- 35        -0.00110
       6 <- 40         0.00085
       6 <- 42         0.00068
       6 <- 49         0.00172
       6 <- 53        -0.00141
       7 <- 27        -0.00054
       7 <- 38         0.00028
       7 <- 46         0.00266
       8 <- 10        -0.04282
       8 <- 11        -0.00748
       8 <- 14         0.00776
       8 <- 15         0.00225
       8 <- 17         0.00193
       8 <- 20        -0.00323
       8 <- 21        -0.00136
       8 <- 24         0.00154
       8 <- 26         0.00123
       8 <- 30         0.00159
       8 <- 32         0.00286
       8 <- 34        -0.00085
       8 <- 36        -0.00078
       8 <- 39        -0.00110
       8 <- 41         0.00022
       8 <- 43         0.00042
       8 <- 45        -0.00158
       8 <- 47        -0.00314
       8 <- 50         0.00119
       8 <- 54        -0.00065
 
 Excited State   4:      Singlet-B1     3.8088 eV  325.52 nm  f=0.0002  <S**2>=0.000
       3 ->  9        -0.02286
       3 -> 13         0.00084
       3 -> 18        -0.00374
       3 -> 23         0.00123
       3 -> 28        -0.00102
       3 -> 31        -0.00081
       3 -> 37         0.00016
       3 -> 44         0.00034
       3 -> 48         0.00016
       3 -> 52         0.00070
       4 ->  9         0.00543
       4 -> 13        -0.00134
       4 -> 18         0.00017
       4 -> 23        -0.00123
       4 -> 28         0.00057
       4 -> 31        -0.00115
       4 -> 37        -0.00023
       4 -> 48        -0.00042
       4 -> 52        -0.00028
       5 -> 27        -0.00051
       5 -> 38         0.00131
       5 -> 46         0.00044
       6 ->  9         0.64309
       6 -> 13        -0.01627
       6 -> 18         0.01378
       6 -> 23        -0.00980
       6 -> 28         0.00365
       6 -> 31         0.00187
       6 -> 37        -0.00127
       6 -> 44        -0.00165
       6 -> 48         0.00322
       6 -> 52         0.00087
       7 -> 10         0.29757
       7 -> 11         0.02886
       7 -> 14        -0.02796
       7 -> 15        -0.01031
       7 -> 17        -0.01060
       7 -> 20         0.00389
       7 -> 21         0.00198
       7 -> 24        -0.00357
       7 -> 26        -0.00335
       7 -> 30        -0.00551
       7 -> 32         0.00038
       7 -> 34        -0.00029
       7 -> 36         0.00133
       7 -> 39        -0.00015
       7 -> 41        -0.00017
       7 -> 43         0.00048
       7 -> 45        -0.00071
       7 -> 47         0.00352
       7 -> 50         0.00120
       7 -> 54        -0.00036
       8 -> 27         0.00012
       8 -> 46         0.00430
       3 <-  9        -0.00764
       3 <- 13        -0.00078
       3 <- 18        -0.00249
       3 <- 23        -0.00046
       3 <- 28        -0.00058
       3 <- 31        -0.00077
       3 <- 37         0.00015
       3 <- 48         0.00024
       3 <- 52         0.00069
       4 <-  9         0.00388
       4 <- 13        -0.00015
       4 <- 18         0.00138
       4 <- 23        -0.00044
       4 <- 28         0.00144
       4 <- 31        -0.00083
       4 <- 37        -0.00013
       4 <- 44        -0.00019
       4 <- 48        -0.00040
       4 <- 52        -0.00014
       5 <- 27        -0.00084
       5 <- 38         0.00116
       5 <- 46         0.00039
       6 <-  9        -0.04457
       6 <- 13         0.00221
       6 <- 18        -0.00526
       6 <- 23         0.00030
       6 <- 28        -0.00410
       6 <- 31        -0.00039
       6 <- 37        -0.00097
       6 <- 44        -0.00033
       6 <- 48         0.00294
       6 <- 52        -0.00013
       7 <- 10        -0.05178
       7 <- 11        -0.00915
       7 <- 14         0.01301
       7 <- 15         0.00792
       7 <- 17         0.00322
       7 <- 20         0.00225
       7 <- 21        -0.00329
       7 <- 24         0.00389
       7 <- 26         0.00179
       7 <- 30         0.00217
       7 <- 32         0.00026
       7 <- 34        -0.00078
       7 <- 36         0.00105
       7 <- 39        -0.00058
       7 <- 41         0.00020
       7 <- 43         0.00027
       7 <- 45        -0.00044
       7 <- 47         0.00326
       7 <- 50         0.00134
       7 <- 54         0.00072
       8 <- 27         0.00054
       8 <- 38         0.00010
       8 <- 46         0.00401
 
 Excited State   5:      Singlet-B1     4.4377 eV  279.39 nm  f=0.0067  <S**2>=0.000
       3 ->  9        -0.00280
       3 -> 18        -0.00170
       3 -> 23         0.00031
       3 -> 28        -0.00241
       3 -> 31        -0.00134
       3 -> 48        -0.00318
       3 -> 52        -0.00024
       4 ->  9        -0.03023
       4 -> 13         0.00599
       4 -> 18         0.00084
       4 -> 23         0.00468
       4 -> 28         0.00096
       4 -> 31         0.00042
       4 -> 37         0.00034
       4 -> 44        -0.00042
       4 -> 48         0.00089
       4 -> 52         0.00018
       5 -> 27        -0.00627
       5 -> 38        -0.00353
       5 -> 46         0.00015
       6 ->  9        -0.29673
       6 -> 13         0.00360
       6 -> 18        -0.00073
       6 -> 23         0.00266
       6 -> 28         0.00255
       6 -> 31        -0.00402
       6 -> 37         0.00249
       6 -> 44         0.00092
       6 -> 48        -0.00063
       6 -> 52        -0.00088
       7 -> 10         0.63769
       7 -> 11         0.04738
       7 -> 14        -0.04674
       7 -> 15        -0.02780
       7 -> 17        -0.00819
       7 -> 20        -0.00227
       7 -> 21         0.00294
       7 -> 24        -0.00877
       7 -> 26        -0.00530
       7 -> 30        -0.00716
       7 -> 32        -0.00114
       7 -> 34         0.00360
       7 -> 36        -0.00138
       7 -> 39         0.00062
       7 -> 43         0.00047
       7 -> 45        -0.00088
       7 -> 47         0.00051
       7 -> 50         0.00021
       7 -> 54        -0.00168
       8 -> 27         0.00058
       8 -> 38         0.00019
       8 -> 46         0.00063
       3 <-  9        -0.00035
       3 <- 13         0.00076
       3 <- 18        -0.00053
       3 <- 23         0.00063
       3 <- 28        -0.00168
       3 <- 37        -0.00025
       3 <- 48        -0.00329
       3 <- 52         0.00019
       4 <-  9        -0.01402
       4 <- 13         0.00286
       4 <- 23         0.00284
       4 <- 28         0.00089
       4 <- 31         0.00024
       4 <- 37         0.00036
       4 <- 44        -0.00060
       4 <- 48         0.00049
       4 <- 52         0.00014
       5 <- 27        -0.00453
       5 <- 38        -0.00291
       5 <- 46         0.00017
       6 <-  9        -0.02586
       6 <- 13        -0.00038
       6 <- 18        -0.00311
       6 <- 23         0.00062
       6 <- 28         0.00011
       6 <- 31        -0.00474
       6 <- 37         0.00236
       6 <- 44         0.00088
       6 <- 52        -0.00129
       7 <- 10        -0.01488
       7 <- 11        -0.00216
       7 <- 14         0.00132
       7 <- 15        -0.00477
       7 <- 17         0.00055
       7 <- 20        -0.00471
       7 <- 21        -0.00093
       7 <- 24        -0.00247
       7 <- 26        -0.00014
       7 <- 30        -0.00020
       7 <- 32         0.00122
       7 <- 34         0.00206
       7 <- 36        -0.00235
       7 <- 41         0.00014
       7 <- 43         0.00050
       7 <- 45        -0.00086
       7 <- 47         0.00028
       7 <- 54        -0.00091
       8 <- 27         0.00026
       8 <- 46         0.00026
 
 Excited State   6:      Singlet-B2     6.8752 eV  180.33 nm  f=0.0021  <S**2>=0.000
       3 -> 12         0.00155
       3 -> 16         0.00078
       3 -> 19        -0.00032
       3 -> 22        -0.00019
       3 -> 25        -0.00058
       3 -> 29        -0.00156
       3 -> 33         0.00018
       3 -> 40        -0.00014
       3 -> 49        -0.00023
       4 -> 12        -0.00056
       4 -> 16         0.00091
       4 -> 19         0.00068
       4 -> 22        -0.00112
       4 -> 25        -0.00076
       4 -> 29         0.00058
       5 -> 10        -0.00227
       5 -> 11        -0.00703
       5 -> 14         0.00345
       5 -> 15         0.00299
       5 -> 17         0.00013
       5 -> 20         0.00048
       5 -> 21        -0.00046
       5 -> 24        -0.00039
       5 -> 26        -0.00015
       5 -> 30        -0.00042
       5 -> 32        -0.00080
       5 -> 34        -0.00063
       5 -> 39         0.00023
       5 -> 41        -0.00024
       5 -> 43        -0.00021
       5 -> 45        -0.00013
       6 -> 12        -0.00377
       6 -> 16        -0.00151
       6 -> 19        -0.00055
       6 -> 29        -0.00024
       6 -> 35         0.00047
       6 -> 49         0.00065
       7 -> 27        -0.00047
       7 -> 38        -0.00033
       7 -> 46         0.00081
       8 -> 10        -0.05730
       8 -> 11         0.70248
       8 -> 14         0.05118
       8 -> 15        -0.01950
       8 -> 17        -0.00254
       8 -> 20         0.01161
       8 -> 21         0.00236
       8 -> 24        -0.00212
       8 -> 26         0.00258
       8 -> 30        -0.00148
       8 -> 32        -0.00020
       8 -> 34         0.00027
       8 -> 36        -0.00041
       8 -> 41        -0.00023
       8 -> 43         0.00026
       8 -> 45        -0.00053
       8 -> 47        -0.00103
       8 -> 50         0.00042
       8 -> 54        -0.00020
       3 <- 16         0.00049
       3 <- 19        -0.00036
       3 <- 22        -0.00033
       3 <- 25        -0.00020
       3 <- 29        -0.00089
       3 <- 33         0.00010
       3 <- 49        -0.00023
       3 <- 53         0.00010
       4 <- 12         0.00042
       4 <- 16         0.00072
       4 <- 19         0.00067
       4 <- 22        -0.00070
       4 <- 25        -0.00050
       4 <- 29         0.00041
       4 <- 42         0.00012
       4 <- 51        -0.00011
       5 <- 10        -0.00151
       5 <- 14         0.00060
       5 <- 15        -0.00014
       5 <- 20         0.00016
       5 <- 21         0.00018
       5 <- 24        -0.00074
       5 <- 26         0.00025
       5 <- 30        -0.00016
       5 <- 32        -0.00029
       5 <- 34        -0.00057
       5 <- 39         0.00010
       5 <- 41        -0.00017
       5 <- 43        -0.00015
       5 <- 45        -0.00012
       5 <- 47        -0.00015
       6 <- 12        -0.00052
       6 <- 19        -0.00044
       6 <- 22        -0.00010
       6 <- 29        -0.00049
       6 <- 35         0.00033
       6 <- 49         0.00059
       7 <- 27        -0.00032
       7 <- 38        -0.00025
       7 <- 46         0.00071
       8 <- 10        -0.00342
       8 <- 11        -0.00103
       8 <- 15         0.00030
       8 <- 17        -0.00105
       8 <- 20        -0.00199
       8 <- 21         0.00030
       8 <- 24         0.00027
       8 <- 32         0.00129
       8 <- 34        -0.00037
       8 <- 36        -0.00097
       8 <- 39        -0.00013
       8 <- 43         0.00010
       8 <- 45        -0.00034
       8 <- 47        -0.00083
       8 <- 50         0.00043
 
 Excited State   7:      Singlet-A2     6.8887 eV  179.98 nm  f=0.0000  <S**2>=0.000
       3 -> 27        -0.00107
       3 -> 38        -0.00031
       3 -> 46         0.00015
       4 -> 27        -0.00599
       4 -> 38         0.00043
       4 -> 46        -0.00021
       5 ->  9         0.70632
       5 -> 13        -0.02551
       5 -> 18         0.00378
       5 -> 23        -0.01572
       5 -> 28         0.00129
       5 -> 31        -0.00214
       5 -> 37        -0.00567
       5 -> 44        -0.00215
       5 -> 48         0.00029
       6 -> 27        -0.00073
       6 -> 38         0.00240
       6 -> 46         0.00016
       7 -> 12         0.01353
       7 -> 16         0.01294
       7 -> 19         0.00104
       7 -> 22        -0.00423
       7 -> 25        -0.00024
       7 -> 29        -0.00048
       7 -> 33        -0.00050
       7 -> 35        -0.00015
       7 -> 40        -0.00013
       7 -> 42         0.00027
       7 -> 51        -0.00079
       8 ->  9        -0.00169
       8 -> 13         0.00748
       8 -> 18         0.00230
       8 -> 23         0.00157
       8 -> 28         0.00038
       8 -> 31         0.00067
       8 -> 37         0.00105
       8 -> 44         0.00016
       8 -> 52         0.00018
       3 <- 27        -0.00118
       3 <- 38        -0.00041
       3 <- 46         0.00019
       4 <- 27        -0.00554
       5 <-  9        -0.01452
       5 <- 13         0.00208
       5 <- 18         0.00023
       5 <- 23         0.00010
       5 <- 28         0.00213
       5 <- 31        -0.00324
       5 <- 37        -0.00352
       5 <- 44        -0.00049
       6 <- 27        -0.00136
       6 <- 38         0.00178
       7 <- 12        -0.00335
       7 <- 16        -0.00041
       7 <- 19        -0.00081
       7 <- 22        -0.00404
       7 <- 25         0.00341
       7 <- 33         0.00032
       7 <- 35        -0.00072
       7 <- 40         0.00013
       7 <- 42         0.00088
       7 <- 49        -0.00014
       7 <- 51        -0.00090
       7 <- 53         0.00010
       8 <-  9         0.00039
       8 <- 13        -0.00044
       8 <- 18        -0.00112
       8 <- 23        -0.00036
       8 <- 28        -0.00118
       8 <- 31         0.00072
       8 <- 37         0.00057
 
 Excited State   8:      Singlet-B1     7.3269 eV  169.22 nm  f=0.0670  <S**2>=0.000
       3 ->  9        -0.00086
       3 -> 13         0.00162
       3 -> 18        -0.00072
       3 -> 23        -0.00024
       3 -> 28        -0.00158
       3 -> 31        -0.00082
       3 -> 44        -0.00020
       3 -> 48        -0.00010
       3 -> 52        -0.00016
       4 ->  9         0.00098
       4 -> 13         0.00165
       4 -> 23        -0.00145
       4 -> 28         0.00017
       4 -> 31         0.00054
       4 -> 37        -0.00038
       4 -> 44        -0.00043
       5 -> 27        -0.00034
       5 -> 38         0.00035
       6 ->  9        -0.00569
       6 -> 13        -0.00193
       6 -> 18        -0.00017
       6 -> 23         0.00048
       6 -> 28         0.00036
       6 -> 31        -0.00036
       6 -> 44         0.00039
       6 -> 48         0.00015
       7 -> 10        -0.05463
       7 -> 11         0.70379
       7 -> 14         0.02126
       7 -> 15        -0.03412
       7 -> 17        -0.00350
       7 -> 20         0.00368
       7 -> 21         0.00385
       7 -> 24        -0.00621
       7 -> 26         0.00187
       7 -> 30        -0.00053
       7 -> 34         0.00032
       7 -> 36        -0.00079
       7 -> 41        -0.00030
       7 -> 43         0.00031
       7 -> 45        -0.00043
       7 -> 47         0.00024
       7 -> 54        -0.00020
       8 -> 38        -0.00019
       8 -> 46         0.00035
       3 <-  9         0.00038
       3 <- 18        -0.00049
       3 <- 23        -0.00043
       3 <- 28        -0.00104
       3 <- 31        -0.00038
       3 <- 48        -0.00012
       4 <-  9        -0.00368
       4 <- 13         0.00075
       4 <- 18         0.00011
       4 <- 23        -0.00046
       4 <- 31         0.00053
       4 <- 37        -0.00030
       5 <- 27        -0.00013
       5 <- 38         0.00030
       6 <-  9        -0.00393
       6 <- 13         0.00087
       6 <- 18        -0.00038
       6 <- 23         0.00134
       6 <- 31        -0.00044
       6 <- 44         0.00045
       6 <- 48         0.00021
       6 <- 52        -0.00013
       7 <- 10        -0.00259
       7 <- 11        -0.00162
       7 <- 14        -0.00116
       7 <- 15         0.00039
       7 <- 17        -0.00045
       7 <- 20        -0.00352
       7 <- 21        -0.00016
       7 <- 26        -0.00130
       7 <- 30         0.00038
       7 <- 32         0.00094
       7 <- 34        -0.00026
       7 <- 36        -0.00086
       7 <- 45        -0.00021
       7 <- 47         0.00021
       7 <- 50         0.00011
       8 <- 38        -0.00012
       8 <- 46         0.00025
 
 Excited State   9:      Singlet-A1     7.9999 eV  154.98 nm  f=0.0195  <S**2>=0.000
       3 -> 10        -0.00291
       3 -> 11         0.00119
       3 -> 14         0.00175
       3 -> 15        -0.00017
       3 -> 17        -0.00032
       3 -> 20        -0.00028
       3 -> 21         0.00025
       3 -> 26        -0.00044
       3 -> 30        -0.00021
       3 -> 32         0.00021
       3 -> 34        -0.00030
       3 -> 36        -0.00050
       3 -> 39         0.00014
       3 -> 41        -0.00017
       3 -> 47        -0.00021
       3 -> 54        -0.00015
       4 -> 10         0.00137
       4 -> 11        -0.00178
       4 -> 14        -0.00128
       4 -> 17         0.00070
       4 -> 21         0.00026
       4 -> 24        -0.00190
       4 -> 26         0.00025
       4 -> 30         0.00030
       4 -> 32        -0.00017
       4 -> 39        -0.00024
       4 -> 41        -0.00010
       5 -> 12        -0.00592
[...]
  49        5PX         0.00000  -0.00000   0.00000   0.00000   0.00000
  50        5PY         0.00000  -0.00000  -0.00686  -0.01429  -0.01549
  51        5PZ        -0.00004   0.00000   0.00164   0.00203  -0.00035
  52        6D 0        0.00018   0.00000  -0.00045  -0.00085  -0.00108
  53        6D+1        0.00000   0.00000   0.00000   0.00000  -0.00000
  54        6D-1       -0.00000  -0.00000  -0.00065  -0.00066   0.00058
  55        6D+2        0.00001   0.00000  -0.00001   0.00000   0.00000
  56        6D-2       -0.00000   0.00000  -0.00000  -0.00000   0.00000
                          26        27        28        29        30
  26        4PX         0.00027
  27        4PY        -0.00000   0.00106
  28        4PZ         0.00000  -0.00043   0.00064
  29 3   H  1S          0.00000  -0.00185  -0.00304   0.07711
  30        2S          0.00000  -0.00163  -0.00492   0.10883   0.15605
  31        3S         -0.00000   0.00096  -0.00267   0.03023   0.04843
  32        4PX         0.00027   0.00000   0.00000  -0.00000  -0.00000
  33        4PY         0.00000  -0.00061  -0.00010   0.00820   0.01105
  34        4PZ        -0.00000   0.00010   0.00001   0.00450   0.00627
  35 4   O  1S         -0.00000   0.00006  -0.00010   0.00075   0.00003
  36        2S         -0.00000   0.00015  -0.00012   0.00117  -0.00003
  37        2PX         0.00580   0.00000  -0.00000  -0.00000  -0.00000
  38        2PY         0.00000  -0.00045   0.00044   0.00936   0.02833
  39        2PZ         0.00000  -0.00214  -0.00442   0.01696   0.02583
  40        3S          0.00000  -0.00055  -0.00001  -0.00360   0.00029
  41        3PX         0.00835   0.00000  -0.00000  -0.00000  -0.00000
  42        3PY         0.00000  -0.00064   0.00064   0.01322   0.04016
  43        3PZ         0.00000  -0.00314  -0.00659   0.02497   0.03809
  44        4S          0.00000  -0.00077  -0.00051  -0.00044   0.00385
  45        4PX         0.00755   0.00000  -0.00000  -0.00000  -0.00000
  46        4PY         0.00000  -0.00050   0.00048   0.01316   0.03811
  47        4PZ         0.00000  -0.00252  -0.00514   0.01993   0.03027
  48        5S          0.00000  -0.00098  -0.00263   0.00861   0.01323
  49        5PX         0.00144   0.00000   0.00000  -0.00000  -0.00000
  50        5PY         0.00000   0.00017  -0.00022   0.00686   0.01429
  51        5PZ         0.00000  -0.00034   0.00027   0.00164   0.00203
  52        6D 0       -0.00000   0.00002   0.00033  -0.00045  -0.00085
  53        6D+1       -0.00021  -0.00000   0.00000  -0.00000  -0.00000
  54        6D-1       -0.00000   0.00007  -0.00008   0.00065   0.00066
  55        6D+2        0.00000  -0.00000   0.00000  -0.00001   0.00000
  56        6D-2        0.00000  -0.00000   0.00000  -0.00000  -0.00000
                          31        32        33        34        35
  31        3S          0.02701
  32        4PX        -0.00000   0.00027
  33        4PY         0.00211  -0.00000   0.00106
  34        4PZ         0.00102  -0.00000   0.00043   0.00064
  35 4   O  1S         -0.00032   0.00000  -0.00006  -0.00010   0.64194
  36        2S         -0.00059   0.00000  -0.00015  -0.00012   0.57275
  37        2PX        -0.00000   0.00580   0.00000   0.00000   0.00000
  38        2PY         0.04728   0.00000  -0.00045  -0.00044   0.00000
  39        2PZ         0.01700  -0.00000   0.00214  -0.00442  -0.00804
  40        3S          0.00267  -0.00000   0.00055  -0.00001  -0.14955
  41        3PX        -0.00000   0.00835   0.00000   0.00000   0.00000
  42        3PY         0.06722   0.00000  -0.00064  -0.00064   0.00000
  43        3PZ         0.02528  -0.00000   0.00314  -0.00659  -0.00970
  44        4S          0.00419  -0.00000   0.00077  -0.00051  -0.14002
  45        4PX        -0.00000   0.00755   0.00000   0.00000   0.00000
  46        4PY         0.06135   0.00000  -0.00050  -0.00048   0.00000
  47        4PZ         0.01980  -0.00000   0.00252  -0.00514  -0.00615
  48        5S          0.00964  -0.00000   0.00098  -0.00263   0.00918
  49        5PX        -0.00000   0.00144   0.00000  -0.00000   0.00000
  50        5PY         0.01549   0.00000   0.00017   0.00022   0.00000
  51        5PZ        -0.00035  -0.00000   0.00034   0.00027  -0.00594
  52        6D 0       -0.00108   0.00000  -0.00002   0.00033  -0.00101
  53        6D+1        0.00000  -0.00021  -0.00000  -0.00000   0.00000
  54        6D-1       -0.00058  -0.00000   0.00007   0.00008   0.00000
  55        6D+2        0.00000  -0.00000   0.00000   0.00000  -0.00079
  56        6D-2        0.00000  -0.00000   0.00000   0.00000  -0.00000
                          36        37        38        39        40
  36        2S          0.52933
  37        2PX         0.00000   0.12621
  38        2PY         0.00000  -0.00000   0.19500
  39        2PZ        -0.01259   0.00000   0.00000   0.08725
  40        3S         -0.25064   0.00000   0.00000   0.03977   0.78548
  41        3PX         0.00000   0.18167  -0.00000   0.00000   0.00000
  42        3PY         0.00000  -0.00000   0.27748  -0.00000  -0.00000
  43        3PZ        -0.01607   0.00000   0.00000   0.12960   0.05454
  44        4S         -0.21892   0.00000   0.00000   0.04241   0.63493
  45        4PX         0.00000   0.16409  -0.00000   0.00000   0.00000
  46        4PY         0.00000  -0.00000   0.25065  -0.00000  -0.00000
  47        4PZ        -0.01077   0.00000   0.00000   0.10133   0.03902
  48        5S          0.00988   0.00000   0.00000   0.04852  -0.01109
  49        5PX         0.00000   0.03140  -0.00000   0.00000   0.00000
  50        5PY         0.00000  -0.00000   0.05494   0.00000  -0.00000
  51        5PZ        -0.00851   0.00000   0.00000  -0.00141   0.02182
  52        6D 0       -0.00154  -0.00000  -0.00000  -0.00544   0.00412
  53        6D+1        0.00000  -0.00451   0.00000   0.00000  -0.00000
  54        6D-1        0.00000   0.00000  -0.00421   0.00000  -0.00000
  55        6D+2       -0.00127   0.00000  -0.00000   0.00015   0.00378
  56        6D-2       -0.00000   0.00000  -0.00000   0.00000   0.00000
                          41        42        43        44        45
  41        3PX         0.26148
  42        3PY        -0.00000   0.39483
  43        3PZ         0.00000   0.00000   0.19255
  44        4S          0.00000   0.00000   0.05931   0.51507
  45        4PX         0.23619  -0.00000   0.00000   0.00000   0.21334
  46        4PY        -0.00000   0.35665  -0.00000  -0.00000  -0.00000
  47        4PZ         0.00000   0.00000   0.15057   0.04345   0.00000
  48        5S          0.00000   0.00000   0.07229  -0.00330   0.00000
  49        5PX         0.04519  -0.00000   0.00000   0.00000   0.04082
  50        5PY        -0.00000   0.07816   0.00000  -0.00000  -0.00000
  51        5PZ         0.00000   0.00000  -0.00225   0.01743   0.00000
  52        6D 0       -0.00000  -0.00000  -0.00813   0.00267  -0.00000
  53        6D+1       -0.00650  -0.00000   0.00000  -0.00000  -0.00587
  54        6D-1       -0.00000  -0.00599   0.00000  -0.00000   0.00000
  55        6D+2        0.00000  -0.00000   0.00020   0.00305   0.00000
  56        6D-2        0.00000  -0.00000   0.00000   0.00000   0.00000
                          46        47        48        49        50
  46        4PY         0.32220
  47        4PZ         0.00000   0.11777
  48        5S          0.00000   0.05667   0.02857
  49        5PX        -0.00000   0.00000   0.00000   0.00781
  50        5PY         0.07072   0.00000   0.00000  -0.00000   0.01587
  51        5PZ         0.00000  -0.00184  -0.00189   0.00000   0.00000
  52        6D 0       -0.00000  -0.00638  -0.00335  -0.00000  -0.00000
  53        6D+1        0.00000   0.00000   0.00000  -0.00112   0.00000
  54        6D-1       -0.00539   0.00000   0.00000   0.00000  -0.00111
  55        6D+2       -0.00000   0.00014  -0.00008   0.00000  -0.00000
  56        6D-2       -0.00000   0.00000  -0.00000   0.00000  -0.00000
                          51        52        53        54        55
  51        5PZ         0.00087
  52        6D 0        0.00034   0.00041
  53        6D+1       -0.00000   0.00000   0.00016
  54        6D-1       -0.00000   0.00000   0.00000   0.00011
  55        6D+2        0.00011   0.00002  -0.00000   0.00000   0.00002
  56        6D-2        0.00000   0.00000  -0.00000   0.00000   0.00000
                          56
  56        6D-2        0.00000
          Condensed to atoms (all electrons):
               1          2          3          4
     1  C    5.140970   0.352549   0.352549   0.252882
     2  H    0.352549   0.514894  -0.045644  -0.014390
     3  H    0.352549  -0.045644   0.514894  -0.014390
     4  O    0.252882  -0.014390  -0.014390   8.062129
 Mulliken charges:
               1
     1  C   -0.098950
     2  H    0.192591
     3  H    0.192591
     4  O   -0.286231
 Sum of Mulliken charges =   0.00000
 Mulliken charges with hydrogens summed into heavy atoms:
               1
     1  C    0.286231
     4  O   -0.286231
 Electronic spatial extent (au):  <R**2>=             91.1349
 Charge=              0.0000 electrons
 Dipole moment (field-independent basis, Debye):
    X=             -0.0000    Y=              0.0000    Z=             -4.1967  Tot=              4.1967
 Quadrupole moment (field-independent basis, Debye-Ang):
   XX=            -13.0488   YY=            -12.0471   ZZ=            -10.6060
   XY=              0.0000   XZ=              0.0000   YZ=             -0.0000
 Traceless Quadrupole moment (field-independent basis, Debye-Ang):
   XX=             -1.1482   YY=             -0.1464   ZZ=              1.2946
   XY=              0.0000   XZ=              0.0000   YZ=             -0.0000
 Octapole moment (field-independent basis, Debye-Ang**2):
  XXX=              0.0000  YYY=              0.0000  ZZZ=             -3.0018  XYY=             -0.0000
  XXY=              0.0000  XXZ=              0.4376  XZZ=             -0.0000  YZZ=              0.0000
  YYZ=             -2.6943  XYZ=             -0.0000
 Hexadecapole moment (field-independent basis, Debye-Ang**3):
 XXXX=            -14.2079 YYYY=            -18.5939 ZZZZ=            -78.2944 XXXY=             -0.0000
 XXXZ=             -0.0000 YYYX=             -0.0000 YYYZ=             -0.0000 ZZZX=              0.0000
 ZZZY=             -0.0000 XXYY=             -5.9212 XXZZ=            -16.6274 YYZZ=            -14.5969
 XXYZ=              0.0000 YYXZ=              0.0000 ZZXY=              0.0000
 N-N= 2.306623997919D+01 E-N=-3.145391109903D+02  KE= 1.133112113127D+02
 Symmetry A1   KE= 1.026738359304D+02
 Symmetry A2   KE= 1.397612650096D-35
 Symmetry B1   KE= 3.747935291014D+00
 Symmetry B2   KE= 6.889440091307D+00
 Leave Link  601 at Fri Sep 17 10:53:09 2021, MaxMem=   268435456 cpu:               0.0 elap:               0.0
 (Enter /software/gaussian/g16-a03/l9999.exe)
 Electronic transition elements 
                 1             2             3             4             5 
      1  -0.114297D+03 -0.114221D+03 -0.114209D+03 -0.114204D+03 -0.114180D+03
      2   0.000000D+00  0.000000D+00  0.000000D+00  0.477012D-01 -0.248939D+00
      3   0.000000D+00  0.000000D+00 -0.166108D+00  0.000000D+00  0.000000D+00
      4   0.000000D+00  0.609091D+00  0.000000D+00  0.000000D+00  0.000000D+00
      5   0.000000D+00  0.000000D+00  0.000000D+00 -0.286170D-01  0.380505D-01
      6   0.000000D+00  0.000000D+00  0.195130D-01  0.000000D+00  0.000000D+00
      7   0.000000D+00 -0.646421D-01  0.000000D+00  0.000000D+00  0.000000D+00
      8   0.000000D+00  0.000000D+00  0.560699D+00  0.000000D+00  0.000000D+00
      9   0.000000D+00  0.000000D+00  0.000000D+00 -0.196609D+01 -0.198540D+00
     10   0.953521D+00  0.000000D+00  0.000000D+00  0.000000D+00  0.000000D+00
     11   0.000000D+00  0.462452D-01  0.000000D+00  0.000000D+00  0.000000D+00
     12   0.000000D+00 -0.707914D-02  0.000000D+00  0.000000D+00  0.000000D+00
     13   0.000000D+00 -0.273496D-01  0.000000D+00  0.000000D+00  0.000000D+00
     14  -0.251020D-01  0.000000D+00  0.000000D+00  0.000000D+00  0.000000D+00
     15   0.000000D+00  0.000000D+00  0.000000D+00 -0.405422D-01  0.135532D+00
     16   0.000000D+00  0.000000D+00  0.236469D-01  0.000000D+00  0.000000D+00
                 6             7             8             9            10 
      1  -0.114091D+03 -0.114090D+03 -0.114074D+03 -0.114050D+03 -0.114033D+03
      2   0.000000D+00  0.000000D+00 -0.610767D+00  0.000000D+00  0.000000D+00
      3  -0.111023D+00  0.000000D+00  0.000000D+00  0.000000D+00  0.000000D+00
      4   0.000000D+00  0.000000D+00  0.000000D+00 -0.315148D+00  0.000000D+00
      5   0.000000D+00  0.000000D+00  0.167381D+00  0.000000D+00  0.000000D+00
      6   0.233194D-01  0.000000D+00  0.000000D+00  0.000000D+00  0.000000D+00
      7   0.000000D+00  0.000000D+00  0.000000D+00  0.900127D-01  0.000000D+00
      8  -0.306383D+00  0.000000D+00  0.000000D+00  0.000000D+00  0.000000D+00
      9   0.000000D+00  0.000000D+00 -0.145434D+00  0.000000D+00  0.000000D+00
     10   0.000000D+00 -0.108068D+01  0.000000D+00  0.000000D+00  0.241006D-01
     11   0.000000D+00  0.000000D+00  0.000000D+00  0.353923D-01  0.000000D+00
     12   0.000000D+00  0.000000D+00  0.000000D+00  0.111807D+00  0.000000D+00
     13   0.000000D+00  0.000000D+00  0.000000D+00 -0.200381D+00  0.000000D+00
     14   0.000000D+00  0.172580D+00  0.000000D+00  0.000000D+00  0.286172D+00
     15   0.000000D+00  0.000000D+00 -0.178900D+00  0.000000D+00  0.000000D+00
     16   0.231891D+00  0.000000D+00  0.000000D+00  0.000000D+00  0.000000D+00
                11            12            13            14            15 
      1  -0.114032D+03 -0.114029D+03 -0.114014D+03 -0.114013D+03 -0.114007D+03
      2   0.000000D+00  0.000000D+00  0.000000D+00 -0.428816D+00  0.000000D+00
      3  -0.423025D+00  0.000000D+00  0.000000D+00  0.000000D+00  0.000000D+00
      4   0.000000D+00  0.000000D+00  0.105480D+01  0.000000D+00 -0.953574D+00
      5   0.000000D+00  0.000000D+00  0.000000D+00  0.150535D+00  0.000000D+00
      6   0.134219D+00  0.000000D+00  0.000000D+00  0.000000D+00  0.000000D+00
      7   0.000000D+00  0.000000D+00 -0.346907D+00  0.000000D+00  0.324145D+00
      8  -0.528844D+00  0.000000D+00  0.000000D+00  0.000000D+00  0.000000D+00
      9   0.000000D+00  0.000000D+00  0.000000D+00  0.259741D+00  0.000000D+00
     10   0.000000D+00 -0.167818D-02  0.000000D+00  0.000000D+00  0.000000D+00
     11   0.000000D+00  0.000000D+00  0.614065D+00  0.000000D+00  0.507933D+00
     12   0.000000D+00  0.000000D+00  0.560525D-01  0.000000D+00  0.431044D-01
     13   0.000000D+00  0.000000D+00  0.739168D-02  0.000000D+00 -0.347112D+00
     14   0.000000D+00  0.576111D-01  0.000000D+00  0.000000D+00  0.000000D+00
     15   0.000000D+00  0.000000D+00  0.000000D+00  0.335375D+00  0.000000D+00
     16   0.242712D+00  0.000000D+00  0.000000D+00  0.000000D+00  0.000000D+00
                16            17            18            19            20 
      1  -0.113986D+03 -0.113980D+03 -0.113975D+03 -0.113961D+03 -0.113952D+03
      2   0.000000D+00  0.000000D+00  0.000000D+00 -0.444192D+00  0.000000D+00
      3   0.000000D+00  0.299007D-01 -0.269258D+00  0.000000D+00 -0.231826D+00
      4  -0.545318D+00  0.000000D+00  0.000000D+00  0.000000D+00  0.000000D+00
      5   0.000000D+00  0.000000D+00  0.000000D+00  0.152709D+00  0.000000D+00
      6   0.000000D+00 -0.151851D-01  0.105034D+00  0.000000D+00  0.900545D-01
      7   0.202715D+00  0.000000D+00  0.000000D+00  0.000000D+00  0.000000D+00
      8   0.000000D+00  0.845710D+00  0.245277D-01  0.000000D+00  0.770102D-01
      9   0.000000D+00  0.000000D+00  0.000000D+00  0.172834D+00  0.000000D+00
     10   0.000000D+00  0.000000D+00  0.000000D+00  0.000000D+00  0.000000D+00
     11   0.289974D+00  0.000000D+00  0.000000D+00  0.000000D+00  0.000000D+00
     12   0.217991D+00  0.000000D+00  0.000000D+00  0.000000D+00  0.000000D+00
     13   0.631877D+00  0.000000D+00  0.000000D+00  0.000000D+00  0.000000D+00
     14   0.000000D+00  0.000000D+00  0.000000D+00  0.000000D+00  0.000000D+00
     15   0.000000D+00  0.000000D+00  0.000000D+00 -0.657893D-01  0.000000D+00
     16   0.000000D+00  0.392519D+00 -0.135640D+00  0.000000D+00 -0.323683D+00
                21            22            23            24            25 
      1  -0.113952D+03 -0.113946D+03 -0.113932D+03 -0.113922D+03 -0.113906D+03
      2   0.000000D+00  0.000000D+00 -0.718782D-01  0.000000D+00  0.000000D+00
      3   0.000000D+00  0.000000D+00  0.000000D+00 -0.111396D+00  0.000000D+00
      4   0.000000D+00 -0.880086D+00  0.000000D+00  0.000000D+00  0.112162D+01
      5   0.000000D+00  0.000000D+00  0.237683D-01  0.000000D+00  0.000000D+00
      6   0.000000D+00  0.000000D+00  0.000000D+00  0.414603D-01  0.000000D+00
      7   0.000000D+00  0.350943D+00  0.000000D+00  0.000000D+00 -0.471339D+00
      8   0.000000D+00  0.000000D+00  0.000000D+00  0.202896D-01  0.000000D+00
      9   0.000000D+00  0.000000D+00  0.714776D-01  0.000000D+00  0.000000D+00
     10  -0.743028D-01  0.000000D+00  0.000000D+00  0.000000D+00  0.000000D+00
     11   0.000000D+00 -0.995865D-01  0.000000D+00  0.000000D+00 -0.284806D+00
     12   0.000000D+00 -0.418315D+00  0.000000D+00  0.000000D+00  0.420739D+00
     13   0.000000D+00 -0.886080D-01  0.000000D+00  0.000000D+00 -0.286616D+00
     14  -0.277466D+00  0.000000D+00  0.000000D+00  0.000000D+00  0.000000D+00
     15   0.000000D+00  0.000000D+00 -0.162410D+00  0.000000D+00  0.000000D+00
     16   0.000000D+00  0.000000D+00  0.000000D+00  0.463392D+00  0.000000D+00
                26            27            28            29            30 
      1  -0.113902D+03 -0.113898D+03 -0.113895D+03 -0.113879D+03 -0.113871D+03
      2   0.000000D+00  0.749995D-01  0.000000D+00  0.000000D+00  0.000000D+00
      3   0.000000D+00  0.000000D+00 -0.674121D+00  0.000000D+00  0.000000D+00
      4   0.000000D+00  0.000000D+00  0.000000D+00  0.383315D+00 -0.525263D+00
      5   0.000000D+00 -0.232387D-01  0.000000D+00  0.000000D+00  0.000000D+00
      6   0.000000D+00  0.000000D+00  0.298973D+00  0.000000D+00  0.000000D+00
      7   0.000000D+00  0.000000D+00  0.000000D+00 -0.169923D+00  0.234563D+00
      8   0.000000D+00  0.000000D+00  0.771146D+00  0.000000D+00  0.000000D+00
      9   0.000000D+00  0.971753D-01  0.000000D+00  0.000000D+00  0.000000D+00
     10  -0.282201D-01  0.000000D+00  0.000000D+00  0.000000D+00  0.000000D+00
     11   0.000000D+00  0.000000D+00  0.000000D+00 -0.247749D+00 -0.306820D+00
     12   0.000000D+00  0.000000D+00  0.000000D+00  0.843549D-01  0.182370D+00
     13   0.000000D+00  0.000000D+00  0.000000D+00  0.193571D+00  0.161191D+00
     14   0.372862D+00  0.000000D+00  0.000000D+00  0.000000D+00  0.000000D+00
     15   0.000000D+00  0.387528D+00  0.000000D+00  0.000000D+00  0.000000D+00
     16   0.000000D+00  0.000000D+00 -0.830713D+00  0.000000D+00  0.000000D+00

 Test job not archived.
 1\1\GINC-BHD0007\SP\RB3LYP TD-FC\6-311+G(d,p)\C1H2O1\BWEIGHT\17-Sep-20
 21\0\\#p B3LYP/6-311+G** #p TD=(singlets,nstates=30)IOp(6/8=3) IOp(9/4
 0=4)\\Scan Step 268, Bond Length 1.84\\0,1\C,0,0.,0.,-0.52736\H,0,0.,0
 .93726,-1.11871\H,0,0.,-0.93726,-1.11871\O,0,0.,0.,1.31264\\Version=ES
 64L-G16RevA.03\State=1-A1\HF=-114.3435564\RMSD=7.600e-09\PG=C02V [C2(C
 1O1),SGV(H2)]\\@


 THE TEST OF A FIRST RATE INTELLIGENCE IS THE ABILITY TO HOLD TWO OPPOSED
 IDEAS IN THE MIND AT THE SAME TIME, AND STILL RETAIN THE ABILITY TO FUNCTION.
 ONE SHOULD, FOR EXAMPLE, BE ABLE TO SEE THAT THINGS ARE HOPELESS AND YET BE
 DETERMINED TO MAKE THEM OTHERWISE.

                                                       -- F. SCOTT FITZGERALD
 Job cpu time:       0 days  0 hours  0 minutes 25.9 seconds.
 Elapsed time:       0 days  0 hours  0 minutes 26.3 seconds.
 File lengths (MBytes):  RWF=     79 Int=      0 D2E=      0 Chk=     32 Scr=      1
 Normal termination of Gaussian 16 at Fri Sep 17 10:53:09 2021.
