 Entering Gaussian System, Link 0=g16
 Initial command:
 /software/gaussian/g16-c01/sse4/g16/l1.exe "/local_scratch/24657453/Gau-5992.inp" -scrdir="/local_scratch/24657453/"
 Entering Link 1 = /software/gaussian/g16-c01/sse4/g16/l1.exe PID=      5993.
  
 Copyright (c) 1988-2019, Gaussian, Inc.  All Rights Reserved.
  
 This is part of the Gaussian(R) 16 program.  It is based on
 the Gaussian(R) 09 system (copyright 2009, Gaussian, Inc.),
 the Gaussian(R) 03 system (copyright 2003, Gaussian, Inc.),
 the Gaussian(R) 98 system (copyright 1998, Gaussian, Inc.),
 the Gaussian(R) 94 system (copyright 1995, Gaussian, Inc.),
 the Gaussian 92(TM) system (copyright 1992, Gaussian, Inc.),
 the Gaussian 90(TM) system (copyright 1990, Gaussian, Inc.),
 the Gaussian 88(TM) system (copyright 1988, Gaussian, Inc.),
 the Gaussian 86(TM) system (copyright 1986, Carnegie Mellon
 University), and the Gaussian 82(TM) system (copyright 1983,
 Carnegie Mellon University). Gaussian is a federally registered
 trademark of Gaussian, Inc.
  
 This software contains proprietary and confidential information,
 including trade secrets, belonging to Gaussian, Inc.
  
 This software is provided under written license and may be
 used, copied, transmitted, or stored only in accord with that
 written license.
  
 The following legend is applicable only to US Government
 contracts under FAR:
  
                    RESTRICTED RIGHTS LEGEND
  
 Use, reproduction and disclosure by the US Government is
 subject to restrictions as set forth in subparagraphs (a)
 and (c) of the Commercial Computer Software - Restricted
 Rights clause in FAR 52.227-19.
  
 Gaussian, Inc.
 340 Quinnipiac St., Bldg. 40, Wallingford CT 06492
  
  
 ---------------------------------------------------------------
 Warning -- This program may not be used in any manner that
 competes with the business of Gaussian, Inc. or will provide
 assistance to any competitor of Gaussian, Inc.  The licensee
 of this program is prohibited from giving any competitor of
 Gaussian, Inc. access to this program.  By using this program,
 the user acknowledges that Gaussian, Inc. is engaged in the
 business of creating and licensing software in the field of
 computational chemistry and represents and warrants to the
 licensee that it is not a competitor of Gaussian, Inc. and that
 it will not use this program in any manner prohibited above.
 ---------------------------------------------------------------
  

 Cite this work as:
 Gaussian 16, Revision C.01,
 M. J. Frisch, G. W. Trucks, H. B. Schlegel, G. E. Scuseria, 
 M. A. Robb, J. R. Cheeseman, G. Scalmani, V. Barone, 
 G. A. Petersson, H. Nakatsuji, X. Li, M. Caricato, A. V. Marenich, 
 J. Bloino, B. G. Janesko, R. Gomperts, B. Mennucci, H. P. Hratchian, 
 J. V. Ortiz, A. F. Izmaylov, J. L. Sonnenberg, D. Williams-Young, 
 F. Ding, F. Lipparini, F. Egidi, J. Goings, B. Peng, A. Petrone, 
 T. Henderson, D. Ranasinghe, V. G. Zakrzewski, J. Gao, N. Rega, 
 G. Zheng, W. Liang, M. Hada, M. Ehara, K. Toyota, R. Fukuda, 
 J. Hasegawa, M. Ishida, T. Nakajima, Y. Honda, O. Kitao, H. Nakai, 
 T. Vreven, K. Throssell, J. A. Montgomery, Jr., J. E. Peralta, 
 F. Ogliaro, M. J. Bearpark, J. J. Heyd, E. N. Brothers, K. N. Kudin, 
 V. N. Staroverov, T. A. Keith, R. Kobayashi, J. Normand, 
 K. Raghavachari, A. P. Rendell, J. C. Burant, S. S. Iyengar, 
 J. Tomasi, M. Cossi, J. M. Millam, M. Klene, C. Adamo, R. Cammi, 
 J. W. Ochterski, R. L. Martin, K. Morokuma, O. Farkas, 
 J. B. Foresman, and D. J. Fox, Gaussian, Inc., Wallingford CT, 2019.
 
 ******************************************
 Gaussian 16:  ES64L-G16RevC.01  3-Jul-2019
                 1-May-2024 
 ******************************************
 %chk=geometry.chk
 %mem=9GB
 %nprocshared=12
 Will use up to   12 processors via shared memory.
 ----------------------------------------
 #P wB97XD/6-311+G* NoSymm #P Field=X+116
 ----------------------------------------
 1/38=1,172=1/1;
 2/12=2,15=1,17=6,18=5,40=1/2;
 3/5=4,6=6,7=11,11=2,14=1,15=116,25=1,30=1,74=-58/1,2,3;
 4//1;
 5/5=2,38=5/2;
 6/7=2,8=2,9=2,10=2,28=1/1;
 99/5=1,9=1/99;
 Leave Link    1 at Wed May  1 14:27:47 2024, MaxMem=  1207959552 cpu:               1.1 elap:               1.1
 (Enter /software/gaussian/g16-c01/sse4/g16/l101.exe)
 -------
 TitleMe
 -------
 Symbolic Z-matrix:
 Charge =  1 Multiplicity = 1
 C                     0.0295    1.3397    0.0682 
 C                     1.4348    1.2867    0.0064 
 C                     2.1118    0.0511   -0.0054 
 C                     1.4451   -1.1372    0.0312 
 C                    -0.6879    0.1682    0.11 
 H                    -0.4713    2.2984    0.0781 
 H                     2.0273    2.1965   -0.0322 
 H                     1.9897   -2.0764    0.0232 
 H                    -1.7716    0.1804    0.1582 
 N                     3.5864    0.051    -0.0675 
 O                     4.1471   -1.0597   -0.0881 
 O                     4.145     1.1639   -0.0901 
 C                    -0.0236   -1.1458    0.0835 
 H                    -0.4367   -1.8725    0.7889 
 Br                   -0.5359   -1.8697   -1.7408 
 
 ITRead=  0  0  0  0  0  0  0  0  0  0  0  0  0  0  0
 MicOpt= -1 -1 -1 -1 -1 -1 -1 -1 -1 -1 -1 -1 -1 -1 -1
 NAtoms=     15 NQM=       15 NQMF=       0 NMMI=      0 NMMIF=      0
                NMic=       0 NMicF=      0.
                    Isotopes and Nuclear Properties:
 (Nuclear quadrupole moments (NQMom) in fm**2, nuclear magnetic moments (NMagM)
  in nuclear magnetons)

  Atom         1           2           3           4           5           6           7           8           9          10
 IAtWgt=          12          12          12          12          12           1           1           1           1          14
 AtmWgt=  12.0000000  12.0000000  12.0000000  12.0000000  12.0000000   1.0078250   1.0078250   1.0078250   1.0078250  14.0030740
 NucSpn=           0           0           0           0           0           1           1           1           1           2
 AtZEff=  -0.0000000  -0.0000000  -0.0000000  -0.0000000  -0.0000000  -0.0000000  -0.0000000  -0.0000000  -0.0000000  -0.0000000
 NQMom=    0.0000000   0.0000000   0.0000000   0.0000000   0.0000000   0.0000000   0.0000000   0.0000000   0.0000000   2.0440000
 NMagM=    0.0000000   0.0000000   0.0000000   0.0000000   0.0000000   2.7928460   2.7928460   2.7928460   2.7928460   0.4037610
 AtZNuc=   6.0000000   6.0000000   6.0000000   6.0000000   6.0000000   1.0000000   1.0000000   1.0000000   1.0000000   7.0000000

  Atom        11          12          13          14          15
 IAtWgt=          16          16          12           1          79
 AtmWgt=  15.9949146  15.9949146  12.0000000   1.0078250  78.9183361
 NucSpn=           0           0           0           1           3
 AtZEff=  -0.0000000  -0.0000000  -0.0000000  -0.0000000  -0.0000000
 NQMom=    0.0000000   0.0000000   0.0000000   0.0000000  31.3000000
 NMagM=    0.0000000   0.0000000   0.0000000   2.7928460   2.1063990
 AtZNuc=   8.0000000   8.0000000   6.0000000   1.0000000  35.0000000
 Leave Link  101 at Wed May  1 14:27:48 2024, MaxMem=  1207959552 cpu:               1.4 elap:               1.4
 (Enter /software/gaussian/g16-c01/sse4/g16/l202.exe)
                          Input orientation:                          
 ---------------------------------------------------------------------
 Center     Atomic      Atomic             Coordinates (Angstroms)
 Number     Number       Type             X           Y           Z
 ---------------------------------------------------------------------
      1          6           0        0.029500    1.339700    0.068200
      2          6           0        1.434800    1.286700    0.006400
      3          6           0        2.111800    0.051100   -0.005400
      4          6           0        1.445100   -1.137200    0.031200
      5          6           0       -0.687900    0.168200    0.110000
      6          1           0       -0.471300    2.298400    0.078100
      7          1           0        2.027300    2.196500   -0.032200
      8          1           0        1.989700   -2.076400    0.023200
      9          1           0       -1.771600    0.180400    0.158200
     10          7           0        3.586400    0.051000   -0.067500
     11          8           0        4.147100   -1.059700   -0.088100
     12          8           0        4.145000    1.163900   -0.090100
     13          6           0       -0.023600   -1.145800    0.083500
     14          1           0       -0.436700   -1.872500    0.788900
     15         35           0       -0.535900   -1.869700   -1.740800
 ---------------------------------------------------------------------
                    Distance matrix (angstroms):
                    1          2          3          4          5
     1  C    0.000000
     2  C    1.407656   0.000000
     3  C    2.449874   1.408963   0.000000
     4  C    2.853126   2.424049   1.363043   0.000000
     5  C    1.374344   2.401589   2.804523   2.501993   0.000000
     6  H    1.081667   2.159142   3.424870   3.934226   2.141421
     7  H    2.176095   1.086408   2.147231   3.384750   3.392128
     8  H    3.938800   3.408612   2.131193   1.085702   3.495040
     9  H    2.143837   3.395283   3.888995   3.478413   1.084840
    10  N    3.785591   2.482297   1.475907   2.450862   4.279589
    11  O    4.768247   3.587631   2.320164   2.705743   4.992415
    12  O    4.122294   2.714696   2.319353   3.549540   4.938459
    13  C    2.486114   2.837240   2.449573   1.469656   1.472614
    14  H    3.324903   3.754379   3.290289   2.157764   2.165286
    15  Br   3.727252   4.110867   3.702891   2.756973   2.757100
                    6          7          8          9         10
     6  H    0.000000
     7  H    2.503108   0.000000
     8  H    5.019802   4.273425   0.000000
     9  H    2.486588   4.304945   4.388479   0.000000
    10  N    4.640790   2.652397   2.661486   5.364313   0.000000
    11  O    5.712624   3.885809   2.387560   6.052233   1.244373
    12  O    4.756638   2.356750   3.893289   6.002923   1.245428
    13  C    3.473180   3.923079   2.218790   2.195425   3.806210
    14  H    4.231175   4.827242   2.552506   2.528663   4.540772
    15  Br   4.548146   5.101303   3.087568   3.055498   4.845862
                   11         12         13         14         15
    11  O    0.000000
    12  O    2.223602   0.000000
    13  C    4.175117   4.768865   0.000000
    14  H    4.737193   5.566358   1.093770   0.000000
    15  Br   5.031700   5.817075   2.028436   2.531646   0.000000
 Symmetry turned off by external request.
 Stoichiometry    C6H5BrNO2(1+)
 Framework group  C1[X(C6H5BrNO2)]
 Deg. of freedom    39
 Full point group                 C1      NOp   1
 Rotational constants (GHZ):           1.8252210           0.5518633           0.4576002
 Leave Link  202 at Wed May  1 14:27:50 2024, MaxMem=  1207959552 cpu:               1.2 elap:               1.2
 (Enter /software/gaussian/g16-c01/sse4/g16/l301.exe)
 Standard basis: 6-311+G(d) (5D, 7F)
 Ernie: Thresh=  0.10000D-02 Tol=  0.10000D-05 Strict=F.
 The following finite field(s) will be applied:
 An electric field of              0.0116  0.0000  0.0000
   261 basis functions,   443 primitive gaussians,   273 cartesian basis functions
    49 alpha electrons       49 beta electrons
       nuclear repulsion energy       739.2122215416 Hartrees.
 IExCor= 4639 DFT=T Ex+Corr=wB97XD ExCW=0 ScaHFX=  1.000000
 ScaDFX=  1.000000  1.000000  1.000000  1.000000 ScalE2=  1.000000  1.000000
 IRadAn=      5 IRanWt=     -1 IRanGd=            0 ICorTp=0 IEmpDi=121
 HFx  wShort=  0.000000 wLong=  0.200000 cFull=  0.222036 cShort=  0.000000 cLong=  0.777964
 DFx  wShort=  0.000000 wLong=  0.200000 cFull=  0.000000 cShort=  0.000000 cLong=  1.000000
 NAtoms=   15 NActive=   15 NUniq=   15 SFac= 1.00D+00 NAtFMM=   60 NAOKFM=F Big=F
 Integral buffers will be    131072 words long.
 Raffenetti 2 integral format.
 Two-electron integral symmetry is turned off.
 R6Disp:  Grimme-D2 Dispersion energy=       -0.0077368520 Hartrees.
 Nuclear repulsion after empirical dispersion term =      739.2044846896 Hartrees.
 Leave Link  301 at Wed May  1 14:27:51 2024, MaxMem=  1207959552 cpu:               1.0 elap:               1.0
 (Enter /software/gaussian/g16-c01/sse4/g16/l302.exe)
 NPDir=0 NMtPBC=     1 NCelOv=     1 NCel=       1 NClECP=     1 NCelD=      1
         NCelK=      1 NCelE2=     1 NClLst=     1 CellRange=     0.0.
 One-electron integrals computed using PRISM.
 NBasis=   261 RedAO= T EigKep=  2.35D-06  NBF=   261
 NBsUse=   261 1.00D-06 EigRej= -1.00D+00 NBFU=   261
 Precomputing XC quadrature grid using
 IXCGrd= 4 IRadAn=           5 IRanWt=          -1 IRanGd=           0 AccXCQ= 0.00D+00.
 Generated NRdTot=       0 NPtTot=           0 NUsed=           0 NTot=          32
 NSgBfM=   273   273   273   273   273 MxSgAt=    15 MxSgA2=    15.
 Leave Link  302 at Wed May  1 14:28:12 2024, MaxMem=  1207959552 cpu:              21.1 elap:              21.1
 (Enter /software/gaussian/g16-c01/sse4/g16/l303.exe)
 DipDrv:  MaxL=1.
 The nuclear repulsion energy is now       741.3939518399 hartrees.
 Leave Link  303 at Wed May  1 14:28:15 2024, MaxMem=  1207959552 cpu:               3.1 elap:               3.1
 (Enter /software/gaussian/g16-c01/sse4/g16/l401.exe)
 ExpMin= 3.50D-02 ExpMax= 4.40D+05 ExpMxC= 1.51D+04 IAcc=3 IRadAn=         5 AccDes= 0.00D+00
 Harris functional with IExCor= 4639 and IRadAn=       5 diagonalized for initial guess.
 HarFok:  IExCor= 4639 AccDes= 0.00D+00 IRadAn=         5 IDoV= 1 UseB2=F ITyADJ=14
 ICtDFT=  3500011 ScaDFX=  1.000000  1.000000  1.000000  1.000000
 FoFCou: FMM=F IPFlag=           0 FMFlag=      100000 FMFlg1=           0
         NFxFlg=           0 DoJE=T BraDBF=F KetDBF=T FulRan=T
         wScrn=  0.000000 ICntrl=       500 IOpCl=  0 I1Cent=   200000004 NGrid=           0
         NMat0=    1 NMatS0=      1 NMatT0=    0 NMatD0=    1 NMtDS0=    0 NMtDT0=    0
 Symmetry not used in FoFCou.
 Harris En= -2970.61450141489    
 JPrj=0 DoOrth=F DoCkMO=F.
 Leave Link  401 at Wed May  1 14:28:46 2024, MaxMem=  1207959552 cpu:              30.2 elap:              30.2
 (Enter /software/gaussian/g16-c01/sse4/g16/l502.exe)
 Two-electron integral symmetry not used.
 Closed shell SCF:
 Using DIIS extrapolation, IDIIS=  1040.
 NGot=  1207959552 LenX=  1207804877 LenY=  1207729907
 Requested convergence on RMS density matrix=1.00D-08 within 128 cycles.
 Requested convergence on MAX density matrix=1.00D-06.
 Requested convergence on             energy=1.00D-06.
 No special actions if energy rises.
 Fock matrices will be formed incrementally for  20 cycles.

 Cycle   1  Pass 1  IDiag  1:
 FoFJK:  IHMeth= 1 ICntrl=       0 DoSepK=T KAlg= 0 I1Cent=           0 FoldK=F
 IRaf=         1 NMat=       1 IRICut=       1 DoRegI=T DoRafI=F ISym2E= 0 IDoP0=0 IntGTp=1.
 FoFCou: FMM=F IPFlag=           0 FMFlag=      100000 FMFlg1=           0
         NFxFlg=           0 DoJE=T BraDBF=F KetDBF=F FulRan=T
         wScrn=  0.000000 ICntrl=       500 IOpCl=  0 I1Cent=           0 NGrid=           0
         NMat0=    1 NMatS0=      1 NMatT0=    0 NMatD0=    1 NMtDS0=    0 NMtDT0=    0
 Symmetry not used in FoFCou.
 E= -3009.73271313402    
 DIIS: error= 3.20D-01 at cycle   1 NSaved=   1.
 NSaved= 1 IEnMin= 1 EnMin= -3009.73271313402     IErMin= 1 ErrMin= 3.20D-01
 ErrMax= 3.20D-01  0.00D+00 EMaxC= 1.00D-01 BMatC= 1.19D+01 BMatP= 1.19D+01
 IDIUse=3 WtCom= 0.00D+00 WtEn= 1.00D+00
 Coeff-Com:  0.100D+01
 Coeff-En:   0.100D+01
 Coeff:      0.100D+01
 Gap=     0.292 Goal=   None    Shift=    0.000
 GapD=    0.292 DampG=1.000 DampE=0.250 DampFc=0.2500 IDamp=-1.
 Damping current iteration by 2.50D-01
 RMSDP=5.27D-02 MaxDP=5.29D+00              OVMax= 2.62D-01

 Cycle   2  Pass 1  IDiag  1:
 RMSU=  4.26D-03    CP:  8.77D-01
 E= -3010.01705788584     Delta-E=       -0.284344751827 Rises=F Damp=T
 DIIS: error= 2.25D-01 at cycle   2 NSaved=   2.
 NSaved= 2 IEnMin= 2 EnMin= -3010.01705788584     IErMin= 2 ErrMin= 2.25D-01
 ErrMax= 2.25D-01  0.00D+00 EMaxC= 1.00D-01 BMatC= 5.45D+00 BMatP= 1.19D+01
 IDIUse=3 WtCom= 0.00D+00 WtEn= 1.00D+00
 Coeff-Com: -0.183D+01 0.283D+01
 Coeff-En:   0.000D+00 0.100D+01
 Coeff:      0.000D+00 0.100D+01
 Gap=     0.285 Goal=   None    Shift=    0.000
 RMSDP=4.08D-02 MaxDP=4.00D+00 DE=-2.84D-01 OVMax= 7.63D-02

 Cycle   3  Pass 1  IDiag  1:
 RMSU=  4.32D-03    CP:  4.91D-01  3.00D+00
 E= -3010.39503865857     Delta-E=       -0.377980772722 Rises=F Damp=F
 DIIS: error= 6.60D-02 at cycle   3 NSaved=   3.
 NSaved= 3 IEnMin= 3 EnMin= -3010.39503865857     IErMin= 3 ErrMin= 6.60D-02
 ErrMax= 6.60D-02  0.00D+00 EMaxC= 1.00D-01 BMatC= 7.43D-01 BMatP= 5.45D+00
 IDIUse=3 WtCom= 3.40D-01 WtEn= 6.60D-01
 Coeff-Com:  0.276D+01-0.363D+01 0.187D+01
 Coeff-En:   0.307D-01 0.000D+00 0.969D+00
 Coeff:      0.958D+00-0.123D+01 0.128D+01
 Gap=     0.261 Goal=   None    Shift=    0.000
 RMSDP=7.95D-03 MaxDP=4.50D-01 DE=-3.78D-01 OVMax= 7.82D-02

 Cycle   4  Pass 1  IDiag  1:
 RMSU=  5.41D-03    CP:  5.05D-01  2.46D+00  1.96D+00
 E= -3010.49984684981     Delta-E=       -0.104808191240 Rises=F Damp=F
 DIIS: error= 3.83D-02 at cycle   4 NSaved=   4.
 NSaved= 4 IEnMin= 4 EnMin= -3010.49984684981     IErMin= 4 ErrMin= 3.83D-02
 ErrMax= 3.83D-02  0.00D+00 EMaxC= 1.00D-01 BMatC= 2.32D-01 BMatP= 7.43D-01
 IDIUse=3 WtCom= 6.17D-01 WtEn= 3.83D-01
 Coeff-Com: -0.250D+00 0.346D+00 0.235D+00 0.669D+00
 Coeff-En:   0.000D+00 0.000D+00 0.200D+00 0.800D+00
 Coeff:     -0.154D+00 0.213D+00 0.222D+00 0.719D+00
 Gap=     0.261 Goal=   None    Shift=    0.000
 RMSDP=3.49D-03 MaxDP=2.97D-01 DE=-1.05D-01 OVMax= 3.09D-02

 Cycle   5  Pass 1  IDiag  1:
 RMSU=  1.39D-03    CP:  4.78D-01  2.82D+00  1.83D+00  9.13D-01
 E= -3010.54555602297     Delta-E=       -0.045709173167 Rises=F Damp=F
 DIIS: error= 6.71D-03 at cycle   5 NSaved=   5.
 NSaved= 5 IEnMin= 5 EnMin= -3010.54555602297     IErMin= 5 ErrMin= 6.71D-03
 ErrMax= 6.71D-03  0.00D+00 EMaxC= 1.00D-01 BMatC= 6.98D-03 BMatP= 2.32D-01
 IDIUse=3 WtCom= 9.33D-01 WtEn= 6.71D-02
 Coeff-Com: -0.139D+00 0.188D+00 0.286D-01 0.305D+00 0.617D+00
 Coeff-En:   0.000D+00 0.000D+00 0.000D+00 0.000D+00 0.100D+01
 Coeff:     -0.130D+00 0.176D+00 0.267D-01 0.284D+00 0.643D+00
 Gap=     0.250 Goal=   None    Shift=    0.000
 RMSDP=6.40D-04 MaxDP=5.06D-02 DE=-4.57D-02 OVMax= 1.07D-02

 Cycle   6  Pass 1  IDiag  1:
 RMSU=  4.68D-04    CP:  4.78D-01  2.78D+00  1.85D+00  9.10D-01  7.21D-01
 E= -3010.54697821107     Delta-E=       -0.001422188101 Rises=F Damp=F
 DIIS: error= 7.50D-04 at cycle   6 NSaved=   6.
 NSaved= 6 IEnMin= 6 EnMin= -3010.54697821107     IErMin= 6 ErrMin= 7.50D-04
 ErrMax= 7.50D-04  0.00D+00 EMaxC= 1.00D-01 BMatC= 9.12D-05 BMatP= 6.98D-03
 IDIUse=3 WtCom= 9.92D-01 WtEn= 7.50D-03
 Coeff-Com: -0.747D-01 0.100D+00-0.989D-02 0.115D+00 0.320D+00 0.549D+00
 Coeff-En:   0.000D+00 0.000D+00 0.000D+00 0.000D+00 0.000D+00 0.100D+01
 Coeff:     -0.742D-01 0.995D-01-0.981D-02 0.115D+00 0.318D+00 0.552D+00
 Gap=     0.251 Goal=   None    Shift=    0.000
 RMSDP=2.28D-04 MaxDP=1.37D-02 DE=-1.42D-03 OVMax= 3.86D-03

 Cycle   7  Pass 1  IDiag  1:
 RMSU=  9.34D-05    CP:  4.77D-01  2.78D+00  1.87D+00  9.23D-01  8.22D-01
                    CP:  7.89D-01
 E= -3010.54704811830     Delta-E=       -0.000069907225 Rises=F Damp=F
 DIIS: error= 4.71D-04 at cycle   7 NSaved=   7.
 NSaved= 7 IEnMin= 7 EnMin= -3010.54704811830     IErMin= 7 ErrMin= 4.71D-04
 ErrMax= 4.71D-04  0.00D+00 EMaxC= 1.00D-01 BMatC= 2.02D-05 BMatP= 9.12D-05
 IDIUse=3 WtCom= 9.95D-01 WtEn= 4.71D-03
 Coeff-Com: -0.279D-01 0.371D-01-0.122D-01 0.257D-01 0.954D-01 0.336D+00
 Coeff-Com:  0.546D+00
 Coeff-En:   0.000D+00 0.000D+00 0.000D+00 0.000D+00 0.000D+00 0.143D-01
 Coeff-En:   0.986D+00
 Coeff:     -0.278D-01 0.369D-01-0.121D-01 0.256D-01 0.950D-01 0.335D+00
 Coeff:      0.548D+00
 Gap=     0.251 Goal=   None    Shift=    0.000
 RMSDP=7.84D-05 MaxDP=3.86D-03 DE=-6.99D-05 OVMax= 1.68D-03

 Cycle   8  Pass 1  IDiag  1:
 RMSU=  5.10D-05    CP:  4.77D-01  2.78D+00  1.87D+00  9.29D-01  8.43D-01
                    CP:  8.04D-01  1.06D+00
 E= -3010.54706420308     Delta-E=       -0.000016084785 Rises=F Damp=F
 DIIS: error= 1.38D-04 at cycle   8 NSaved=   8.
 NSaved= 8 IEnMin= 8 EnMin= -3010.54706420308     IErMin= 8 ErrMin= 1.38D-04
 ErrMax= 1.38D-04  0.00D+00 EMaxC= 1.00D-01 BMatC= 2.72D-06 BMatP= 2.02D-05
 IDIUse=3 WtCom= 9.99D-01 WtEn= 1.38D-03
 Coeff-Com:  0.809D-02-0.110D-01-0.275D-02-0.184D-01-0.426D-01 0.176D-02
 Coeff-Com:  0.251D+00 0.814D+00
 Coeff-En:   0.000D+00 0.000D+00 0.000D+00 0.000D+00 0.000D+00 0.000D+00
 Coeff-En:   0.000D+00 0.100D+01
 Coeff:      0.808D-02-0.110D-01-0.274D-02-0.183D-01-0.426D-01 0.176D-02
 Coeff:      0.250D+00 0.815D+00
 Gap=     0.251 Goal=   None    Shift=    0.000
 RMSDP=5.06D-05 MaxDP=2.94D-03 DE=-1.61D-05 OVMax= 8.92D-04

 Cycle   9  Pass 1  IDiag  1:
 RMSU=  1.97D-05    CP:  4.78D-01  2.77D+00  1.88D+00  9.31D-01  8.46D-01
                    CP:  8.60D-01  1.28D+00  1.14D+00
 E= -3010.54706825153     Delta-E=       -0.000004048446 Rises=F Damp=F
 DIIS: error= 2.54D-05 at cycle   9 NSaved=   9.
 NSaved= 9 IEnMin= 9 EnMin= -3010.54706825153     IErMin= 9 ErrMin= 2.54D-05
 ErrMax= 2.54D-05  0.00D+00 EMaxC= 1.00D-01 BMatC= 2.54D-07 BMatP= 2.72D-06
 IDIUse=1 WtCom= 1.00D+00 WtEn= 0.00D+00
 Coeff-Com:  0.744D-02-0.999D-02 0.784D-03-0.107D-01-0.256D-01-0.403D-01
 Coeff-Com:  0.614D-02 0.263D+00 0.809D+00
 Coeff:      0.744D-02-0.999D-02 0.784D-03-0.107D-01-0.256D-01-0.403D-01
 Coeff:      0.614D-02 0.263D+00 0.809D+00
 Gap=     0.251 Goal=   None    Shift=    0.000
 RMSDP=1.75D-05 MaxDP=8.14D-04 DE=-4.05D-06 OVMax= 5.05D-04

 Cycle  10  Pass 1  IDiag  1:
 RMSU=  8.25D-06    CP:  4.78D-01  2.77D+00  1.88D+00  9.32D-01  8.50D-01
                    CP:  8.71D-01  1.36D+00  1.25D+00  1.16D+00
 E= -3010.54706885008     Delta-E=       -0.000000598550 Rises=F Damp=F
 DIIS: error= 1.93D-05 at cycle  10 NSaved=  10.
 NSaved=10 IEnMin=10 EnMin= -3010.54706885008     IErMin=10 ErrMin= 1.93D-05
 ErrMax= 1.93D-05  0.00D+00 EMaxC= 1.00D-01 BMatC= 6.74D-08 BMatP= 2.54D-07
 IDIUse=1 WtCom= 1.00D+00 WtEn= 0.00D+00
 Coeff-Com:  0.910D-03-0.120D-02 0.394D-03-0.816D-03 0.478D-03-0.643D-02
 Coeff-Com: -0.337D-01-0.515D-01 0.264D+00 0.828D+00
 Coeff:      0.910D-03-0.120D-02 0.394D-03-0.816D-03 0.478D-03-0.643D-02
 Coeff:     -0.337D-01-0.515D-01 0.264D+00 0.828D+00
 Gap=     0.251 Goal=   None    Shift=    0.000
 RMSDP=9.79D-06 MaxDP=6.30D-04 DE=-5.99D-07 OVMax= 2.16D-04

 Cycle  11  Pass 1  IDiag  1:
 RMSU=  4.00D-06    CP:  4.78D-01  2.77D+00  1.88D+00  9.32D-01  8.49D-01
                    CP:  8.80D-01  1.36D+00  1.25D+00  1.33D+00  1.15D+00
 E= -3010.54706897946     Delta-E=       -0.000000129377 Rises=F Damp=F
 DIIS: error= 6.18D-06 at cycle  11 NSaved=  11.
 NSaved=11 IEnMin=11 EnMin= -3010.54706897946     IErMin=11 ErrMin= 6.18D-06
 ErrMax= 6.18D-06  0.00D+00 EMaxC= 1.00D-01 BMatC= 5.14D-09 BMatP= 6.74D-08
 IDIUse=1 WtCom= 1.00D+00 WtEn= 0.00D+00
 Coeff-Com: -0.331D-03 0.443D-03 0.113D-04 0.871D-03 0.318D-02 0.740D-02
 Coeff-Com:  0.291D-02-0.326D-01-0.108D+00-0.417D-01 0.117D+01
 Coeff:     -0.331D-03 0.443D-03 0.113D-04 0.871D-03 0.318D-02 0.740D-02
 Coeff:      0.291D-02-0.326D-01-0.108D+00-0.417D-01 0.117D+01
 Gap=     0.251 Goal=   None    Shift=    0.000
 RMSDP=5.96D-06 MaxDP=3.13D-04 DE=-1.29D-07 OVMax= 1.73D-04

 Cycle  12  Pass 1  IDiag  1:
 RMSU=  1.32D-06    CP:  4.78D-01  2.77D+00  1.88D+00  9.31D-01  8.48D-01
                    CP:  8.86D-01  1.35D+00  1.25D+00  1.42D+00  1.43D+00
                    CP:  1.41D+00
 E= -3010.54706901602     Delta-E=       -0.000000036565 Rises=F Damp=F
 DIIS: error= 1.99D-06 at cycle  12 NSaved=  12.
 NSaved=12 IEnMin=12 EnMin= -3010.54706901602     IErMin=12 ErrMin= 1.99D-06
 ErrMax= 1.99D-06  0.00D+00 EMaxC= 1.00D-01 BMatC= 2.51D-09 BMatP= 5.14D-09
 IDIUse=1 WtCom= 1.00D+00 WtEn= 0.00D+00
 Coeff-Com: -0.291D-03 0.386D-03-0.442D-04 0.545D-03 0.114D-02 0.443D-02
 Coeff-Com:  0.746D-02-0.813D-02-0.106D+00-0.211D+00 0.585D+00 0.728D+00
 Coeff:     -0.291D-03 0.386D-03-0.442D-04 0.545D-03 0.114D-02 0.443D-02
 Coeff:      0.746D-02-0.813D-02-0.106D+00-0.211D+00 0.585D+00 0.728D+00
 Gap=     0.251 Goal=   None    Shift=    0.000
 RMSDP=2.96D-06 MaxDP=1.41D-04 DE=-3.66D-08 OVMax= 7.64D-05

 Cycle  13  Pass 1  IDiag  1:
 RMSU=  6.94D-07    CP:  4.78D-01  2.77D+00  1.88D+00  9.31D-01  8.48D-01
                    CP:  8.89D-01  1.35D+00  1.24D+00  1.46D+00  1.54D+00
                    CP:  1.74D+00  1.24D+00
 E= -3010.54706902505     Delta-E=       -0.000000009027 Rises=F Damp=F
 DIIS: error= 7.30D-07 at cycle  13 NSaved=  13.
 NSaved=13 IEnMin=13 EnMin= -3010.54706902505     IErMin=13 ErrMin= 7.30D-07
 ErrMax= 7.30D-07  0.00D+00 EMaxC= 1.00D-01 BMatC= 2.78D-10 BMatP= 2.51D-09
 IDIUse=1 WtCom= 1.00D+00 WtEn= 0.00D+00
 Coeff-Com:  0.904D-05-0.118D-04-0.116D-04-0.153D-03-0.883D-03-0.186D-02
 Coeff-Com: -0.725D-03 0.737D-02 0.296D-01-0.269D-02-0.201D+00-0.302D-01
 Coeff-Com:  0.120D+01
 Coeff:      0.904D-05-0.118D-04-0.116D-04-0.153D-03-0.883D-03-0.186D-02
 Coeff:     -0.725D-03 0.737D-02 0.296D-01-0.269D-02-0.201D+00-0.302D-01
 Coeff:      0.120D+01
 Gap=     0.251 Goal=   None    Shift=    0.000
 RMSDP=7.94D-07 MaxDP=2.27D-05 DE=-9.03D-09 OVMax= 4.90D-05

 Cycle  14  Pass 1  IDiag  1:
 RMSU=  3.41D-07    CP:  4.78D-01  2.77D+00  1.88D+00  9.31D-01  8.48D-01
                    CP:  8.90D-01  1.34D+00  1.24D+00  1.47D+00  1.56D+00
                    CP:  1.84D+00  1.45D+00  1.43D+00
 E= -3010.54706902704     Delta-E=       -0.000000001990 Rises=F Damp=F
 DIIS: error= 4.86D-07 at cycle  14 NSaved=  14.
 NSaved=14 IEnMin=14 EnMin= -3010.54706902704     IErMin=14 ErrMin= 4.86D-07
 ErrMax= 4.86D-07  0.00D+00 EMaxC= 1.00D-01 BMatC= 5.81D-11 BMatP= 2.78D-10
 IDIUse=1 WtCom= 1.00D+00 WtEn= 0.00D+00
 Coeff-Com:  0.278D-04-0.367D-04-0.187D-05-0.103D-03-0.357D-03-0.106D-02
 Coeff-Com: -0.123D-02 0.320D-02 0.242D-01 0.254D-01-0.146D+00-0.137D+00
 Coeff-Com:  0.386D+00 0.847D+00
 Coeff:      0.278D-04-0.367D-04-0.187D-05-0.103D-03-0.357D-03-0.106D-02
 Coeff:     -0.123D-02 0.320D-02 0.242D-01 0.254D-01-0.146D+00-0.137D+00
 Coeff:      0.386D+00 0.847D+00
 Gap=     0.251 Goal=   None    Shift=    0.000
 RMSDP=4.36D-07 MaxDP=2.19D-05 DE=-1.99D-09 OVMax= 2.06D-05

 Cycle  15  Pass 1  IDiag  1:
 RMSU=  1.21D-07    CP:  4.78D-01  2.77D+00  1.88D+00  9.31D-01  8.48D-01
                    CP:  8.90D-01  1.34D+00  1.24D+00  1.47D+00  1.57D+00
                    CP:  1.89D+00  1.52D+00  1.65D+00  1.21D+00
 E= -3010.54706902743     Delta-E=       -0.000000000388 Rises=F Damp=F
 DIIS: error= 1.89D-07 at cycle  15 NSaved=  15.
 NSaved=15 IEnMin=15 EnMin= -3010.54706902743     IErMin=15 ErrMin= 1.89D-07
 ErrMax= 1.89D-07  0.00D+00 EMaxC= 1.00D-01 BMatC= 1.57D-11 BMatP= 5.81D-11
 IDIUse=1 WtCom= 1.00D+00 WtEn= 0.00D+00
 Coeff-Com:  0.126D-04-0.168D-04 0.238D-05 0.212D-05 0.130D-03 0.176D-03
 Coeff-Com: -0.179D-03-0.974D-03 0.309D-03 0.801D-02 0.465D-02-0.442D-01
 Coeff-Com: -0.180D+00 0.340D+00 0.872D+00
 Coeff:      0.126D-04-0.168D-04 0.238D-05 0.212D-05 0.130D-03 0.176D-03
 Coeff:     -0.179D-03-0.974D-03 0.309D-03 0.801D-02 0.465D-02-0.442D-01
 Coeff:     -0.180D+00 0.340D+00 0.872D+00
 Gap=     0.251 Goal=   None    Shift=    0.000
 RMSDP=2.16D-07 MaxDP=7.58D-06 DE=-3.88D-10 OVMax= 1.02D-05

 Cycle  16  Pass 1  IDiag  1:
 RMSU=  5.73D-08    CP:  4.78D-01  2.77D+00  1.88D+00  9.31D-01  8.48D-01
                    CP:  8.90D-01  1.34D+00  1.24D+00  1.48D+00  1.57D+00
                    CP:  1.91D+00  1.53D+00  1.79D+00  1.45D+00  1.27D+00
 E= -3010.54706902750     Delta-E=       -0.000000000069 Rises=F Damp=F
 DIIS: error= 7.48D-08 at cycle  16 NSaved=  16.
 NSaved=16 IEnMin=16 EnMin= -3010.54706902750     IErMin=16 ErrMin= 7.48D-08
 ErrMax= 7.48D-08  0.00D+00 EMaxC= 1.00D-01 BMatC= 1.38D-12 BMatP= 1.57D-11
 IDIUse=1 WtCom= 1.00D+00 WtEn= 0.00D+00
 Coeff-Com: -0.248D-06 0.288D-06 0.114D-05 0.135D-04 0.758D-04 0.183D-03
 Coeff-Com:  0.928D-04-0.734D-03-0.306D-02-0.823D-03 0.212D-01 0.796D-02
 Coeff-Com: -0.982D-01-0.226D-01 0.181D+00 0.915D+00
 Coeff:     -0.248D-06 0.288D-06 0.114D-05 0.135D-04 0.758D-04 0.183D-03
 Coeff:      0.928D-04-0.734D-03-0.306D-02-0.823D-03 0.212D-01 0.796D-02
 Coeff:     -0.982D-01-0.226D-01 0.181D+00 0.915D+00
 Gap=     0.251 Goal=   None    Shift=    0.000
 RMSDP=6.11D-08 MaxDP=2.35D-06 DE=-6.91D-11 OVMax= 3.24D-06

 Cycle  17  Pass 1  IDiag  1:
 RMSU=  1.55D-08    CP:  4.78D-01  2.77D+00  1.88D+00  9.31D-01  8.48D-01
                    CP:  8.90D-01  1.34D+00  1.24D+00  1.48D+00  1.57D+00
                    CP:  1.91D+00  1.52D+00  1.82D+00  1.52D+00  1.51D+00
                    CP:  1.24D+00
 E= -3010.54706902747     Delta-E=        0.000000000027 Rises=F Damp=F
 DIIS: error= 2.74D-08 at cycle  17 NSaved=  17.
 NSaved=17 IEnMin=16 EnMin= -3010.54706902750     IErMin=17 ErrMin= 2.74D-08
 ErrMax= 2.74D-08  0.00D+00 EMaxC= 1.00D-01 BMatC= 2.59D-13 BMatP= 1.38D-12
 IDIUse=1 WtCom= 1.00D+00 WtEn= 0.00D+00
 Coeff-Com: -0.929D-06 0.124D-05 0.344D-07 0.135D-06-0.130D-04-0.636D-05
 Coeff-Com:  0.488D-04 0.842D-04-0.442D-03-0.126D-02 0.190D-02 0.804D-02
 Coeff-Com:  0.104D-01-0.591D-01-0.122D+00 0.205D+00 0.957D+00
 Coeff:     -0.929D-06 0.124D-05 0.344D-07 0.135D-06-0.130D-04-0.636D-05
 Coeff:      0.488D-04 0.842D-04-0.442D-03-0.126D-02 0.190D-02 0.804D-02
 Coeff:      0.104D-01-0.591D-01-0.122D+00 0.205D+00 0.957D+00
 Gap=     0.251 Goal=   None    Shift=    0.000
 RMSDP=3.38D-08 MaxDP=1.40D-06 DE= 2.73D-11 OVMax= 1.56D-06

 Cycle  18  Pass 1  IDiag  1:
 RMSU=  7.26D-09    CP:  4.78D-01  2.77D+00  1.88D+00  9.31D-01  8.48D-01
                    CP:  8.90D-01  1.34D+00  1.24D+00  1.48D+00  1.57D+00
                    CP:  1.91D+00  1.52D+00  1.84D+00  1.54D+00  1.58D+00
                    CP:  1.49D+00  1.41D+00
 E= -3010.54706902747     Delta-E=       -0.000000000004 Rises=F Damp=F
 DIIS: error= 1.09D-08 at cycle  18 NSaved=  18.
 NSaved=18 IEnMin=16 EnMin= -3010.54706902750     IErMin=18 ErrMin= 1.09D-08
 ErrMax= 1.09D-08  0.00D+00 EMaxC= 1.00D-01 BMatC= 5.58D-14 BMatP= 2.59D-13
 IDIUse=1 WtCom= 1.00D+00 WtEn= 0.00D+00
 Coeff-Com:  0.126D-06-0.165D-06-0.122D-06-0.254D-05-0.169D-04-0.330D-04
 Coeff-Com:  0.439D-06 0.153D-03 0.376D-03-0.353D-03-0.299D-02 0.139D-02
 Coeff-Com:  0.224D-01-0.131D-01-0.687D-01-0.115D+00 0.260D+00 0.915D+00
 Coeff:      0.126D-06-0.165D-06-0.122D-06-0.254D-05-0.169D-04-0.330D-04
 Coeff:      0.439D-06 0.153D-03 0.376D-03-0.353D-03-0.299D-02 0.139D-02
 Coeff:      0.224D-01-0.131D-01-0.687D-01-0.115D+00 0.260D+00 0.915D+00
 Gap=     0.251 Goal=   None    Shift=    0.000
 RMSDP=1.33D-08 MaxDP=6.86D-07 DE=-3.64D-12 OVMax= 4.85D-07

 Cycle  19  Pass 1  IDiag  1:
 RMSU=  2.69D-09    CP:  4.78D-01  2.77D+00  1.88D+00  9.31D-01  8.48D-01
                    CP:  8.90D-01  1.34D+00  1.24D+00  1.48D+00  1.57D+00
                    CP:  1.92D+00  1.52D+00  1.85D+00  1.54D+00  1.61D+00
                    CP:  1.57D+00  1.71D+00  1.40D+00
 E= -3010.54706902747     Delta-E=        0.000000000001 Rises=F Damp=F
 DIIS: error= 4.72D-09 at cycle  19 NSaved=  19.
 NSaved=19 IEnMin=16 EnMin= -3010.54706902750     IErMin=19 ErrMin= 4.72D-09
 ErrMax= 4.72D-09  0.00D+00 EMaxC= 1.00D-01 BMatC= 5.71D-15 BMatP= 5.58D-14
 IDIUse=1 WtCom= 1.00D+00 WtEn= 0.00D+00
 Large coefficients: NSaved= 19 BigCof=    0.00 CofMax=   10.00 Det=-1.83D-14
 Inversion failed.  Reducing to 18 matrices.
 Large coefficients: NSaved= 18 BigCof=    0.00 CofMax=   10.00 Det=-1.83D-14
 Inversion failed.  Reducing to 17 matrices.
 Coeff-Com: -0.536D-07-0.747D-07 0.841D-06-0.131D-05-0.931D-05-0.946D-05
 Coeff-Com:  0.105D-03 0.189D-03-0.504D-03-0.102D-02 0.482D-03 0.437D-02
 Coeff-Com:  0.101D-01-0.284D-01-0.104D+00 0.580D-01 0.106D+01
 Coeff:     -0.536D-07-0.747D-07 0.841D-06-0.131D-05-0.931D-05-0.946D-05
 Coeff:      0.105D-03 0.189D-03-0.504D-03-0.102D-02 0.482D-03 0.437D-02
 Coeff:      0.101D-01-0.284D-01-0.104D+00 0.580D-01 0.106D+01
 Gap=     0.251 Goal=   None    Shift=    0.000
 RMSDP=4.88D-09 MaxDP=2.35D-07 DE= 9.09D-13 OVMax= 2.38D-07

 SCF Done:  E(RwB97XD) =  -3010.54706903     A.U. after   19 cycles
            NFock= 19  Conv=0.49D-08     -V/T= 2.0016
 KE= 3.005843293069D+03 PE=-8.634152330155D+03 EE= 1.876368016220D+03
 Leave Link  502 at Wed May  1 14:46:24 2024, MaxMem=  1207959552 cpu:            1058.1 elap:            1058.1
 (Enter /software/gaussian/g16-c01/sse4/g16/l601.exe)
 Copying SCF densities to generalized density rwf, IOpCl= 0 IROHF=0.

 **********************************************************************

            Population analysis using the SCF Density.

 **********************************************************************

 Alpha  occ. eigenvalues -- -483.31933 -62.86939 -56.66648 -56.66056 -56.66050
 Alpha  occ. eigenvalues --  -19.51645 -19.51565 -14.90970 -10.59847 -10.59219
 Alpha  occ. eigenvalues --  -10.59193 -10.59095 -10.57780 -10.53913  -9.02732
 Alpha  occ. eigenvalues --   -6.85451  -6.83517  -6.83492  -2.95345  -2.94835
 Alpha  occ. eigenvalues --   -2.94814  -2.93267  -2.93267  -1.55379  -1.38423
 Alpha  occ. eigenvalues --   -1.24477  -1.16104  -1.13275  -1.05649  -1.03897
 Alpha  occ. eigenvalues --   -0.96957  -0.93112  -0.89108  -0.85368  -0.83992
 Alpha  occ. eigenvalues --   -0.83620  -0.80440  -0.79542  -0.77394  -0.73773
 Alpha  occ. eigenvalues --   -0.70451  -0.68936  -0.65293  -0.62914  -0.62488
 Alpha  occ. eigenvalues --   -0.61593  -0.61220  -0.56785  -0.56022
 Alpha virt. eigenvalues --   -0.30898  -0.25814  -0.16946  -0.15410  -0.11260
 Alpha virt. eigenvalues --   -0.08599  -0.08135  -0.06822  -0.06657  -0.04958
 Alpha virt. eigenvalues --   -0.03605  -0.03373  -0.02964  -0.01386  -0.01061
 Alpha virt. eigenvalues --   -0.00686  -0.00351   0.00518   0.00933   0.01583
 Alpha virt. eigenvalues --    0.02712   0.03118   0.03426   0.03711   0.03935
 Alpha virt. eigenvalues --    0.04682   0.05260   0.05911   0.07189   0.07788
 Alpha virt. eigenvalues --    0.08023   0.08460   0.08752   0.09438   0.10117
 Alpha virt. eigenvalues --    0.10277   0.10557   0.11716   0.12868   0.13727
 Alpha virt. eigenvalues --    0.14413   0.14722   0.15531   0.15859   0.16661
 Alpha virt. eigenvalues --    0.18089   0.18529   0.18960   0.19499   0.19839
 Alpha virt. eigenvalues --    0.21033   0.21693   0.24691   0.26277   0.28462
 Alpha virt. eigenvalues --    0.29163   0.30524   0.31783   0.32422   0.33567
 Alpha virt. eigenvalues --    0.35335   0.36210   0.37490   0.38748   0.40598
 Alpha virt. eigenvalues --    0.40846   0.41505   0.41985   0.43796   0.44912
 Alpha virt. eigenvalues --    0.45664   0.48727   0.49069   0.49847   0.51637
 Alpha virt. eigenvalues --    0.52197   0.53289   0.55026   0.55705   0.57206
 Alpha virt. eigenvalues --    0.60318   0.61277   0.63277   0.65914   0.66666
 Alpha virt. eigenvalues --    0.67844   0.69199   0.71746   0.72343   0.72900
 Alpha virt. eigenvalues --    0.73434   0.75527   0.77101   0.80756   0.82049
 Alpha virt. eigenvalues --    0.84439   0.84968   0.89278   0.90544   0.93297
 Alpha virt. eigenvalues --    0.94241   0.98162   1.01496   1.02534   1.04375
 Alpha virt. eigenvalues --    1.04995   1.06454   1.07348   1.07517   1.09601
 Alpha virt. eigenvalues --    1.16219   1.20985   1.23568   1.31307   1.34588
 Alpha virt. eigenvalues --    1.35161   1.36230   1.43573   1.51905   1.53432
 Alpha virt. eigenvalues --    1.54613   1.54900   1.58653   1.59821   1.64703
 Alpha virt. eigenvalues --    1.66313   1.68068   1.70167   1.72062   1.77104
 Alpha virt. eigenvalues --    1.79965   1.83468   1.84763   1.92128   1.94224
 Alpha virt. eigenvalues --    1.95865   1.99120   2.01191   2.05520   2.06449
 Alpha virt. eigenvalues --    2.07925   2.13031   2.17879   2.19744   2.27982
 Alpha virt. eigenvalues --    2.34071   2.37674   2.40454   2.41739   2.50552
 Alpha virt. eigenvalues --    2.55138   2.60852   2.63566   2.65206   2.67311
 Alpha virt. eigenvalues --    2.68520   2.71253   2.74609   2.75432   2.80126
 Alpha virt. eigenvalues --    2.91851   2.94485   2.95320   3.03994   3.06308
 Alpha virt. eigenvalues --    3.10283   3.12842   3.17245   3.18957   3.21367
 Alpha virt. eigenvalues --    3.22342   3.35274   3.46066   3.47887   3.49962
 Alpha virt. eigenvalues --    3.53699   3.64541   3.68404   3.80360   3.85282
 Alpha virt. eigenvalues --    4.08336   4.08559   4.15921   4.21202   4.38346
 Alpha virt. eigenvalues --    4.41976   4.54349   4.56272   4.87107   4.89717
 Alpha virt. eigenvalues --    4.98393   5.02559   5.57065   6.09744   6.64027
 Alpha virt. eigenvalues --    7.47029   7.48590   7.58308  23.19651  23.59531
 Alpha virt. eigenvalues --   23.68546  23.77730  23.94337  23.99460  35.27002
 Alpha virt. eigenvalues --   47.90511  49.79751  49.88561 289.79819 289.81485
 Alpha virt. eigenvalues --  289.939131020.90902
          Condensed to atoms (all electrons):
               1          2          3          4          5          6
     1  C    8.447604  -2.347880   0.573062  -1.409444  -0.800050   0.300901
     2  C   -2.347880  13.252941  -2.340482  -2.714228   1.185206  -0.015345
     3  C    0.573062  -2.340482  12.853697  -2.583712  -1.397262   0.017294
     4  C   -1.409444  -2.714228  -2.583712  13.491436   1.245920   0.010201
     5  C   -0.800050   1.185206  -1.397262   1.245920   7.408454   0.028868
     6  H    0.300901  -0.015345   0.017294   0.010201   0.028868   0.314067
     7  H    0.056438   0.250548   0.082544  -0.033860  -0.021734  -0.001835
     8  H    0.000585  -0.011944   0.058546   0.274566  -0.004825   0.000002
     9  H    0.019914  -0.002118  -0.001075  -0.004094   0.322490  -0.001752
    10  N   -0.096795   0.319503  -0.928972   0.259432   0.046691  -0.000478
    11  O    0.023189  -0.019182  -0.253839  -0.045321  -0.051497  -0.000016
    12  O    0.252852  -0.045678  -0.277178  -0.030586  -0.043510  -0.000035
    13  C    1.517205  -2.047700   0.869311  -2.740782  -1.961679  -0.009416
    14  H    0.002541  -0.017206   0.011956  -0.047384  -0.073722  -0.000060
    15  Br   0.065496  -0.000999   0.059395   0.102990   0.073904  -0.000383
               7          8          9         10         11         12
     1  C    0.056438   0.000585   0.019914  -0.096795   0.023189   0.252852
     2  C    0.250548  -0.011944  -0.002118   0.319503  -0.019182  -0.045678
     3  C    0.082544   0.058546  -0.001075  -0.928972  -0.253839  -0.277178
     4  C   -0.033860   0.274566  -0.004094   0.259432  -0.045321  -0.030586
     5  C   -0.021734  -0.004825   0.322490   0.046691  -0.051497  -0.043510
     6  H   -0.001835   0.000002  -0.001752  -0.000478  -0.000016  -0.000035
     7  H    0.322241   0.000018   0.000017  -0.027550  -0.001556   0.016465
     8  H    0.000018   0.316463   0.000126  -0.023491   0.017096  -0.000941
     9  H    0.000017   0.000126   0.281717   0.000450   0.000002   0.000005
    10  N   -0.027550  -0.023491   0.000450   7.181354   0.261340   0.229344
    11  O   -0.001556   0.017096   0.000002   0.261340   7.858692  -0.017160
    12  O    0.016465  -0.000941   0.000005   0.229344  -0.017160   7.892292
    13  C    0.013467   0.023126  -0.013110  -0.117067   0.248331   0.046390
    14  H   -0.000013  -0.005078  -0.004405  -0.001272  -0.000150  -0.000070
    15  Br  -0.000234  -0.001096   0.000996   0.001194   0.000976   0.001934
              13         14         15
     1  C    1.517205   0.002541   0.065496
     2  C   -2.047700  -0.017206  -0.000999
     3  C    0.869311   0.011956   0.059395
     4  C   -2.740782  -0.047384   0.102990
     5  C   -1.961679  -0.073722   0.073904
     6  H   -0.009416  -0.000060  -0.000383
     7  H    0.013467  -0.000013  -0.000234
     8  H    0.023126  -0.005078  -0.001096
     9  H   -0.013110  -0.004405   0.000996
    10  N   -0.117067  -0.001272   0.001194
    11  O    0.248331  -0.000150   0.000976
    12  O    0.046390  -0.000070   0.001934
    13  C   10.312587   0.423094  -0.114987
    14  H    0.423094   0.325338  -0.036809
    15  Br  -0.114987  -0.036809  34.607369
 Mulliken charges:
               1
     1  C   -0.605618
     2  C    0.554563
     3  C   -0.743285
     4  C    0.224867
     5  C    0.042743
     6  H    0.357986
     7  H    0.345044
     8  H    0.356847
     9  H    0.400838
    10  N   -0.103683
    11  O   -0.020905
    12  O   -0.024123
    13  C   -0.448770
    14  H    0.423240
    15  Br   0.240255
 Sum of Mulliken charges =   1.00000
 Mulliken charges with hydrogens summed into heavy atoms:
               1
     1  C   -0.247632
     2  C    0.899607
     3  C   -0.743285
     4  C    0.581714
     5  C    0.443582
    10  N   -0.103683
    11  O   -0.020905
    12  O   -0.024123
    13  C   -0.025530
    15  Br   0.240255
 Electronic spatial extent (au):  <R**2>=           2803.7281
 Charge=              1.0000 electrons
 Dipole moment (field-independent basis, Debye):
    X=             -4.3263    Y=             -0.9900    Z=             -0.3110  Tot=              4.4490
 Quadrupole moment (field-independent basis, Debye-Ang):
   XX=            -79.6330   YY=            -51.6358   ZZ=            -61.7881
   XY=              1.8311   XZ=              2.0060   YZ=              2.4806
 Traceless Quadrupole moment (field-independent basis, Debye-Ang):
   XX=            -15.2807   YY=             12.7165   ZZ=              2.5642
   XY=              1.8311   XZ=              2.0060   YZ=              2.4806
 Octapole moment (field-independent basis, Debye-Ang**2):
  XXX=           -348.0623  YYY=             84.7346  ZZZ=             75.1153  XYY=            -84.3675
  XXY=             28.4505  XXZ=             31.9782  XZZ=            -82.0521  YZZ=             14.1605
  YYZ=             23.5250  XYZ=             -5.0301
 Hexadecapole moment (field-independent basis, Debye-Ang**3):
 XXXX=          -2489.4543 YYYY=           -670.3719 ZZZZ=           -341.0382 XXXY=            -68.0627
 XXXZ=            -15.7144 YYYX=            -55.8912 YYYZ=           -149.9218 ZZZX=            -13.5553
 ZZZY=           -130.3644 XXYY=           -472.1409 XXZZ=           -373.5325 YYZZ=           -158.5761
 XXYZ=            -52.4287 YYXZ=              1.9236 ZZXY=             -5.1290
 N-N= 7.413939518399D+02 E-N=-8.634152329056D+03  KE= 3.005843293069D+03
 No NMR shielding tensors so no spin-rotation constants.
 Leave Link  601 at Wed May  1 14:46:31 2024, MaxMem=  1207959552 cpu:               7.2 elap:               7.2
 (Enter /software/gaussian/g16-c01/sse4/g16/l9999.exe)
 Unable to Open any file for archive entry.
 1\1\GINC-BHX0023\SP\RwB97XD\6-311+G(d)\C6H5Br1N1O2(1+)\BWEIGHT\01-May-
 2024\0\\#P wB97XD/6-311+G* NoSymm #P Field=X+116\\TitleMe\\1,1\C,0,0.0
 295,1.3397,0.0682\C,0,1.4348,1.2867,0.0064\C,0,2.1118,0.0511,-0.0054\C
 ,0,1.4451,-1.1372,0.0312\C,0,-0.6879,0.1682,0.11\H,0,-0.4713,2.2984,0.
 0781\H,0,2.0273,2.1965,-0.0322\H,0,1.9897,-2.0764,0.0232\H,0,-1.7716,0
 .1804,0.1582\N,0,3.5864,0.051,-0.0675\O,0,4.1471,-1.0597,-0.0881\O,0,4
 .145,1.1639,-0.0901\C,0,-0.0236,-1.1458,0.0835\H,0,-0.4367,-1.8725,0.7
 889\Br,0,-0.5359,-1.8697,-1.7408\\Version=ES64L-G16RevC.01\HF=-3010.54
 7069\RMSD=4.881e-09\Dipole=-3.6086323,0.7585898,1.0238224\Quadrupole=-
 11.3608241,9.4543735,1.9064506,1.3614014,1.4913945,1.8442811\PG=C01 [X
 (C6H5Br1N1O2)]\\@
 The archive entry for this job was punched.


 Life may have no meaning.  Or even worse, it may have a
 meaning of which I disapprove.
                                 -- Ashleigh Brilliant
 Job cpu time:       0 days  0 hours 18 minutes 45.4 seconds.
 Elapsed time:       0 days  0 hours 18 minutes 45.5 seconds.
 File lengths (MBytes):  RWF=     40 Int=      0 D2E=      0 Chk=     32 Scr=      1
 Normal termination of Gaussian 16 at Wed May  1 14:46:32 2024.
