 Entering Gaussian System, Link 0=g16
 Initial command:
 /software/gaussian/g16-c01/sse4/g16/l1.exe "/local_scratch/24657487/Gau-27135.inp" -scrdir="/local_scratch/24657487/"
 Entering Link 1 = /software/gaussian/g16-c01/sse4/g16/l1.exe PID=     27137.
  
 Copyright (c) 1988-2019, Gaussian, Inc.  All Rights Reserved.
  
 This is part of the Gaussian(R) 16 program.  It is based on
 the Gaussian(R) 09 system (copyright 2009, Gaussian, Inc.),
 the Gaussian(R) 03 system (copyright 2003, Gaussian, Inc.),
 the Gaussian(R) 98 system (copyright 1998, Gaussian, Inc.),
 the Gaussian(R) 94 system (copyright 1995, Gaussian, Inc.),
 the Gaussian 92(TM) system (copyright 1992, Gaussian, Inc.),
 the Gaussian 90(TM) system (copyright 1990, Gaussian, Inc.),
 the Gaussian 88(TM) system (copyright 1988, Gaussian, Inc.),
 the Gaussian 86(TM) system (copyright 1986, Carnegie Mellon
 University), and the Gaussian 82(TM) system (copyright 1983,
 Carnegie Mellon University). Gaussian is a federally registered
 trademark of Gaussian, Inc.
  
 This software contains proprietary and confidential information,
 including trade secrets, belonging to Gaussian, Inc.
  
 This software is provided under written license and may be
 used, copied, transmitted, or stored only in accord with that
 written license.
  
 The following legend is applicable only to US Government
 contracts under FAR:
  
                    RESTRICTED RIGHTS LEGEND
  
 Use, reproduction and disclosure by the US Government is
 subject to restrictions as set forth in subparagraphs (a)
 and (c) of the Commercial Computer Software - Restricted
 Rights clause in FAR 52.227-19.
  
 Gaussian, Inc.
 340 Quinnipiac St., Bldg. 40, Wallingford CT 06492
  
  
 ---------------------------------------------------------------
 Warning -- This program may not be used in any manner that
 competes with the business of Gaussian, Inc. or will provide
 assistance to any competitor of Gaussian, Inc.  The licensee
 of this program is prohibited from giving any competitor of
 Gaussian, Inc. access to this program.  By using this program,
 the user acknowledges that Gaussian, Inc. is engaged in the
 business of creating and licensing software in the field of
 computational chemistry and represents and warrants to the
 licensee that it is not a competitor of Gaussian, Inc. and that
 it will not use this program in any manner prohibited above.
 ---------------------------------------------------------------
  

 Cite this work as:
 Gaussian 16, Revision C.01,
 M. J. Frisch, G. W. Trucks, H. B. Schlegel, G. E. Scuseria, 
 M. A. Robb, J. R. Cheeseman, G. Scalmani, V. Barone, 
 G. A. Petersson, H. Nakatsuji, X. Li, M. Caricato, A. V. Marenich, 
 J. Bloino, B. G. Janesko, R. Gomperts, B. Mennucci, H. P. Hratchian, 
 J. V. Ortiz, A. F. Izmaylov, J. L. Sonnenberg, D. Williams-Young, 
 F. Ding, F. Lipparini, F. Egidi, J. Goings, B. Peng, A. Petrone, 
 T. Henderson, D. Ranasinghe, V. G. Zakrzewski, J. Gao, N. Rega, 
 G. Zheng, W. Liang, M. Hada, M. Ehara, K. Toyota, R. Fukuda, 
 J. Hasegawa, M. Ishida, T. Nakajima, Y. Honda, O. Kitao, H. Nakai, 
 T. Vreven, K. Throssell, J. A. Montgomery, Jr., J. E. Peralta, 
 F. Ogliaro, M. J. Bearpark, J. J. Heyd, E. N. Brothers, K. N. Kudin, 
 V. N. Staroverov, T. A. Keith, R. Kobayashi, J. Normand, 
 K. Raghavachari, A. P. Rendell, J. C. Burant, S. S. Iyengar, 
 J. Tomasi, M. Cossi, J. M. Millam, M. Klene, C. Adamo, R. Cammi, 
 J. W. Ochterski, R. L. Martin, K. Morokuma, O. Farkas, 
 J. B. Foresman, and D. J. Fox, Gaussian, Inc., Wallingford CT, 2019.
 
 ******************************************
 Gaussian 16:  ES64L-G16RevC.01  3-Jul-2019
                 1-May-2024 
 ******************************************
 %chk=geometry.chk
 %mem=9GB
 %nprocshared=12
 Will use up to   12 processors via shared memory.
 ----------------------------------------
 #P wB97XD/6-311+G* NoSymm #P Field=Y-136
 ----------------------------------------
 1/38=1,172=1/1;
 2/12=2,15=1,17=6,18=5,40=1/2;
 3/5=4,6=6,7=11,11=2,14=2,15=-136,25=1,30=1,74=-58/1,2,3;
 4//1;
 5/5=2,38=5/2;
 6/7=2,8=2,9=2,10=2,28=1/1;
 99/5=1,9=1/99;
 Leave Link    1 at Wed May  1 14:45:56 2024, MaxMem=  1207959552 cpu:               1.3 elap:               1.3
 (Enter /software/gaussian/g16-c01/sse4/g16/l101.exe)
 -------
 TitleMe
 -------
 Symbolic Z-matrix:
 Charge =  1 Multiplicity = 1
 C                     0.0295    1.3397    0.0682 
 C                     1.4348    1.2867    0.0064 
 C                     2.1118    0.0511   -0.0054 
 C                     1.4451   -1.1372    0.0312 
 C                    -0.6879    0.1682    0.11 
 H                    -0.4713    2.2984    0.0781 
 H                     2.0273    2.1965   -0.0322 
 H                     1.9897   -2.0764    0.0232 
 H                    -1.7716    0.1804    0.1582 
 N                     3.5864    0.051    -0.0675 
 O                     4.1471   -1.0597   -0.0881 
 O                     4.145     1.1639   -0.0901 
 C                    -0.0236   -1.1458    0.0835 
 H                    -0.4367   -1.8725    0.7889 
 Br                   -0.5359   -1.8697   -1.7408 
 
 ITRead=  0  0  0  0  0  0  0  0  0  0  0  0  0  0  0
 MicOpt= -1 -1 -1 -1 -1 -1 -1 -1 -1 -1 -1 -1 -1 -1 -1
 NAtoms=     15 NQM=       15 NQMF=       0 NMMI=      0 NMMIF=      0
                NMic=       0 NMicF=      0.
                    Isotopes and Nuclear Properties:
 (Nuclear quadrupole moments (NQMom) in fm**2, nuclear magnetic moments (NMagM)
  in nuclear magnetons)

  Atom         1           2           3           4           5           6           7           8           9          10
 IAtWgt=          12          12          12          12          12           1           1           1           1          14
 AtmWgt=  12.0000000  12.0000000  12.0000000  12.0000000  12.0000000   1.0078250   1.0078250   1.0078250   1.0078250  14.0030740
 NucSpn=           0           0           0           0           0           1           1           1           1           2
 AtZEff=  -0.0000000  -0.0000000  -0.0000000  -0.0000000  -0.0000000  -0.0000000  -0.0000000  -0.0000000  -0.0000000  -0.0000000
 NQMom=    0.0000000   0.0000000   0.0000000   0.0000000   0.0000000   0.0000000   0.0000000   0.0000000   0.0000000   2.0440000
 NMagM=    0.0000000   0.0000000   0.0000000   0.0000000   0.0000000   2.7928460   2.7928460   2.7928460   2.7928460   0.4037610
 AtZNuc=   6.0000000   6.0000000   6.0000000   6.0000000   6.0000000   1.0000000   1.0000000   1.0000000   1.0000000   7.0000000

  Atom        11          12          13          14          15
 IAtWgt=          16          16          12           1          79
 AtmWgt=  15.9949146  15.9949146  12.0000000   1.0078250  78.9183361
 NucSpn=           0           0           0           1           3
 AtZEff=  -0.0000000  -0.0000000  -0.0000000  -0.0000000  -0.0000000
 NQMom=    0.0000000   0.0000000   0.0000000   0.0000000  31.3000000
 NMagM=    0.0000000   0.0000000   0.0000000   2.7928460   2.1063990
 AtZNuc=   8.0000000   8.0000000   6.0000000   1.0000000  35.0000000
 Leave Link  101 at Wed May  1 14:45:57 2024, MaxMem=  1207959552 cpu:               1.4 elap:               1.4
 (Enter /software/gaussian/g16-c01/sse4/g16/l202.exe)
                          Input orientation:                          
 ---------------------------------------------------------------------
 Center     Atomic      Atomic             Coordinates (Angstroms)
 Number     Number       Type             X           Y           Z
 ---------------------------------------------------------------------
      1          6           0        0.029500    1.339700    0.068200
      2          6           0        1.434800    1.286700    0.006400
      3          6           0        2.111800    0.051100   -0.005400
      4          6           0        1.445100   -1.137200    0.031200
      5          6           0       -0.687900    0.168200    0.110000
      6          1           0       -0.471300    2.298400    0.078100
      7          1           0        2.027300    2.196500   -0.032200
      8          1           0        1.989700   -2.076400    0.023200
      9          1           0       -1.771600    0.180400    0.158200
     10          7           0        3.586400    0.051000   -0.067500
     11          8           0        4.147100   -1.059700   -0.088100
     12          8           0        4.145000    1.163900   -0.090100
     13          6           0       -0.023600   -1.145800    0.083500
     14          1           0       -0.436700   -1.872500    0.788900
     15         35           0       -0.535900   -1.869700   -1.740800
 ---------------------------------------------------------------------
                    Distance matrix (angstroms):
                    1          2          3          4          5
     1  C    0.000000
     2  C    1.407656   0.000000
     3  C    2.449874   1.408963   0.000000
     4  C    2.853126   2.424049   1.363043   0.000000
     5  C    1.374344   2.401589   2.804523   2.501993   0.000000
     6  H    1.081667   2.159142   3.424870   3.934226   2.141421
     7  H    2.176095   1.086408   2.147231   3.384750   3.392128
     8  H    3.938800   3.408612   2.131193   1.085702   3.495040
     9  H    2.143837   3.395283   3.888995   3.478413   1.084840
    10  N    3.785591   2.482297   1.475907   2.450862   4.279589
    11  O    4.768247   3.587631   2.320164   2.705743   4.992415
    12  O    4.122294   2.714696   2.319353   3.549540   4.938459
    13  C    2.486114   2.837240   2.449573   1.469656   1.472614
    14  H    3.324903   3.754379   3.290289   2.157764   2.165286
    15  Br   3.727252   4.110867   3.702891   2.756973   2.757100
                    6          7          8          9         10
     6  H    0.000000
     7  H    2.503108   0.000000
     8  H    5.019802   4.273425   0.000000
     9  H    2.486588   4.304945   4.388479   0.000000
    10  N    4.640790   2.652397   2.661486   5.364313   0.000000
    11  O    5.712624   3.885809   2.387560   6.052233   1.244373
    12  O    4.756638   2.356750   3.893289   6.002923   1.245428
    13  C    3.473180   3.923079   2.218790   2.195425   3.806210
    14  H    4.231175   4.827242   2.552506   2.528663   4.540772
    15  Br   4.548146   5.101303   3.087568   3.055498   4.845862
                   11         12         13         14         15
    11  O    0.000000
    12  O    2.223602   0.000000
    13  C    4.175117   4.768865   0.000000
    14  H    4.737193   5.566358   1.093770   0.000000
    15  Br   5.031700   5.817075   2.028436   2.531646   0.000000
 Symmetry turned off by external request.
 Stoichiometry    C6H5BrNO2(1+)
 Framework group  C1[X(C6H5BrNO2)]
 Deg. of freedom    39
 Full point group                 C1      NOp   1
 Rotational constants (GHZ):           1.8252210           0.5518633           0.4576002
 Leave Link  202 at Wed May  1 14:45:59 2024, MaxMem=  1207959552 cpu:               1.2 elap:               1.2
 (Enter /software/gaussian/g16-c01/sse4/g16/l301.exe)
 Standard basis: 6-311+G(d) (5D, 7F)
 Ernie: Thresh=  0.10000D-02 Tol=  0.10000D-05 Strict=F.
 The following finite field(s) will be applied:
 An electric field of              0.0000 -0.0136  0.0000
   261 basis functions,   443 primitive gaussians,   273 cartesian basis functions
    49 alpha electrons       49 beta electrons
       nuclear repulsion energy       739.2122215416 Hartrees.
 IExCor= 4639 DFT=T Ex+Corr=wB97XD ExCW=0 ScaHFX=  1.000000
 ScaDFX=  1.000000  1.000000  1.000000  1.000000 ScalE2=  1.000000  1.000000
 IRadAn=      5 IRanWt=     -1 IRanGd=            0 ICorTp=0 IEmpDi=121
 HFx  wShort=  0.000000 wLong=  0.200000 cFull=  0.222036 cShort=  0.000000 cLong=  0.777964
 DFx  wShort=  0.000000 wLong=  0.200000 cFull=  0.000000 cShort=  0.000000 cLong=  1.000000
 NAtoms=   15 NActive=   15 NUniq=   15 SFac= 1.00D+00 NAtFMM=   60 NAOKFM=F Big=F
 Integral buffers will be    131072 words long.
 Raffenetti 2 integral format.
 Two-electron integral symmetry is turned off.
 R6Disp:  Grimme-D2 Dispersion energy=       -0.0077368520 Hartrees.
 Nuclear repulsion after empirical dispersion term =      739.2044846896 Hartrees.
 Leave Link  301 at Wed May  1 14:46:00 2024, MaxMem=  1207959552 cpu:               1.0 elap:               1.0
 (Enter /software/gaussian/g16-c01/sse4/g16/l302.exe)
 NPDir=0 NMtPBC=     1 NCelOv=     1 NCel=       1 NClECP=     1 NCelD=      1
         NCelK=      1 NCelE2=     1 NClLst=     1 CellRange=     0.0.
 One-electron integrals computed using PRISM.
 NBasis=   261 RedAO= T EigKep=  2.35D-06  NBF=   261
 NBsUse=   261 1.00D-06 EigRej= -1.00D+00 NBFU=   261
 Precomputing XC quadrature grid using
 IXCGrd= 4 IRadAn=           5 IRanWt=          -1 IRanGd=           0 AccXCQ= 0.00D+00.
 Generated NRdTot=       0 NPtTot=           0 NUsed=           0 NTot=          32
 NSgBfM=   273   273   273   273   273 MxSgAt=    15 MxSgA2=    15.
 Leave Link  302 at Wed May  1 14:46:21 2024, MaxMem=  1207959552 cpu:              21.2 elap:              21.2
 (Enter /software/gaussian/g16-c01/sse4/g16/l303.exe)
 DipDrv:  MaxL=1.
 The nuclear repulsion energy is now       740.7502611575 hartrees.
 Leave Link  303 at Wed May  1 14:46:24 2024, MaxMem=  1207959552 cpu:               3.2 elap:               3.2
 (Enter /software/gaussian/g16-c01/sse4/g16/l401.exe)
 ExpMin= 3.50D-02 ExpMax= 4.40D+05 ExpMxC= 1.51D+04 IAcc=3 IRadAn=         5 AccDes= 0.00D+00
 Harris functional with IExCor= 4639 and IRadAn=       5 diagonalized for initial guess.
 HarFok:  IExCor= 4639 AccDes= 0.00D+00 IRadAn=         5 IDoV= 1 UseB2=F ITyADJ=14
 ICtDFT=  3500011 ScaDFX=  1.000000  1.000000  1.000000  1.000000
 FoFCou: FMM=F IPFlag=           0 FMFlag=      100000 FMFlg1=           0
         NFxFlg=           0 DoJE=T BraDBF=F KetDBF=T FulRan=T
         wScrn=  0.000000 ICntrl=       500 IOpCl=  0 I1Cent=   200000004 NGrid=           0
         NMat0=    1 NMatS0=      1 NMatT0=    0 NMatD0=    1 NMtDS0=    0 NMtDT0=    0
 Symmetry not used in FoFCou.
 Harris En= -2970.62518281088    
 JPrj=0 DoOrth=F DoCkMO=F.
 Leave Link  401 at Wed May  1 14:46:54 2024, MaxMem=  1207959552 cpu:              29.6 elap:              29.6
 (Enter /software/gaussian/g16-c01/sse4/g16/l502.exe)
 Two-electron integral symmetry not used.
 Closed shell SCF:
 Using DIIS extrapolation, IDIIS=  1040.
 NGot=  1207959552 LenX=  1207804877 LenY=  1207729907
 Requested convergence on RMS density matrix=1.00D-08 within 128 cycles.
 Requested convergence on MAX density matrix=1.00D-06.
 Requested convergence on             energy=1.00D-06.
 No special actions if energy rises.
 Fock matrices will be formed incrementally for  20 cycles.

 Cycle   1  Pass 1  IDiag  1:
 FoFJK:  IHMeth= 1 ICntrl=       0 DoSepK=T KAlg= 0 I1Cent=           0 FoldK=F
 IRaf=         1 NMat=       1 IRICut=       1 DoRegI=T DoRafI=F ISym2E= 0 IDoP0=0 IntGTp=1.
 FoFCou: FMM=F IPFlag=           0 FMFlag=      100000 FMFlg1=           0
         NFxFlg=           0 DoJE=T BraDBF=F KetDBF=F FulRan=T
         wScrn=  0.000000 ICntrl=       500 IOpCl=  0 I1Cent=           0 NGrid=           0
         NMat0=    1 NMatS0=      1 NMatT0=    0 NMatD0=    1 NMtDS0=    0 NMtDT0=    0
 Symmetry not used in FoFCou.
 E= -3009.66679657042    
 DIIS: error= 3.21D-01 at cycle   1 NSaved=   1.
 NSaved= 1 IEnMin= 1 EnMin= -3009.66679657042     IErMin= 1 ErrMin= 3.21D-01
 ErrMax= 3.21D-01  0.00D+00 EMaxC= 1.00D-01 BMatC= 1.19D+01 BMatP= 1.19D+01
 IDIUse=3 WtCom= 0.00D+00 WtEn= 1.00D+00
 Coeff-Com:  0.100D+01
 Coeff-En:   0.100D+01
 Coeff:      0.100D+01
 Gap=     0.423 Goal=   None    Shift=    0.000
 GapD=    0.423 DampG=2.000 DampE=0.250 DampFc=0.5000 IDamp=-1.
 Damping current iteration by 5.00D-01
 RMSDP=8.30D-02 MaxDP=9.62D+00              OVMax= 2.71D-01

 Cycle   2  Pass 1  IDiag  1:
 RMSU=  1.29D-02    CP:  6.94D-01
 E= -3010.08558440369     Delta-E=       -0.418787833279 Rises=F Damp=T
 DIIS: error= 1.42D-01 at cycle   2 NSaved=   2.
 NSaved= 2 IEnMin= 2 EnMin= -3010.08558440369     IErMin= 2 ErrMin= 1.42D-01
 ErrMax= 1.42D-01  0.00D+00 EMaxC= 1.00D-01 BMatC= 1.78D+00 BMatP= 1.19D+01
 IDIUse=3 WtCom= 0.00D+00 WtEn= 1.00D+00
 Coeff-Com: -0.415D+00 0.141D+01
 Coeff-En:   0.000D+00 0.100D+01
 Coeff:      0.000D+00 0.100D+01
 Gap=     0.327 Goal=   None    Shift=    0.000
 RMSDP=4.48D-02 MaxDP=4.19D+00 DE=-4.19D-01 OVMax= 2.20D-01

 Cycle   3  Pass 1  IDiag  1:
 RMSU=  1.17D-02    CP:  3.63D-01  1.55D+00
 E= -3010.45240087878     Delta-E=       -0.366816475085 Rises=F Damp=F
 DIIS: error= 3.42D-02 at cycle   3 NSaved=   3.
 NSaved= 3 IEnMin= 3 EnMin= -3010.45240087878     IErMin= 3 ErrMin= 3.42D-02
 ErrMax= 3.42D-02  0.00D+00 EMaxC= 1.00D-01 BMatC= 1.45D-01 BMatP= 1.78D+00
 IDIUse=3 WtCom= 6.58D-01 WtEn= 3.42D-01
 Coeff-Com: -0.533D-01 0.249D+00 0.804D+00
 Coeff-En:   0.000D+00 0.000D+00 0.100D+01
 Coeff:     -0.351D-01 0.164D+00 0.871D+00
 Gap=     0.339 Goal=   None    Shift=    0.000
 RMSDP=7.79D-03 MaxDP=3.84D-01 DE=-3.67D-01 OVMax= 2.93D-01

 Cycle   4  Pass 1  IDiag  1:
 RMSU=  6.03D-03    CP:  3.74D-01  1.76D+00  6.70D-01
 E= -3010.31965233588     Delta-E=        0.132748542901 Rises=F Damp=F
 DIIS: error= 6.33D-02 at cycle   4 NSaved=   4.
 NSaved= 4 IEnMin= 3 EnMin= -3010.45240087878     IErMin= 3 ErrMin= 3.42D-02
 ErrMax= 6.33D-02  0.00D+00 EMaxC= 1.00D-01 BMatC= 3.17D-01 BMatP= 1.45D-01
 IDIUse=2 WtCom= 0.00D+00 WtEn= 1.00D+00
 Coeff-En:   0.000D+00 0.000D+00 0.670D+00 0.330D+00
 Coeff:      0.000D+00 0.000D+00 0.670D+00 0.330D+00
 Gap=     0.248 Goal=   None    Shift=    0.000
 RMSDP=5.33D-03 MaxDP=3.11D-01 DE= 1.33D-01 OVMax= 1.70D-01

 Cycle   5  Pass 1  IDiag  1:
 RMSU=  1.28D-03    CP:  3.57D-01  1.69D+00  9.86D-01  5.50D-01
 E= -3010.53619339834     Delta-E=       -0.216541062466 Rises=F Damp=F
 DIIS: error= 8.45D-03 at cycle   5 NSaved=   5.
 NSaved= 5 IEnMin= 5 EnMin= -3010.53619339834     IErMin= 5 ErrMin= 8.45D-03
 ErrMax= 8.45D-03  0.00D+00 EMaxC= 1.00D-01 BMatC= 9.67D-03 BMatP= 1.45D-01
 IDIUse=3 WtCom= 9.16D-01 WtEn= 8.45D-02
 Coeff-Com:  0.205D-02 0.174D-02 0.231D+00 0.280D-01 0.737D+00
 Coeff-En:   0.000D+00 0.000D+00 0.279D-01 0.000D+00 0.972D+00
 Coeff:      0.188D-02 0.159D-02 0.214D+00 0.257D-01 0.757D+00
 Gap=     0.262 Goal=   None    Shift=    0.000
 RMSDP=1.68D-03 MaxDP=1.06D-01 DE=-2.17D-01 OVMax= 2.53D-02

 Cycle   6  Pass 1  IDiag  1:
 RMSU=  6.60D-04    CP:  3.47D-01  1.67D+00  1.03D+00  4.52D-01  9.66D-01
 E= -3010.54218945833     Delta-E=       -0.005996059982 Rises=F Damp=F
 DIIS: error= 1.79D-03 at cycle   6 NSaved=   6.
 NSaved= 6 IEnMin= 6 EnMin= -3010.54218945833     IErMin= 6 ErrMin= 1.79D-03
 ErrMax= 1.79D-03  0.00D+00 EMaxC= 1.00D-01 BMatC= 4.97D-04 BMatP= 9.67D-03
 IDIUse=3 WtCom= 9.82D-01 WtEn= 1.79D-02
 Coeff-Com: -0.252D-02 0.552D-02 0.300D-01-0.341D-01 0.383D+00 0.618D+00
 Coeff-En:   0.000D+00 0.000D+00 0.000D+00 0.000D+00 0.000D+00 0.100D+01
 Coeff:     -0.248D-02 0.542D-02 0.294D-01-0.334D-01 0.376D+00 0.625D+00
 Gap=     0.254 Goal=   None    Shift=    0.000
 RMSDP=3.49D-04 MaxDP=2.06D-02 DE=-6.00D-03 OVMax= 4.79D-03

 Cycle   7  Pass 1  IDiag  1:
 RMSU=  2.59D-04    CP:  3.46D-01  1.67D+00  1.03D+00  4.60D-01  1.09D+00
                    CP:  1.08D+00
 E= -3010.54259869402     Delta-E=       -0.000409235692 Rises=F Damp=F
 DIIS: error= 3.79D-04 at cycle   7 NSaved=   7.
 NSaved= 7 IEnMin= 7 EnMin= -3010.54259869402     IErMin= 7 ErrMin= 3.79D-04
 ErrMax= 3.79D-04  0.00D+00 EMaxC= 1.00D-01 BMatC= 2.08D-05 BMatP= 4.97D-04
 IDIUse=3 WtCom= 9.96D-01 WtEn= 3.79D-03
 Coeff-Com: -0.950D-03 0.156D-02-0.798D-02-0.141D-01 0.648D-01 0.223D+00
 Coeff-Com:  0.734D+00
 Coeff-En:   0.000D+00 0.000D+00 0.000D+00 0.000D+00 0.000D+00 0.000D+00
 Coeff-En:   0.100D+01
 Coeff:     -0.946D-03 0.156D-02-0.795D-02-0.140D-01 0.646D-01 0.222D+00
 Coeff:      0.735D+00
 Gap=     0.255 Goal=   None    Shift=    0.000
 RMSDP=2.03D-04 MaxDP=1.55D-02 DE=-4.09D-04 OVMax= 3.23D-03

 Cycle   8  Pass 1  IDiag  1:
 RMSU=  7.96D-05    CP:  3.45D-01  1.68D+00  1.04D+00  4.63D-01  1.13D+00
                    CP:  1.13D+00  9.10D-01
 E= -3010.54264021976     Delta-E=       -0.000041525738 Rises=F Damp=F
 DIIS: error= 1.14D-04 at cycle   8 NSaved=   8.
 NSaved= 8 IEnMin= 8 EnMin= -3010.54264021976     IErMin= 8 ErrMin= 1.14D-04
 ErrMax= 1.14D-04  0.00D+00 EMaxC= 1.00D-01 BMatC= 3.97D-06 BMatP= 2.08D-05
 IDIUse=3 WtCom= 9.99D-01 WtEn= 1.14D-03
 Coeff-Com:  0.464D-03-0.120D-02-0.101D-01 0.268D-02-0.678D-01-0.730D-01
 Coeff-Com:  0.250D+00 0.899D+00
 Coeff-En:   0.000D+00 0.000D+00 0.000D+00 0.000D+00 0.000D+00 0.000D+00
 Coeff-En:   0.000D+00 0.100D+01
 Coeff:      0.464D-03-0.120D-02-0.101D-01 0.267D-02-0.677D-01-0.729D-01
 Coeff:      0.250D+00 0.899D+00
 Gap=     0.254 Goal=   None    Shift=    0.000
 RMSDP=9.63D-05 MaxDP=6.38D-03 DE=-4.15D-05 OVMax= 2.88D-03

 Cycle   9  Pass 1  IDiag  1:
 RMSU=  3.90D-05    CP:  3.44D-01  1.67D+00  1.04D+00  4.62D-01  1.15D+00
                    CP:  1.18D+00  1.10D+00  1.32D+00
 E= -3010.54265492287     Delta-E=       -0.000014703114 Rises=F Damp=F
 DIIS: error= 5.27D-05 at cycle   9 NSaved=   9.
 NSaved= 9 IEnMin= 9 EnMin= -3010.54265492287     IErMin= 9 ErrMin= 5.27D-05
 ErrMax= 5.27D-05  0.00D+00 EMaxC= 1.00D-01 BMatC= 6.38D-07 BMatP= 3.97D-06
 IDIUse=1 WtCom= 1.00D+00 WtEn= 0.00D+00
 Coeff-Com:  0.264D-03-0.570D-03-0.240D-02 0.349D-02-0.342D-01-0.552D-01
 Coeff-Com: -0.110D-01 0.320D+00 0.780D+00
 Coeff:      0.264D-03-0.570D-03-0.240D-02 0.349D-02-0.342D-01-0.552D-01
 Coeff:     -0.110D-01 0.320D+00 0.780D+00
 Gap=     0.255 Goal=   None    Shift=    0.000
 RMSDP=2.85D-05 MaxDP=2.34D-03 DE=-1.47D-05 OVMax= 1.06D-03

 Cycle  10  Pass 1  IDiag  1:
 RMSU=  1.27D-05    CP:  3.44D-01  1.67D+00  1.04D+00  4.62D-01  1.15D+00
                    CP:  1.18D+00  1.15D+00  1.50D+00  1.22D+00
 E= -3010.54265736717     Delta-E=       -0.000002444296 Rises=F Damp=F
 DIIS: error= 2.15D-05 at cycle  10 NSaved=  10.
 NSaved=10 IEnMin=10 EnMin= -3010.54265736717     IErMin=10 ErrMin= 2.15D-05
 ErrMax= 2.15D-05  0.00D+00 EMaxC= 1.00D-01 BMatC= 1.32D-07 BMatP= 6.38D-07
 IDIUse=1 WtCom= 1.00D+00 WtEn= 0.00D+00
 Coeff-Com: -0.767D-04 0.195D-03 0.117D-02 0.292D-03 0.554D-02 0.297D-02
 Coeff-Com: -0.642D-01-0.126D+00 0.240D+00 0.940D+00
 Coeff:     -0.767D-04 0.195D-03 0.117D-02 0.292D-03 0.554D-02 0.297D-02
 Coeff:     -0.642D-01-0.126D+00 0.240D+00 0.940D+00
 Gap=     0.254 Goal=   None    Shift=    0.000
 RMSDP=2.28D-05 MaxDP=1.11D-03 DE=-2.44D-06 OVMax= 6.65D-04

 Cycle  11  Pass 1  IDiag  1:
 RMSU=  6.70D-06    CP:  3.44D-01  1.67D+00  1.04D+00  4.62D-01  1.14D+00
                    CP:  1.18D+00  1.17D+00  1.59D+00  1.42D+00  1.23D+00
 E= -3010.54265796615     Delta-E=       -0.000000598980 Rises=F Damp=F
 DIIS: error= 6.93D-06 at cycle  11 NSaved=  11.
 NSaved=11 IEnMin=11 EnMin= -3010.54265796615     IErMin=11 ErrMin= 6.93D-06
 ErrMax= 6.93D-06  0.00D+00 EMaxC= 1.00D-01 BMatC= 2.33D-08 BMatP= 1.32D-07
 IDIUse=1 WtCom= 1.00D+00 WtEn= 0.00D+00
 Coeff-Com: -0.599D-04 0.147D-03 0.100D-02-0.390D-03 0.775D-02 0.971D-02
 Coeff-Com: -0.221D-01-0.102D+00-0.206D-01 0.371D+00 0.755D+00
 Coeff:     -0.599D-04 0.147D-03 0.100D-02-0.390D-03 0.775D-02 0.971D-02
 Coeff:     -0.221D-01-0.102D+00-0.206D-01 0.371D+00 0.755D+00
 Gap=     0.254 Goal=   None    Shift=    0.000
 RMSDP=8.61D-06 MaxDP=4.40D-04 DE=-5.99D-07 OVMax= 1.97D-04

 Cycle  12  Pass 1  IDiag  1:
 RMSU=  1.89D-06    CP:  3.44D-01  1.67D+00  1.04D+00  4.62D-01  1.14D+00
                    CP:  1.18D+00  1.18D+00  1.61D+00  1.48D+00  1.44D+00
                    CP:  1.26D+00
 E= -3010.54265803244     Delta-E=       -0.000000066291 Rises=F Damp=F
 DIIS: error= 5.46D-06 at cycle  12 NSaved=  12.
 NSaved=12 IEnMin=12 EnMin= -3010.54265803244     IErMin=12 ErrMin= 5.46D-06
 ErrMax= 5.46D-06  0.00D+00 EMaxC= 1.00D-01 BMatC= 4.34D-09 BMatP= 2.33D-08
 IDIUse=1 WtCom= 1.00D+00 WtEn= 0.00D+00
 Coeff-Com:  0.585D-05-0.937D-05 0.164D-03-0.181D-03 0.133D-02 0.188D-02
 Coeff-Com:  0.601D-02-0.108D-01-0.503D-01-0.499D-01 0.221D+00 0.881D+00
 Coeff:      0.585D-05-0.937D-05 0.164D-03-0.181D-03 0.133D-02 0.188D-02
 Coeff:      0.601D-02-0.108D-01-0.503D-01-0.499D-01 0.221D+00 0.881D+00
 Gap=     0.254 Goal=   None    Shift=    0.000
 RMSDP=3.47D-06 MaxDP=1.95D-04 DE=-6.63D-08 OVMax= 1.10D-04

 Cycle  13  Pass 1  IDiag  1:
 RMSU=  1.23D-06    CP:  3.44D-01  1.67D+00  1.04D+00  4.62D-01  1.14D+00
                    CP:  1.17D+00  1.18D+00  1.61D+00  1.50D+00  1.47D+00
                    CP:  1.39D+00  1.14D+00
 E= -3010.54265804674     Delta-E=       -0.000000014299 Rises=F Damp=F
 DIIS: error= 1.09D-06 at cycle  13 NSaved=  13.
 NSaved=13 IEnMin=13 EnMin= -3010.54265804674     IErMin=13 ErrMin= 1.09D-06
 ErrMax= 1.09D-06  0.00D+00 EMaxC= 1.00D-01 BMatC= 5.90D-10 BMatP= 4.34D-09
 IDIUse=1 WtCom= 1.00D+00 WtEn= 0.00D+00
 Coeff-Com:  0.780D-05-0.183D-04-0.834D-04 0.136D-04-0.689D-03-0.813D-03
 Coeff-Com:  0.390D-02 0.835D-02-0.308D-02-0.494D-01-0.957D-01 0.157D+00
 Coeff-Com:  0.980D+00
 Coeff:      0.780D-05-0.183D-04-0.834D-04 0.136D-04-0.689D-03-0.813D-03
 Coeff:      0.390D-02 0.835D-02-0.308D-02-0.494D-01-0.957D-01 0.157D+00
 Coeff:      0.980D+00
 Gap=     0.254 Goal=   None    Shift=    0.000
 RMSDP=1.05D-06 MaxDP=4.44D-05 DE=-1.43D-08 OVMax= 4.13D-05

 Cycle  14  Pass 1  IDiag  1:
 RMSU=  5.08D-07    CP:  3.44D-01  1.67D+00  1.04D+00  4.62D-01  1.14D+00
                    CP:  1.17D+00  1.18D+00  1.61D+00  1.51D+00  1.48D+00
                    CP:  1.45D+00  1.33D+00  1.21D+00
 E= -3010.54265804960     Delta-E=       -0.000000002861 Rises=F Damp=F
 DIIS: error= 6.72D-07 at cycle  14 NSaved=  14.
 NSaved=14 IEnMin=14 EnMin= -3010.54265804960     IErMin=14 ErrMin= 6.72D-07
 ErrMax= 6.72D-07  0.00D+00 EMaxC= 1.00D-01 BMatC= 1.00D-10 BMatP= 5.90D-10
 IDIUse=1 WtCom= 1.00D+00 WtEn= 0.00D+00
 Coeff-Com: -0.530D-06-0.213D-06-0.572D-04 0.273D-04-0.356D-03-0.359D-03
 Coeff-Com:  0.140D-03 0.341D-02 0.957D-02-0.291D-02-0.680D-01-0.102D+00
 Coeff-Com:  0.241D+00 0.919D+00
 Coeff:     -0.530D-06-0.213D-06-0.572D-04 0.273D-04-0.356D-03-0.359D-03
 Coeff:      0.140D-03 0.341D-02 0.957D-02-0.291D-02-0.680D-01-0.102D+00
 Coeff:      0.241D+00 0.919D+00
 Gap=     0.254 Goal=   None    Shift=    0.000
 RMSDP=3.67D-07 MaxDP=1.69D-05 DE=-2.86D-09 OVMax= 2.11D-05

 Cycle  15  Pass 1  IDiag  1:
 RMSU=  1.70D-07    CP:  3.44D-01  1.67D+00  1.04D+00  4.62D-01  1.14D+00
                    CP:  1.17D+00  1.18D+00  1.61D+00  1.51D+00  1.48D+00
                    CP:  1.45D+00  1.39D+00  1.30D+00  1.27D+00
 E= -3010.54265805021     Delta-E=       -0.000000000616 Rises=F Damp=F
 DIIS: error= 2.48D-07 at cycle  15 NSaved=  15.
 NSaved=15 IEnMin=15 EnMin= -3010.54265805021     IErMin=15 ErrMin= 2.48D-07
 ErrMax= 2.48D-07  0.00D+00 EMaxC= 1.00D-01 BMatC= 3.12D-11 BMatP= 1.00D-10
 IDIUse=1 WtCom= 1.00D+00 WtEn= 0.00D+00
 Coeff-Com: -0.217D-05 0.451D-05 0.134D-06 0.242D-05 0.686D-04 0.124D-03
 Coeff-Com: -0.856D-03-0.140D-02 0.279D-02 0.861D-02 0.867D-02-0.574D-01
 Coeff-Com: -0.224D+00 0.281D+00 0.982D+00
 Coeff:     -0.217D-05 0.451D-05 0.134D-06 0.242D-05 0.686D-04 0.124D-03
 Coeff:     -0.856D-03-0.140D-02 0.279D-02 0.861D-02 0.867D-02-0.574D-01
 Coeff:     -0.224D+00 0.281D+00 0.982D+00
 Gap=     0.254 Goal=   None    Shift=    0.000
 RMSDP=2.99D-07 MaxDP=1.61D-05 DE=-6.16D-10 OVMax= 1.11D-05

 Cycle  16  Pass 1  IDiag  1:
 RMSU=  1.27D-07    CP:  3.44D-01  1.67D+00  1.04D+00  4.62D-01  1.14D+00
                    CP:  1.17D+00  1.18D+00  1.61D+00  1.51D+00  1.48D+00
                    CP:  1.46D+00  1.43D+00  1.40D+00  1.48D+00  1.45D+00
 E= -3010.54265805032     Delta-E=       -0.000000000105 Rises=F Damp=F
 DIIS: error= 8.75D-08 at cycle  16 NSaved=  16.
 NSaved=16 IEnMin=16 EnMin= -3010.54265805032     IErMin=16 ErrMin= 8.75D-08
 ErrMax= 8.75D-08  0.00D+00 EMaxC= 1.00D-01 BMatC= 2.13D-12 BMatP= 3.12D-11
 IDIUse=1 WtCom= 1.00D+00 WtEn= 0.00D+00
 Coeff-Com: -0.801D-07 0.317D-06 0.610D-05-0.138D-05 0.443D-04 0.561D-04
 Coeff-Com: -0.178D-03-0.600D-03-0.313D-03 0.210D-02 0.114D-01 0.718D-03
 Coeff-Com: -0.829D-01-0.229D-01 0.183D+00 0.910D+00
 Coeff:     -0.801D-07 0.317D-06 0.610D-05-0.138D-05 0.443D-04 0.561D-04
 Coeff:     -0.178D-03-0.600D-03-0.313D-03 0.210D-02 0.114D-01 0.718D-03
 Coeff:     -0.829D-01-0.229D-01 0.183D+00 0.910D+00
 Gap=     0.254 Goal=   None    Shift=    0.000
 RMSDP=5.93D-08 MaxDP=1.75D-06 DE=-1.05D-10 OVMax= 2.77D-06

 Cycle  17  Pass 1  IDiag  1:
 RMSU=  2.61D-08    CP:  3.44D-01  1.67D+00  1.04D+00  4.62D-01  1.14D+00
                    CP:  1.17D+00  1.18D+00  1.61D+00  1.51D+00  1.48D+00
                    CP:  1.46D+00  1.44D+00  1.39D+00  1.52D+00  1.61D+00
                    CP:  1.10D+00
 E= -3010.54265805040     Delta-E=       -0.000000000078 Rises=F Damp=F
 DIIS: error= 3.67D-08 at cycle  17 NSaved=  17.
 NSaved=17 IEnMin=17 EnMin= -3010.54265805040     IErMin=17 ErrMin= 3.67D-08
 ErrMax= 3.67D-08  0.00D+00 EMaxC= 1.00D-01 BMatC= 5.45D-13 BMatP= 2.13D-12
 IDIUse=1 WtCom= 1.00D+00 WtEn= 0.00D+00
 Coeff-Com:  0.247D-06-0.461D-06 0.231D-05-0.108D-05 0.798D-05 0.947D-05
 Coeff-Com:  0.552D-04-0.408D-04-0.610D-03-0.645D-03 0.312D-02 0.816D-02
 Coeff-Com: -0.651D-03-0.414D-01-0.895D-01 0.334D+00 0.788D+00
 Coeff:      0.247D-06-0.461D-06 0.231D-05-0.108D-05 0.798D-05 0.947D-05
 Coeff:      0.552D-04-0.408D-04-0.610D-03-0.645D-03 0.312D-02 0.816D-02
 Coeff:     -0.651D-03-0.414D-01-0.895D-01 0.334D+00 0.788D+00
 Gap=     0.254 Goal=   None    Shift=    0.000
 RMSDP=2.85D-08 MaxDP=1.23D-06 DE=-7.78D-11 OVMax= 8.46D-07

 Cycle  18  Pass 1  IDiag  1:
 RMSU=  9.70D-09    CP:  3.44D-01  1.67D+00  1.04D+00  4.62D-01  1.14D+00
                    CP:  1.17D+00  1.18D+00  1.61D+00  1.51D+00  1.48D+00
                    CP:  1.46D+00  1.44D+00  1.40D+00  1.53D+00  1.67D+00
                    CP:  1.20D+00  1.19D+00
 E= -3010.54265805035     Delta-E=        0.000000000047 Rises=F Damp=F
 DIIS: error= 1.03D-08 at cycle  18 NSaved=  18.
 NSaved=18 IEnMin=17 EnMin= -3010.54265805040     IErMin=18 ErrMin= 1.03D-08
 ErrMax= 1.03D-08  0.00D+00 EMaxC= 1.00D-01 BMatC= 3.88D-14 BMatP= 5.45D-13
 IDIUse=1 WtCom= 1.00D+00 WtEn= 0.00D+00
 Coeff-Com:  0.470D-07-0.108D-06-0.651D-06 0.309D-06-0.705D-05-0.700D-05
 Coeff-Com:  0.360D-04 0.104D-03-0.303D-04-0.419D-03-0.986D-03 0.120D-02
 Coeff-Com:  0.994D-02 0.132D-03-0.426D-01-0.584D-01 0.991D-01 0.992D+00
 Coeff:      0.470D-07-0.108D-06-0.651D-06 0.309D-06-0.705D-05-0.700D-05
 Coeff:      0.360D-04 0.104D-03-0.303D-04-0.419D-03-0.986D-03 0.120D-02
 Coeff:      0.994D-02 0.132D-03-0.426D-01-0.584D-01 0.991D-01 0.992D+00
 Gap=     0.254 Goal=   None    Shift=    0.000
 RMSDP=1.32D-08 MaxDP=7.24D-07 DE= 4.73D-11 OVMax= 3.59D-07

 Cycle  19  Pass 1  IDiag  1:
 RMSU=  4.10D-09    CP:  3.44D-01  1.67D+00  1.04D+00  4.62D-01  1.14D+00
                    CP:  1.17D+00  1.18D+00  1.61D+00  1.51D+00  1.48D+00
                    CP:  1.46D+00  1.44D+00  1.40D+00  1.52D+00  1.68D+00
                    CP:  1.24D+00  1.31D+00  1.37D+00
 E= -3010.54265805035     Delta-E=       -0.000000000004 Rises=F Damp=F
 DIIS: error= 6.49D-09 at cycle  19 NSaved=  19.
 NSaved=19 IEnMin=17 EnMin= -3010.54265805040     IErMin=19 ErrMin= 6.49D-09
 ErrMax= 6.49D-09  0.00D+00 EMaxC= 1.00D-01 BMatC= 7.66D-15 BMatP= 3.88D-14
 IDIUse=1 WtCom= 1.00D+00 WtEn= 0.00D+00
 Coeff-Com: -0.219D-07 0.348D-07-0.425D-06 0.185D-06-0.181D-05-0.817D-06
 Coeff-Com:  0.427D-06 0.146D-04 0.571D-04 0.466D-05-0.425D-03-0.562D-03
 Coeff-Com:  0.117D-02 0.502D-02 0.165D-02-0.423D-01-0.706D-01 0.170D+00
 Coeff-Com:  0.936D+00
 Coeff:     -0.219D-07 0.348D-07-0.425D-06 0.185D-06-0.181D-05-0.817D-06
 Coeff:      0.427D-06 0.146D-04 0.571D-04 0.466D-05-0.425D-03-0.562D-03
 Coeff:      0.117D-02 0.502D-02 0.165D-02-0.423D-01-0.706D-01 0.170D+00
 Coeff:      0.936D+00
 Gap=     0.254 Goal=   None    Shift=    0.000
 RMSDP=3.37D-09 MaxDP=1.59D-07 DE=-3.64D-12 OVMax= 1.43D-07

 SCF Done:  E(RwB97XD) =  -3010.54265805     A.U. after   19 cycles
            NFock= 19  Conv=0.34D-08     -V/T= 2.0016
 KE= 3.005869354643D+03 PE=-8.634141306531D+03 EE= 1.876979032680D+03
 Leave Link  502 at Wed May  1 15:04:33 2024, MaxMem=  1207959552 cpu:            1059.2 elap:            1059.4
 (Enter /software/gaussian/g16-c01/sse4/g16/l601.exe)
 Copying SCF densities to generalized density rwf, IOpCl= 0 IROHF=0.

 **********************************************************************

            Population analysis using the SCF Density.

 **********************************************************************

 Alpha  occ. eigenvalues -- -483.33351 -62.88401 -56.68059 -56.67534 -56.67533
 Alpha  occ. eigenvalues --  -19.46266 -19.45937 -14.85576 -10.60042 -10.57767
 Alpha  occ. eigenvalues --  -10.57695 -10.57237 -10.56662 -10.52236  -9.04225
 Alpha  occ. eigenvalues --   -6.86809  -6.85080  -6.85073  -2.96736  -2.96273
 Alpha  occ. eigenvalues --   -2.96265  -2.94882  -2.94882  -1.49861  -1.32830
 Alpha  occ. eigenvalues --   -1.23207  -1.15004  -1.11824  -1.05980  -1.01244
 Alpha  occ. eigenvalues --   -0.95979  -0.91242  -0.85496  -0.81080  -0.80838
 Alpha  occ. eigenvalues --   -0.80260  -0.79008  -0.76289  -0.75940  -0.73130
 Alpha  occ. eigenvalues --   -0.69404  -0.67405  -0.64076  -0.61314  -0.58997
 Alpha  occ. eigenvalues --   -0.57350  -0.56674  -0.56303  -0.55724
 Alpha virt. eigenvalues --   -0.30280  -0.21609  -0.17037  -0.14387  -0.13028
 Alpha virt. eigenvalues --   -0.09557  -0.09483  -0.07025  -0.05806  -0.05030
 Alpha virt. eigenvalues --   -0.04222  -0.04040  -0.02571  -0.02382  -0.01458
 Alpha virt. eigenvalues --    0.00225   0.00469   0.01910   0.02277   0.02505
 Alpha virt. eigenvalues --    0.03053   0.03933   0.04502   0.05061   0.06458
 Alpha virt. eigenvalues --    0.06982   0.07699   0.08563   0.09135   0.09694
 Alpha virt. eigenvalues --    0.09960   0.10984   0.11483   0.11876   0.12437
 Alpha virt. eigenvalues --    0.13320   0.13431   0.14076   0.14840   0.15896
 Alpha virt. eigenvalues --    0.16923   0.18266   0.19037   0.19721   0.20098
 Alpha virt. eigenvalues --    0.20404   0.21268   0.21756   0.23565   0.25166
 Alpha virt. eigenvalues --    0.26143   0.26705   0.28003   0.28093   0.28518
 Alpha virt. eigenvalues --    0.30609   0.31979   0.33173   0.34969   0.36138
 Alpha virt. eigenvalues --    0.36812   0.37710   0.39777   0.40193   0.40868
 Alpha virt. eigenvalues --    0.42875   0.43458   0.44495   0.46105   0.47062
 Alpha virt. eigenvalues --    0.48317   0.48951   0.50678   0.51274   0.52843
 Alpha virt. eigenvalues --    0.53384   0.53667   0.56025   0.56754   0.60115
 Alpha virt. eigenvalues --    0.61189   0.62197   0.62588   0.65402   0.68374
 Alpha virt. eigenvalues --    0.69307   0.71662   0.72747   0.73496   0.74469
 Alpha virt. eigenvalues --    0.75768   0.79592   0.79992   0.81636   0.84710
 Alpha virt. eigenvalues --    0.85762   0.87918   0.91300   0.92543   0.97779
 Alpha virt. eigenvalues --    0.99573   1.01181   1.03885   1.05237   1.06155
 Alpha virt. eigenvalues --    1.08353   1.10695   1.11932   1.12368   1.14254
 Alpha virt. eigenvalues --    1.22165   1.24248   1.26367   1.32963   1.36150
 Alpha virt. eigenvalues --    1.36556   1.37061   1.44447   1.54033   1.56822
 Alpha virt. eigenvalues --    1.58018   1.58345   1.60425   1.61802   1.65830
 Alpha virt. eigenvalues --    1.68729   1.69093   1.73544   1.75096   1.78838
 Alpha virt. eigenvalues --    1.80565   1.85227   1.87616   1.91255   1.93328
 Alpha virt. eigenvalues --    1.97096   2.02568   2.03317   2.05364   2.07335
 Alpha virt. eigenvalues --    2.08527   2.14462   2.20516   2.22697   2.30513
 Alpha virt. eigenvalues --    2.37137   2.40597   2.41541   2.43205   2.52271
 Alpha virt. eigenvalues --    2.56571   2.62916   2.65856   2.67953   2.71625
 Alpha virt. eigenvalues --    2.72883   2.76122   2.77184   2.80756   2.81247
 Alpha virt. eigenvalues --    2.92893   2.95581   3.00369   3.04358   3.08590
 Alpha virt. eigenvalues --    3.12791   3.15318   3.19332   3.23505   3.24115
 Alpha virt. eigenvalues --    3.27118   3.38881   3.48061   3.51045   3.53983
 Alpha virt. eigenvalues --    3.56469   3.69652   3.73882   3.81949   3.86759
 Alpha virt. eigenvalues --    4.06536   4.06787   4.14493   4.19632   4.40522
 Alpha virt. eigenvalues --    4.44127   4.56988   4.59645   4.92935   4.95666
 Alpha virt. eigenvalues --    5.04239   5.08498   5.62578   6.15537   6.62297
 Alpha virt. eigenvalues --    7.45220   7.46789   7.56681  23.20975  23.61008
 Alpha virt. eigenvalues --   23.68046  23.79501  23.96000  24.01175  35.32379
 Alpha virt. eigenvalues --   47.89010  49.85288  49.94106 289.78365 289.80035
 Alpha virt. eigenvalues --  289.925021020.89472
          Condensed to atoms (all electrons):
               1          2          3          4          5          6
     1  C    8.552126  -1.878153   0.172652  -1.456505  -0.823547   0.306124
     2  C   -1.878153  12.044792  -1.739767  -2.779589   1.004967  -0.010653
     3  C    0.172652  -1.739767  12.787957  -2.653732  -1.306719   0.022623
     4  C   -1.456505  -2.779589  -2.653732  15.217410   0.900972   0.005089
     5  C   -0.823547   1.004967  -1.306719   0.900972   7.518819   0.008706
     6  H    0.306124  -0.010653   0.022623   0.005089   0.008706   0.288208
     7  H    0.049797   0.250424   0.052754  -0.021122  -0.015237  -0.001107
     8  H    0.008489  -0.028956   0.111472   0.180051  -0.025874   0.000003
     9  H    0.054455  -0.023997   0.008086  -0.017629   0.298511  -0.002035
    10  N   -0.096231   0.289769  -0.906089   0.315716   0.029440  -0.000448
    11  O    0.035097  -0.101157  -0.246947  -0.060591  -0.065889  -0.000027
    12  O    0.282264   0.035761  -0.291172  -0.088324  -0.035992  -0.000004
    13  C    1.336795  -1.575798   0.691356  -3.817763  -1.525264  -0.004051
    14  H   -0.017602   0.020267  -0.013684   0.041857  -0.007846  -0.000021
    15  Br   0.022128   0.036067  -0.037455  -0.029966   0.005051  -0.000321
               7          8          9         10         11         12
     1  C    0.049797   0.008489   0.054455  -0.096231   0.035097   0.282264
     2  C    0.250424  -0.028956  -0.023997   0.289769  -0.101157   0.035761
     3  C    0.052754   0.111472   0.008086  -0.906089  -0.246947  -0.291172
     4  C   -0.021122   0.180051  -0.017629   0.315716  -0.060591  -0.088324
     5  C   -0.015237  -0.025874   0.298511   0.029440  -0.065889  -0.035992
     6  H   -0.001107   0.000003  -0.002035  -0.000448  -0.000027  -0.000004
     7  H    0.263085   0.000014   0.000042  -0.020524  -0.001077   0.018115
     8  H    0.000014   0.336526   0.000093  -0.028533   0.026611  -0.001276
     9  H    0.000042   0.000093   0.317938   0.000299   0.000006   0.000005
    10  N   -0.020524  -0.028533   0.000299   7.366534   0.131660   0.205798
    11  O   -0.001077   0.026611   0.000006   0.131660   7.964804   0.000981
    12  O    0.018115  -0.001276   0.000005   0.205798   0.000981   7.739008
    13  C    0.011076   0.095023   0.009117  -0.191115   0.354775   0.026009
    14  H   -0.000024  -0.005577  -0.005150  -0.000192  -0.000143  -0.000085
    15  Br   0.000032   0.005229   0.005249   0.013140  -0.001007   0.002138
              13         14         15
     1  C    1.336795  -0.017602   0.022128
     2  C   -1.575798   0.020267   0.036067
     3  C    0.691356  -0.013684  -0.037455
     4  C   -3.817763   0.041857  -0.029966
     5  C   -1.525264  -0.007846   0.005051
     6  H   -0.004051  -0.000021  -0.000321
     7  H    0.011076  -0.000024   0.000032
     8  H    0.095023  -0.005577   0.005229
     9  H    0.009117  -0.005150   0.005249
    10  N   -0.191115  -0.000192   0.013140
    11  O    0.354775  -0.000143  -0.001007
    12  O    0.026009  -0.000085   0.002138
    13  C   10.616627   0.291257   0.140838
    14  H    0.291257   0.384430  -0.056314
    15  Br   0.140838  -0.056314  34.809799
 Mulliken charges:
               1
     1  C   -0.547887
     2  C    0.456024
     3  C   -0.651334
     4  C    0.264125
     5  C    0.039902
     6  H    0.387914
     7  H    0.413751
     8  H    0.326704
     9  H    0.355009
    10  N   -0.109222
    11  O   -0.037098
    12  O    0.106774
    13  C   -0.458881
    14  H    0.368827
    15  Br   0.085393
 Sum of Mulliken charges =   1.00000
 Mulliken charges with hydrogens summed into heavy atoms:
               1
     1  C   -0.159973
     2  C    0.869775
     3  C   -0.651334
     4  C    0.590828
     5  C    0.394911
    10  N   -0.109222
    11  O   -0.037098
    12  O    0.106774
    13  C   -0.090054
    15  Br   0.085393
 Electronic spatial extent (au):  <R**2>=           2800.1475
 Charge=              1.0000 electrons
 Dipole moment (field-independent basis, Debye):
    X=             -0.3470    Y=              3.3227    Z=              0.4812  Tot=              3.3752
 Quadrupole moment (field-independent basis, Debye-Ang):
   XX=            -70.4568   YY=            -53.9911   ZZ=            -63.7930
   XY=              5.6723   XZ=              0.6759   YZ=             -0.1301
 Traceless Quadrupole moment (field-independent basis, Debye-Ang):
   XX=             -7.7098   YY=              8.7559   ZZ=             -1.0460
   XY=              5.6723   XZ=              0.6759   YZ=             -0.1301
 Octapole moment (field-independent basis, Debye-Ang**2):
  XXX=           -294.7662  YYY=            111.3277  ZZZ=             80.6855  XYY=            -73.5080
  XXY=             50.9982  XXZ=             32.7410  XZZ=            -77.0045  YZZ=             22.5863
  YYZ=             30.8265  XYZ=             -2.5197
 Hexadecapole moment (field-independent basis, Debye-Ang**3):
 XXXX=          -2261.8760 YYYY=           -701.6630 ZZZZ=           -356.9197 XXXY=              4.0629
 XXXZ=            -23.3368 YYYX=            -46.3350 YYYZ=           -171.9832 ZZZX=            -20.6280
 ZZZY=           -146.0694 XXYY=           -456.0934 XXZZ=           -371.4617 YYZZ=           -175.5697
 XXYZ=            -57.8561 YYXZ=             -5.4553 ZZXY=             -8.1424
 N-N= 7.407502611575D+02 E-N=-8.634141305704D+03  KE= 3.005869354643D+03
 No NMR shielding tensors so no spin-rotation constants.
 Leave Link  601 at Wed May  1 15:04:41 2024, MaxMem=  1207959552 cpu:               7.6 elap:               7.6
 (Enter /software/gaussian/g16-c01/sse4/g16/l9999.exe)
 Unable to Open any file for archive entry.
 1\1\GINC-BHX0021\SP\RwB97XD\6-311+G(d)\C6H5Br1N1O2(1+)\BWEIGHT\01-May-
 2024\0\\#P wB97XD/6-311+G* NoSymm #P Field=Y-136\\TitleMe\\1,1\C,0,0.0
 295,1.3397,0.0682\C,0,1.4348,1.2867,0.0064\C,0,2.1118,0.0511,-0.0054\C
 ,0,1.4451,-1.1372,0.0312\C,0,-0.6879,0.1682,0.11\H,0,-0.4713,2.2984,0.
 0781\H,0,2.0273,2.1965,-0.0322\H,0,1.9897,-2.0764,0.0232\H,0,-1.7716,0
 .1804,0.1582\N,0,3.5864,0.051,-0.0675\O,0,4.1471,-1.0597,-0.0881\O,0,4
 .145,1.1639,-0.0901\C,0,-0.0236,-1.1458,0.0835\H,0,-0.4367,-1.8725,0.7
 889\Br,0,-0.5359,-1.8697,-1.7408\\Version=ES64L-G16RevC.01\HF=-3010.54
 26581\RMSD=3.365e-09\Dipole=-2.0430447,2.4553239,1.3354855\Quadrupole=
 -5.7320808,6.5097764,-0.7776956,4.2171813,0.502483,-0.0967078\PG=C01 [
 X(C6H5Br1N1O2)]\\@
 The archive entry for this job was punched.


 FORGIVE MY NONSENSE AS I ALSO FORGIVE THOSE WHO THINK THEY TALK SENSE

                                                       -- ROBERT FROST
 Job cpu time:       0 days  0 hours 18 minutes 46.6 seconds.
 Elapsed time:       0 days  0 hours 18 minutes 46.7 seconds.
 File lengths (MBytes):  RWF=     40 Int=      0 D2E=      0 Chk=     32 Scr=      1
 Normal termination of Gaussian 16 at Wed May  1 15:04:41 2024.
