 Entering Gaussian System, Link 0=g16
 Initial command:
 /software/gaussian/g16-c01/sse4/g16/l1.exe "/local_scratch/24657461/Gau-7874.inp" -scrdir="/local_scratch/24657461/"
 Entering Link 1 = /software/gaussian/g16-c01/sse4/g16/l1.exe PID=      7877.
  
 Copyright (c) 1988-2019, Gaussian, Inc.  All Rights Reserved.
  
 This is part of the Gaussian(R) 16 program.  It is based on
 the Gaussian(R) 09 system (copyright 2009, Gaussian, Inc.),
 the Gaussian(R) 03 system (copyright 2003, Gaussian, Inc.),
 the Gaussian(R) 98 system (copyright 1998, Gaussian, Inc.),
 the Gaussian(R) 94 system (copyright 1995, Gaussian, Inc.),
 the Gaussian 92(TM) system (copyright 1992, Gaussian, Inc.),
 the Gaussian 90(TM) system (copyright 1990, Gaussian, Inc.),
 the Gaussian 88(TM) system (copyright 1988, Gaussian, Inc.),
 the Gaussian 86(TM) system (copyright 1986, Carnegie Mellon
 University), and the Gaussian 82(TM) system (copyright 1983,
 Carnegie Mellon University). Gaussian is a federally registered
 trademark of Gaussian, Inc.
  
 This software contains proprietary and confidential information,
 including trade secrets, belonging to Gaussian, Inc.
  
 This software is provided under written license and may be
 used, copied, transmitted, or stored only in accord with that
 written license.
  
 The following legend is applicable only to US Government
 contracts under FAR:
  
                    RESTRICTED RIGHTS LEGEND
  
 Use, reproduction and disclosure by the US Government is
 subject to restrictions as set forth in subparagraphs (a)
 and (c) of the Commercial Computer Software - Restricted
 Rights clause in FAR 52.227-19.
  
 Gaussian, Inc.
 340 Quinnipiac St., Bldg. 40, Wallingford CT 06492
  
  
 ---------------------------------------------------------------
 Warning -- This program may not be used in any manner that
 competes with the business of Gaussian, Inc. or will provide
 assistance to any competitor of Gaussian, Inc.  The licensee
 of this program is prohibited from giving any competitor of
 Gaussian, Inc. access to this program.  By using this program,
 the user acknowledges that Gaussian, Inc. is engaged in the
 business of creating and licensing software in the field of
 computational chemistry and represents and warrants to the
 licensee that it is not a competitor of Gaussian, Inc. and that
 it will not use this program in any manner prohibited above.
 ---------------------------------------------------------------
  

 Cite this work as:
 Gaussian 16, Revision C.01,
 M. J. Frisch, G. W. Trucks, H. B. Schlegel, G. E. Scuseria, 
 M. A. Robb, J. R. Cheeseman, G. Scalmani, V. Barone, 
 G. A. Petersson, H. Nakatsuji, X. Li, M. Caricato, A. V. Marenich, 
 J. Bloino, B. G. Janesko, R. Gomperts, B. Mennucci, H. P. Hratchian, 
 J. V. Ortiz, A. F. Izmaylov, J. L. Sonnenberg, D. Williams-Young, 
 F. Ding, F. Lipparini, F. Egidi, J. Goings, B. Peng, A. Petrone, 
 T. Henderson, D. Ranasinghe, V. G. Zakrzewski, J. Gao, N. Rega, 
 G. Zheng, W. Liang, M. Hada, M. Ehara, K. Toyota, R. Fukuda, 
 J. Hasegawa, M. Ishida, T. Nakajima, Y. Honda, O. Kitao, H. Nakai, 
 T. Vreven, K. Throssell, J. A. Montgomery, Jr., J. E. Peralta, 
 F. Ogliaro, M. J. Bearpark, J. J. Heyd, E. N. Brothers, K. N. Kudin, 
 V. N. Staroverov, T. A. Keith, R. Kobayashi, J. Normand, 
 K. Raghavachari, A. P. Rendell, J. C. Burant, S. S. Iyengar, 
 J. Tomasi, M. Cossi, J. M. Millam, M. Klene, C. Adamo, R. Cammi, 
 J. W. Ochterski, R. L. Martin, K. Morokuma, O. Farkas, 
 J. B. Foresman, and D. J. Fox, Gaussian, Inc., Wallingford CT, 2019.
 
 ******************************************
 Gaussian 16:  ES64L-G16RevC.01  3-Jul-2019
                 1-May-2024 
 ******************************************
 %chk=geometry.chk
 %mem=9GB
 %nprocshared=12
 Will use up to   12 processors via shared memory.
 ----------------------------------------
 #P wB97XD/6-311+G* NoSymm #P Field=X+194
 ----------------------------------------
 1/38=1,172=1/1;
 2/12=2,15=1,17=6,18=5,40=1/2;
 3/5=4,6=6,7=11,11=2,14=1,15=194,25=1,30=1,74=-58/1,2,3;
 4//1;
 5/5=2,38=5/2;
 6/7=2,8=2,9=2,10=2,28=1/1;
 99/5=1,9=1/99;
 Leave Link    1 at Wed May  1 14:27:50 2024, MaxMem=  1207959552 cpu:               4.6 elap:               4.6
 (Enter /software/gaussian/g16-c01/sse4/g16/l101.exe)
 -------
 TitleMe
 -------
 Symbolic Z-matrix:
 Charge =  1 Multiplicity = 1
 C                     0.0295    1.3397    0.0682 
 C                     1.4348    1.2867    0.0064 
 C                     2.1118    0.0511   -0.0054 
 C                     1.4451   -1.1372    0.0312 
 C                    -0.6879    0.1682    0.11 
 H                    -0.4713    2.2984    0.0781 
 H                     2.0273    2.1965   -0.0322 
 H                     1.9897   -2.0764    0.0232 
 H                    -1.7716    0.1804    0.1582 
 N                     3.5864    0.051    -0.0675 
 O                     4.1471   -1.0597   -0.0881 
 O                     4.145     1.1639   -0.0901 
 C                    -0.0236   -1.1458    0.0835 
 H                    -0.4367   -1.8725    0.7889 
 Br                   -0.5359   -1.8697   -1.7408 
 
 ITRead=  0  0  0  0  0  0  0  0  0  0  0  0  0  0  0
 MicOpt= -1 -1 -1 -1 -1 -1 -1 -1 -1 -1 -1 -1 -1 -1 -1
 NAtoms=     15 NQM=       15 NQMF=       0 NMMI=      0 NMMIF=      0
                NMic=       0 NMicF=      0.
                    Isotopes and Nuclear Properties:
 (Nuclear quadrupole moments (NQMom) in fm**2, nuclear magnetic moments (NMagM)
  in nuclear magnetons)

  Atom         1           2           3           4           5           6           7           8           9          10
 IAtWgt=          12          12          12          12          12           1           1           1           1          14
 AtmWgt=  12.0000000  12.0000000  12.0000000  12.0000000  12.0000000   1.0078250   1.0078250   1.0078250   1.0078250  14.0030740
 NucSpn=           0           0           0           0           0           1           1           1           1           2
 AtZEff=  -0.0000000  -0.0000000  -0.0000000  -0.0000000  -0.0000000  -0.0000000  -0.0000000  -0.0000000  -0.0000000  -0.0000000
 NQMom=    0.0000000   0.0000000   0.0000000   0.0000000   0.0000000   0.0000000   0.0000000   0.0000000   0.0000000   2.0440000
 NMagM=    0.0000000   0.0000000   0.0000000   0.0000000   0.0000000   2.7928460   2.7928460   2.7928460   2.7928460   0.4037610
 AtZNuc=   6.0000000   6.0000000   6.0000000   6.0000000   6.0000000   1.0000000   1.0000000   1.0000000   1.0000000   7.0000000

  Atom        11          12          13          14          15
 IAtWgt=          16          16          12           1          79
 AtmWgt=  15.9949146  15.9949146  12.0000000   1.0078250  78.9183361
 NucSpn=           0           0           0           1           3
 AtZEff=  -0.0000000  -0.0000000  -0.0000000  -0.0000000  -0.0000000
 NQMom=    0.0000000   0.0000000   0.0000000   0.0000000  31.3000000
 NMagM=    0.0000000   0.0000000   0.0000000   2.7928460   2.1063990
 AtZNuc=   8.0000000   8.0000000   6.0000000   1.0000000  35.0000000
 Leave Link  101 at Wed May  1 14:27:56 2024, MaxMem=  1207959552 cpu:               2.0 elap:               2.0
 (Enter /software/gaussian/g16-c01/sse4/g16/l202.exe)
                          Input orientation:                          
 ---------------------------------------------------------------------
 Center     Atomic      Atomic             Coordinates (Angstroms)
 Number     Number       Type             X           Y           Z
 ---------------------------------------------------------------------
      1          6           0        0.029500    1.339700    0.068200
      2          6           0        1.434800    1.286700    0.006400
      3          6           0        2.111800    0.051100   -0.005400
      4          6           0        1.445100   -1.137200    0.031200
      5          6           0       -0.687900    0.168200    0.110000
      6          1           0       -0.471300    2.298400    0.078100
      7          1           0        2.027300    2.196500   -0.032200
      8          1           0        1.989700   -2.076400    0.023200
      9          1           0       -1.771600    0.180400    0.158200
     10          7           0        3.586400    0.051000   -0.067500
     11          8           0        4.147100   -1.059700   -0.088100
     12          8           0        4.145000    1.163900   -0.090100
     13          6           0       -0.023600   -1.145800    0.083500
     14          1           0       -0.436700   -1.872500    0.788900
     15         35           0       -0.535900   -1.869700   -1.740800
 ---------------------------------------------------------------------
                    Distance matrix (angstroms):
                    1          2          3          4          5
     1  C    0.000000
     2  C    1.407656   0.000000
     3  C    2.449874   1.408963   0.000000
     4  C    2.853126   2.424049   1.363043   0.000000
     5  C    1.374344   2.401589   2.804523   2.501993   0.000000
     6  H    1.081667   2.159142   3.424870   3.934226   2.141421
     7  H    2.176095   1.086408   2.147231   3.384750   3.392128
     8  H    3.938800   3.408612   2.131193   1.085702   3.495040
     9  H    2.143837   3.395283   3.888995   3.478413   1.084840
    10  N    3.785591   2.482297   1.475907   2.450862   4.279589
    11  O    4.768247   3.587631   2.320164   2.705743   4.992415
    12  O    4.122294   2.714696   2.319353   3.549540   4.938459
    13  C    2.486114   2.837240   2.449573   1.469656   1.472614
    14  H    3.324903   3.754379   3.290289   2.157764   2.165286
    15  Br   3.727252   4.110867   3.702891   2.756973   2.757100
                    6          7          8          9         10
     6  H    0.000000
     7  H    2.503108   0.000000
     8  H    5.019802   4.273425   0.000000
     9  H    2.486588   4.304945   4.388479   0.000000
    10  N    4.640790   2.652397   2.661486   5.364313   0.000000
    11  O    5.712624   3.885809   2.387560   6.052233   1.244373
    12  O    4.756638   2.356750   3.893289   6.002923   1.245428
    13  C    3.473180   3.923079   2.218790   2.195425   3.806210
    14  H    4.231175   4.827242   2.552506   2.528663   4.540772
    15  Br   4.548146   5.101303   3.087568   3.055498   4.845862
                   11         12         13         14         15
    11  O    0.000000
    12  O    2.223602   0.000000
    13  C    4.175117   4.768865   0.000000
    14  H    4.737193   5.566358   1.093770   0.000000
    15  Br   5.031700   5.817075   2.028436   2.531646   0.000000
 Symmetry turned off by external request.
 Stoichiometry    C6H5BrNO2(1+)
 Framework group  C1[X(C6H5BrNO2)]
 Deg. of freedom    39
 Full point group                 C1      NOp   1
 Rotational constants (GHZ):           1.8252210           0.5518633           0.4576002
 Leave Link  202 at Wed May  1 14:27:57 2024, MaxMem=  1207959552 cpu:               1.3 elap:               1.3
 (Enter /software/gaussian/g16-c01/sse4/g16/l301.exe)
 Standard basis: 6-311+G(d) (5D, 7F)
 Ernie: Thresh=  0.10000D-02 Tol=  0.10000D-05 Strict=F.
 The following finite field(s) will be applied:
 An electric field of              0.0194  0.0000  0.0000
   261 basis functions,   443 primitive gaussians,   273 cartesian basis functions
    49 alpha electrons       49 beta electrons
       nuclear repulsion energy       739.2122215416 Hartrees.
 IExCor= 4639 DFT=T Ex+Corr=wB97XD ExCW=0 ScaHFX=  1.000000
 ScaDFX=  1.000000  1.000000  1.000000  1.000000 ScalE2=  1.000000  1.000000
 IRadAn=      5 IRanWt=     -1 IRanGd=            0 ICorTp=0 IEmpDi=121
 HFx  wShort=  0.000000 wLong=  0.200000 cFull=  0.222036 cShort=  0.000000 cLong=  0.777964
 DFx  wShort=  0.000000 wLong=  0.200000 cFull=  0.000000 cShort=  0.000000 cLong=  1.000000
 NAtoms=   15 NActive=   15 NUniq=   15 SFac= 1.00D+00 NAtFMM=   60 NAOKFM=F Big=F
 Integral buffers will be    131072 words long.
 Raffenetti 2 integral format.
 Two-electron integral symmetry is turned off.
 R6Disp:  Grimme-D2 Dispersion energy=       -0.0077368520 Hartrees.
 Nuclear repulsion after empirical dispersion term =      739.2044846896 Hartrees.
 Leave Link  301 at Wed May  1 14:27:58 2024, MaxMem=  1207959552 cpu:               1.0 elap:               1.0
 (Enter /software/gaussian/g16-c01/sse4/g16/l302.exe)
 NPDir=0 NMtPBC=     1 NCelOv=     1 NCel=       1 NClECP=     1 NCelD=      1
         NCelK=      1 NCelE2=     1 NClLst=     1 CellRange=     0.0.
 One-electron integrals computed using PRISM.
 NBasis=   261 RedAO= T EigKep=  2.35D-06  NBF=   261
 NBsUse=   261 1.00D-06 EigRej= -1.00D+00 NBFU=   261
 Precomputing XC quadrature grid using
 IXCGrd= 4 IRadAn=           5 IRanWt=          -1 IRanGd=           0 AccXCQ= 0.00D+00.
 Generated NRdTot=       0 NPtTot=           0 NUsed=           0 NTot=          32
 NSgBfM=   273   273   273   273   273 MxSgAt=    15 MxSgA2=    15.
 Leave Link  302 at Wed May  1 14:28:21 2024, MaxMem=  1207959552 cpu:              22.0 elap:              22.0
 (Enter /software/gaussian/g16-c01/sse4/g16/l303.exe)
 DipDrv:  MaxL=1.
 The nuclear repulsion energy is now       742.8661797513 hartrees.
 Leave Link  303 at Wed May  1 14:28:24 2024, MaxMem=  1207959552 cpu:               3.3 elap:               3.3
 (Enter /software/gaussian/g16-c01/sse4/g16/l401.exe)
 ExpMin= 3.50D-02 ExpMax= 4.40D+05 ExpMxC= 1.51D+04 IAcc=3 IRadAn=         5 AccDes= 0.00D+00
 Harris functional with IExCor= 4639 and IRadAn=       5 diagonalized for initial guess.
 HarFok:  IExCor= 4639 AccDes= 0.00D+00 IRadAn=         5 IDoV= 1 UseB2=F ITyADJ=14
 ICtDFT=  3500011 ScaDFX=  1.000000  1.000000  1.000000  1.000000
 FoFCou: FMM=F IPFlag=           0 FMFlag=      100000 FMFlg1=           0
         NFxFlg=           0 DoJE=T BraDBF=F KetDBF=T FulRan=T
         wScrn=  0.000000 ICntrl=       500 IOpCl=  0 I1Cent=   200000004 NGrid=           0
         NMat0=    1 NMatS0=      1 NMatT0=    0 NMatD0=    1 NMtDS0=    0 NMtDT0=    0
 Symmetry not used in FoFCou.
 Harris En= -2970.64960174274    
 JPrj=0 DoOrth=F DoCkMO=F.
 Leave Link  401 at Wed May  1 14:28:55 2024, MaxMem=  1207959552 cpu:              30.7 elap:              30.7
 (Enter /software/gaussian/g16-c01/sse4/g16/l502.exe)
 Two-electron integral symmetry not used.
 Closed shell SCF:
 Using DIIS extrapolation, IDIIS=  1040.
 NGot=  1207959552 LenX=  1207804877 LenY=  1207729907
 Requested convergence on RMS density matrix=1.00D-08 within 128 cycles.
 Requested convergence on MAX density matrix=1.00D-06.
 Requested convergence on             energy=1.00D-06.
 No special actions if energy rises.
 Fock matrices will be formed incrementally for  20 cycles.

 Cycle   1  Pass 1  IDiag  1:
 FoFJK:  IHMeth= 1 ICntrl=       0 DoSepK=T KAlg= 0 I1Cent=           0 FoldK=F
 IRaf=         1 NMat=       1 IRICut=       1 DoRegI=T DoRafI=F ISym2E= 0 IDoP0=0 IntGTp=1.
 FoFCou: FMM=F IPFlag=           0 FMFlag=      100000 FMFlg1=           0
         NFxFlg=           0 DoJE=T BraDBF=F KetDBF=F FulRan=T
         wScrn=  0.000000 ICntrl=       500 IOpCl=  0 I1Cent=           0 NGrid=           0
         NMat0=    1 NMatS0=      1 NMatT0=    0 NMatD0=    1 NMtDS0=    0 NMtDT0=    0
 Symmetry not used in FoFCou.
 E= -3009.71306722324    
 DIIS: error= 3.21D-01 at cycle   1 NSaved=   1.
 NSaved= 1 IEnMin= 1 EnMin= -3009.71306722324     IErMin= 1 ErrMin= 3.21D-01
 ErrMax= 3.21D-01  0.00D+00 EMaxC= 1.00D-01 BMatC= 1.20D+01 BMatP= 1.20D+01
 IDIUse=3 WtCom= 0.00D+00 WtEn= 1.00D+00
 Coeff-Com:  0.100D+01
 Coeff-En:   0.100D+01
 Coeff:      0.100D+01
 Gap=     0.311 Goal=   None    Shift=    0.000
 GapD=    0.311 DampG=1.000 DampE=0.250 DampFc=0.2500 IDamp=-1.
 Damping current iteration by 2.50D-01
 RMSDP=7.78D-02 MaxDP=8.57D+00              OVMax= 2.60D-01

 Cycle   2  Pass 1  IDiag  1:
 RMSU=  5.11D-03    CP:  8.52D-01
 E= -3010.00971570376     Delta-E=       -0.296648480521 Rises=F Damp=T
 DIIS: error= 2.25D-01 at cycle   2 NSaved=   2.
 NSaved= 2 IEnMin= 2 EnMin= -3010.00971570376     IErMin= 2 ErrMin= 2.25D-01
 ErrMax= 2.25D-01  0.00D+00 EMaxC= 1.00D-01 BMatC= 5.46D+00 BMatP= 1.20D+01
 IDIUse=3 WtCom= 0.00D+00 WtEn= 1.00D+00
 Coeff-Com: -0.181D+01 0.281D+01
 Coeff-En:   0.000D+00 0.100D+01
 Coeff:      0.000D+00 0.100D+01
 Gap=     0.265 Goal=   None    Shift=    0.000
 RMSDP=5.86D-02 MaxDP=6.29D+00 DE=-2.97D-01 OVMax= 7.56D-02

 Cycle   3  Pass 1  IDiag  1:
 RMSU=  4.67D-03    CP:  4.02D-01  3.00D+00
 E= -3010.40286478783     Delta-E=       -0.393149084066 Rises=F Damp=F
 DIIS: error= 6.65D-02 at cycle   3 NSaved=   3.
 NSaved= 3 IEnMin= 3 EnMin= -3010.40286478783     IErMin= 3 ErrMin= 6.65D-02
 ErrMax= 6.65D-02  0.00D+00 EMaxC= 1.00D-01 BMatC= 7.62D-01 BMatP= 5.46D+00
 IDIUse=3 WtCom= 3.35D-01 WtEn= 6.65D-01
 Coeff-Com:  0.273D+01-0.359D+01 0.186D+01
 Coeff-En:   0.338D-01 0.000D+00 0.966D+00
 Coeff:      0.935D+00-0.120D+01 0.127D+01
 Gap=     0.270 Goal=   None    Shift=    0.000
 RMSDP=9.46D-03 MaxDP=7.76D-01 DE=-3.93D-01 OVMax= 7.79D-02

 Cycle   4  Pass 1  IDiag  1:
 RMSU=  6.35D-03    CP:  4.30D-01  2.51D+00  1.90D+00
 E= -3010.51251255943     Delta-E=       -0.109647771602 Rises=F Damp=F
 DIIS: error= 3.90D-02 at cycle   4 NSaved=   4.
 NSaved= 4 IEnMin= 4 EnMin= -3010.51251255943     IErMin= 4 ErrMin= 3.90D-02
 ErrMax= 3.90D-02  0.00D+00 EMaxC= 1.00D-01 BMatC= 2.43D-01 BMatP= 7.62D-01
 IDIUse=3 WtCom= 6.10D-01 WtEn= 3.90D-01
 Coeff-Com: -0.330D+00 0.453D+00 0.195D+00 0.683D+00
 Coeff-En:   0.000D+00 0.000D+00 0.209D+00 0.791D+00
 Coeff:     -0.201D+00 0.276D+00 0.200D+00 0.725D+00
 Gap=     0.258 Goal=   None    Shift=    0.000
 RMSDP=4.97D-03 MaxDP=4.94D-01 DE=-1.10D-01 OVMax= 3.68D-02

 Cycle   5  Pass 1  IDiag  1:
 RMSU=  1.79D-03    CP:  3.98D-01  2.89D+00  1.75D+00  8.99D-01
 E= -3010.56243261293     Delta-E=       -0.049920053497 Rises=F Damp=F
 DIIS: error= 6.71D-03 at cycle   5 NSaved=   5.
 NSaved= 5 IEnMin= 5 EnMin= -3010.56243261293     IErMin= 5 ErrMin= 6.71D-03
 ErrMax= 6.71D-03  0.00D+00 EMaxC= 1.00D-01 BMatC= 7.06D-03 BMatP= 2.43D-01
 IDIUse=3 WtCom= 9.33D-01 WtEn= 6.71D-02
 Coeff-Com: -0.143D+00 0.193D+00 0.204D-01 0.296D+00 0.634D+00
 Coeff-En:   0.000D+00 0.000D+00 0.000D+00 0.000D+00 0.100D+01
 Coeff:     -0.134D+00 0.180D+00 0.190D-01 0.276D+00 0.658D+00
 Gap=     0.245 Goal=   None    Shift=    0.000
 RMSDP=8.20D-04 MaxDP=5.55D-02 DE=-4.99D-02 OVMax= 1.02D-02

 Cycle   6  Pass 1  IDiag  1:
 RMSU=  5.11D-04    CP:  3.99D-01  2.82D+00  1.79D+00  9.19D-01  7.55D-01
 E= -3010.56396669739     Delta-E=       -0.001534084461 Rises=F Damp=F
 DIIS: error= 2.96D-04 at cycle   6 NSaved=   6.
 NSaved= 6 IEnMin= 6 EnMin= -3010.56396669739     IErMin= 6 ErrMin= 2.96D-04
 ErrMax= 2.96D-04  0.00D+00 EMaxC= 1.00D-01 BMatC= 5.83D-05 BMatP= 7.06D-03
 IDIUse=3 WtCom= 9.97D-01 WtEn= 2.96D-03
 Coeff-Com: -0.561D-01 0.748D-01-0.174D-01 0.692D-01 0.250D+00 0.680D+00
 Coeff-En:   0.000D+00 0.000D+00 0.000D+00 0.000D+00 0.000D+00 0.100D+01
 Coeff:     -0.559D-01 0.746D-01-0.173D-01 0.690D-01 0.249D+00 0.681D+00
 Gap=     0.247 Goal=   None    Shift=    0.000
 RMSDP=3.80D-04 MaxDP=2.25D-02 DE=-1.53D-03 OVMax= 4.23D-03

 Cycle   7  Pass 1  IDiag  1:
 RMSU=  1.47D-04    CP:  3.98D-01  2.83D+00  1.81D+00  9.34D-01  8.82D-01
                    CP:  7.70D-01
 E= -3010.56404277696     Delta-E=       -0.000076079569 Rises=F Damp=F
 DIIS: error= 3.13D-04 at cycle   7 NSaved=   7.
 NSaved= 7 IEnMin= 7 EnMin= -3010.56404277696     IErMin= 6 ErrMin= 2.96D-04
 ErrMax= 3.13D-04  0.00D+00 EMaxC= 1.00D-01 BMatC= 8.22D-06 BMatP= 5.83D-05
 IDIUse=3 WtCom= 9.97D-01 WtEn= 2.96D-03
 Coeff-Com:  0.546D-02-0.775D-02-0.837D-02-0.227D-01-0.288D-01 0.182D+00
 Coeff-Com:  0.880D+00
 Coeff-En:   0.000D+00 0.000D+00 0.000D+00 0.000D+00 0.000D+00 0.000D+00
 Coeff-En:   0.100D+01
 Coeff:      0.545D-02-0.773D-02-0.834D-02-0.227D-01-0.287D-01 0.181D+00
 Coeff:      0.881D+00
 Gap=     0.247 Goal=   None    Shift=    0.000
 RMSDP=1.09D-04 MaxDP=4.45D-03 DE=-7.61D-05 OVMax= 2.30D-03

 Cycle   8  Pass 1  IDiag  1:
 RMSU=  4.07D-05    CP:  3.98D-01  2.83D+00  1.81D+00  9.42D-01  8.94D-01
                    CP:  8.57D-01  1.37D+00
 E= -3010.56405984632     Delta-E=       -0.000017069363 Rises=F Damp=F
 DIIS: error= 5.52D-05 at cycle   8 NSaved=   8.
 NSaved= 8 IEnMin= 8 EnMin= -3010.56405984632     IErMin= 8 ErrMin= 5.52D-05
 ErrMax= 5.52D-05  0.00D+00 EMaxC= 1.00D-01 BMatC= 1.10D-06 BMatP= 8.22D-06
 IDIUse=1 WtCom= 1.00D+00 WtEn= 0.00D+00
 Coeff-Com:  0.148D-01-0.199D-01 0.514D-03-0.225D-01-0.516D-01-0.427D-01
 Coeff-Com:  0.297D+00 0.824D+00
 Coeff:      0.148D-01-0.199D-01 0.514D-03-0.225D-01-0.516D-01-0.427D-01
 Coeff:      0.297D+00 0.824D+00
 Gap=     0.247 Goal=   None    Shift=    0.000
 RMSDP=5.51D-05 MaxDP=2.13D-03 DE=-1.71D-05 OVMax= 1.16D-03

 Cycle   9  Pass 1  IDiag  1:
 RMSU=  1.97D-05    CP:  3.98D-01  2.83D+00  1.82D+00  9.44D-01  9.06D-01
                    CP:  8.91D-01  1.61D+00  1.21D+00
 E= -3010.56406321158     Delta-E=       -0.000003365257 Rises=F Damp=F
 DIIS: error= 4.49D-05 at cycle   9 NSaved=   9.
 NSaved= 9 IEnMin= 9 EnMin= -3010.56406321158     IErMin= 9 ErrMin= 4.49D-05
 ErrMax= 4.49D-05  0.00D+00 EMaxC= 1.00D-01 BMatC= 3.15D-07 BMatP= 1.10D-06
 IDIUse=1 WtCom= 1.00D+00 WtEn= 0.00D+00
 Coeff-Com:  0.339D-02-0.451D-02 0.926D-03-0.444D-02-0.101D-01-0.326D-01
 Coeff-Com: -0.440D-01 0.267D+00 0.824D+00
 Coeff:      0.339D-02-0.451D-02 0.926D-03-0.444D-02-0.101D-01-0.326D-01
 Coeff:     -0.440D-01 0.267D+00 0.824D+00
 Gap=     0.247 Goal=   None    Shift=    0.000
 RMSDP=2.27D-05 MaxDP=1.50D-03 DE=-3.37D-06 OVMax= 5.83D-04

 Cycle  10  Pass 1  IDiag  1:
 RMSU=  9.18D-06    CP:  3.98D-01  2.83D+00  1.82D+00  9.44D-01  9.05D-01
                    CP:  9.10D-01  1.64D+00  1.36D+00  1.31D+00
 E= -3010.56406380385     Delta-E=       -0.000000592269 Rises=F Damp=F
 DIIS: error= 2.72D-05 at cycle  10 NSaved=  10.
 NSaved=10 IEnMin=10 EnMin= -3010.56406380385     IErMin=10 ErrMin= 2.72D-05
 ErrMax= 2.72D-05  0.00D+00 EMaxC= 1.00D-01 BMatC= 9.16D-08 BMatP= 3.15D-07
 IDIUse=1 WtCom= 1.00D+00 WtEn= 0.00D+00
 Coeff-Com:  0.362D-03-0.455D-03 0.462D-03 0.450D-04 0.150D-02-0.957D-02
 Coeff-Com: -0.585D-01 0.341D-01 0.465D+00 0.567D+00
 Coeff:      0.362D-03-0.455D-03 0.462D-03 0.450D-04 0.150D-02-0.957D-02
 Coeff:     -0.585D-01 0.341D-01 0.465D+00 0.567D+00
 Gap=     0.247 Goal=   None    Shift=    0.000
 RMSDP=9.20D-06 MaxDP=6.50D-04 DE=-5.92D-07 OVMax= 2.44D-04

 Cycle  11  Pass 1  IDiag  1:
 RMSU=  3.10D-06    CP:  3.98D-01  2.83D+00  1.82D+00  9.44D-01  9.05D-01
                    CP:  9.16D-01  1.65D+00  1.40D+00  1.51D+00  1.19D+00
 E= -3010.56406395032     Delta-E=       -0.000000146469 Rises=F Damp=F
 DIIS: error= 1.40D-05 at cycle  11 NSaved=  11.
 NSaved=11 IEnMin=11 EnMin= -3010.56406395032     IErMin=11 ErrMin= 1.40D-05
 ErrMax= 1.40D-05  0.00D+00 EMaxC= 1.00D-01 BMatC= 2.17D-08 BMatP= 9.16D-08
 IDIUse=1 WtCom= 1.00D+00 WtEn= 0.00D+00
 Coeff-Com: -0.632D-03 0.844D-03-0.302D-04 0.144D-02 0.481D-02 0.103D-01
 Coeff-Com: -0.623D-02-0.104D+00-0.128D+00 0.311D+00 0.910D+00
 Coeff:     -0.632D-03 0.844D-03-0.302D-04 0.144D-02 0.481D-02 0.103D-01
 Coeff:     -0.623D-02-0.104D+00-0.128D+00 0.311D+00 0.910D+00
 Gap=     0.247 Goal=   None    Shift=    0.000
 RMSDP=1.18D-05 MaxDP=8.13D-04 DE=-1.46D-07 OVMax= 3.04D-04

 Cycle  12  Pass 1  IDiag  1:
 RMSU=  2.31D-06    CP:  3.98D-01  2.83D+00  1.82D+00  9.44D-01  9.04D-01
                    CP:  9.25D-01  1.65D+00  1.44D+00  1.76D+00  1.60D+00
                    CP:  1.10D+00
 E= -3010.56406402696     Delta-E=       -0.000000076646 Rises=F Damp=F
 DIIS: error= 2.68D-06 at cycle  12 NSaved=  12.
 NSaved=12 IEnMin=12 EnMin= -3010.56406402696     IErMin=12 ErrMin= 2.68D-06
 ErrMax= 2.68D-06  0.00D+00 EMaxC= 1.00D-01 BMatC= 4.55D-09 BMatP= 2.17D-08
 IDIUse=1 WtCom= 1.00D+00 WtEn= 0.00D+00
 Coeff-Com: -0.399D-03 0.529D-03-0.799D-04 0.715D-03 0.168D-02 0.596D-02
 Coeff-Com:  0.598D-02-0.576D-01-0.152D+00 0.527D-01 0.457D+00 0.685D+00
 Coeff:     -0.399D-03 0.529D-03-0.799D-04 0.715D-03 0.168D-02 0.596D-02
 Coeff:      0.598D-02-0.576D-01-0.152D+00 0.527D-01 0.457D+00 0.685D+00
 Gap=     0.247 Goal=   None    Shift=    0.000
 RMSDP=4.62D-06 MaxDP=2.75D-04 DE=-7.66D-08 OVMax= 1.36D-04

 Cycle  13  Pass 1  IDiag  1:
 RMSU=  9.37D-07    CP:  3.98D-01  2.83D+00  1.82D+00  9.44D-01  9.04D-01
                    CP:  9.29D-01  1.65D+00  1.45D+00  1.84D+00  1.75D+00
                    CP:  1.26D+00  1.14D+00
 E= -3010.56406404214     Delta-E=       -0.000000015175 Rises=F Damp=F
 DIIS: error= 1.16D-06 at cycle  13 NSaved=  13.
 NSaved=13 IEnMin=13 EnMin= -3010.56406404214     IErMin=13 ErrMin= 1.16D-06
 ErrMax= 1.16D-06  0.00D+00 EMaxC= 1.00D-01 BMatC= 6.24D-10 BMatP= 4.55D-09
 IDIUse=1 WtCom= 1.00D+00 WtEn= 0.00D+00
 Coeff-Com: -0.504D-05 0.731D-05-0.228D-04-0.206D-03-0.121D-02-0.226D-02
 Coeff-Com:  0.195D-02 0.237D-01 0.160D-01-0.685D-01-0.161D+00 0.658D-01
 Coeff-Com:  0.113D+01
 Coeff:     -0.504D-05 0.731D-05-0.228D-04-0.206D-03-0.121D-02-0.226D-02
 Coeff:      0.195D-02 0.237D-01 0.160D-01-0.685D-01-0.161D+00 0.658D-01
 Coeff:      0.113D+01
 Gap=     0.247 Goal=   None    Shift=    0.000
 RMSDP=1.30D-06 MaxDP=4.45D-05 DE=-1.52D-08 OVMax= 8.61D-05

 Cycle  14  Pass 1  IDiag  1:
 RMSU=  5.81D-07    CP:  3.98D-01  2.83D+00  1.82D+00  9.44D-01  9.04D-01
                    CP:  9.29D-01  1.65D+00  1.45D+00  1.87D+00  1.80D+00
                    CP:  1.33D+00  1.40D+00  1.28D+00
 E= -3010.56406404622     Delta-E=       -0.000000004079 Rises=F Damp=F
 DIIS: error= 7.49D-07 at cycle  14 NSaved=  14.
 NSaved=14 IEnMin=14 EnMin= -3010.56406404622     IErMin=14 ErrMin= 7.49D-07
 ErrMax= 7.49D-07  0.00D+00 EMaxC= 1.00D-01 BMatC= 1.12D-10 BMatP= 6.24D-10
 IDIUse=1 WtCom= 1.00D+00 WtEn= 0.00D+00
 Coeff-Com:  0.325D-04-0.426D-04-0.234D-06-0.127D-03-0.461D-03-0.131D-02
 Coeff-Com: -0.710D-03 0.148D-01 0.247D-01-0.305D-01-0.118D+00-0.890D-01
 Coeff-Com:  0.323D+00 0.878D+00
 Coeff:      0.325D-04-0.426D-04-0.234D-06-0.127D-03-0.461D-03-0.131D-02
 Coeff:     -0.710D-03 0.148D-01 0.247D-01-0.305D-01-0.118D+00-0.890D-01
 Coeff:      0.323D+00 0.878D+00
 Gap=     0.247 Goal=   None    Shift=    0.000
 RMSDP=6.75D-07 MaxDP=3.14D-05 DE=-4.08D-09 OVMax= 3.83D-05

 Cycle  15  Pass 1  IDiag  1:
 RMSU=  2.06D-07    CP:  3.98D-01  2.83D+00  1.82D+00  9.44D-01  9.03D-01
                    CP:  9.30D-01  1.65D+00  1.45D+00  1.88D+00  1.83D+00
                    CP:  1.35D+00  1.49D+00  1.46D+00  1.34D+00
 E= -3010.56406404698     Delta-E=       -0.000000000764 Rises=F Damp=F
 DIIS: error= 3.04D-07 at cycle  15 NSaved=  15.
 NSaved=15 IEnMin=15 EnMin= -3010.56406404698     IErMin=15 ErrMin= 3.04D-07
 ErrMax= 3.04D-07  0.00D+00 EMaxC= 1.00D-01 BMatC= 3.47D-11 BMatP= 1.12D-10
 IDIUse=1 WtCom= 1.00D+00 WtEn= 0.00D+00
 Coeff-Com:  0.986D-05-0.132D-04 0.424D-05 0.189D-04 0.213D-03 0.288D-03
 Coeff-Com: -0.857D-03-0.188D-02 0.356D-02 0.799D-02 0.608D-02-0.434D-01
 Coeff-Com: -0.203D+00 0.352D+00 0.879D+00
 Coeff:      0.986D-05-0.132D-04 0.424D-05 0.189D-04 0.213D-03 0.288D-03
 Coeff:     -0.857D-03-0.188D-02 0.356D-02 0.799D-02 0.608D-02-0.434D-01
 Coeff:     -0.203D+00 0.352D+00 0.879D+00
 Gap=     0.247 Goal=   None    Shift=    0.000
 RMSDP=2.73D-07 MaxDP=1.37D-05 DE=-7.64D-10 OVMax= 1.67D-05

 Cycle  16  Pass 1  IDiag  1:
 RMSU=  8.82D-08    CP:  3.98D-01  2.83D+00  1.82D+00  9.44D-01  9.03D-01
                    CP:  9.30D-01  1.65D+00  1.45D+00  1.88D+00  1.83D+00
                    CP:  1.36D+00  1.49D+00  1.57D+00  1.59D+00  1.17D+00
 E= -3010.56406404713     Delta-E=       -0.000000000154 Rises=F Damp=F
 DIIS: error= 1.38D-07 at cycle  16 NSaved=  16.
 NSaved=16 IEnMin=16 EnMin= -3010.56406404713     IErMin=16 ErrMin= 1.38D-07
 ErrMax= 1.38D-07  0.00D+00 EMaxC= 1.00D-01 BMatC= 3.44D-12 BMatP= 3.47D-11
 IDIUse=1 WtCom= 1.00D+00 WtEn= 0.00D+00
 Coeff-Com: -0.534D-05 0.711D-05 0.822D-06 0.212D-04 0.885D-04 0.230D-03
 Coeff-Com: -0.119D-03-0.251D-02-0.220D-02 0.632D-02 0.180D-01 0.477D-02
 Coeff-Com: -0.101D+00-0.478D-01 0.176D+00 0.949D+00
 Coeff:     -0.534D-05 0.711D-05 0.822D-06 0.212D-04 0.885D-04 0.230D-03
 Coeff:     -0.119D-03-0.251D-02-0.220D-02 0.632D-02 0.180D-01 0.477D-02
 Coeff:     -0.101D+00-0.478D-01 0.176D+00 0.949D+00
 Gap=     0.247 Goal=   None    Shift=    0.000
 RMSDP=9.94D-08 MaxDP=5.34D-06 DE=-1.54D-10 OVMax= 4.94D-06

 Cycle  17  Pass 1  IDiag  1:
 RMSU=  2.36D-08    CP:  3.98D-01  2.83D+00  1.82D+00  9.44D-01  9.03D-01
                    CP:  9.30D-01  1.65D+00  1.45D+00  1.88D+00  1.83D+00
                    CP:  1.36D+00  1.49D+00  1.59D+00  1.68D+00  1.35D+00
                    CP:  1.29D+00
 E= -3010.56406404716     Delta-E=       -0.000000000024 Rises=F Damp=F
 DIIS: error= 4.30D-08 at cycle  17 NSaved=  17.
 NSaved=17 IEnMin=17 EnMin= -3010.56406404716     IErMin=17 ErrMin= 4.30D-08
 ErrMax= 4.30D-08  0.00D+00 EMaxC= 1.00D-01 BMatC= 2.71D-13 BMatP= 3.44D-12
 IDIUse=1 WtCom= 1.00D+00 WtEn= 0.00D+00
 Coeff-Com: -0.582D-06 0.765D-06-0.175D-06-0.175D-05-0.227D-04-0.837D-05
 Coeff-Com:  0.147D-03-0.156D-04-0.807D-03-0.733D-03 0.873D-03 0.715D-02
 Coeff-Com:  0.151D-01-0.442D-01-0.916D-01 0.823D-01 0.103D+01
 Coeff:     -0.582D-06 0.765D-06-0.175D-06-0.175D-05-0.227D-04-0.837D-05
 Coeff:      0.147D-03-0.156D-04-0.807D-03-0.733D-03 0.873D-03 0.715D-02
 Coeff:      0.151D-01-0.442D-01-0.916D-01 0.823D-01 0.103D+01
 Gap=     0.247 Goal=   None    Shift=    0.000
 RMSDP=3.54D-08 MaxDP=1.67D-06 DE=-2.36D-11 OVMax= 1.10D-06

 Cycle  18  Pass 1  IDiag  1:
 RMSU=  9.05D-09    CP:  3.98D-01  2.83D+00  1.82D+00  9.44D-01  9.03D-01
                    CP:  9.30D-01  1.65D+00  1.45D+00  1.88D+00  1.83D+00
                    CP:  1.36D+00  1.49D+00  1.60D+00  1.69D+00  1.37D+00
                    CP:  1.46D+00  1.31D+00
 E= -3010.56406404718     Delta-E=       -0.000000000022 Rises=F Damp=F
 DIIS: error= 1.19D-08 at cycle  18 NSaved=  18.
 NSaved=18 IEnMin=18 EnMin= -3010.56406404718     IErMin=18 ErrMin= 1.19D-08
 ErrMax= 1.19D-08  0.00D+00 EMaxC= 1.00D-01 BMatC= 5.70D-14 BMatP= 2.71D-13
 IDIUse=1 WtCom= 1.00D+00 WtEn= 0.00D+00
 Coeff-Com:  0.261D-06-0.349D-06-0.130D-06-0.242D-05-0.143D-04-0.251D-04
 Coeff-Com:  0.438D-04 0.247D-03 0.564D-04-0.818D-03-0.159D-02 0.185D-02
 Coeff-Com:  0.148D-01-0.752D-02-0.460D-01-0.106D+00 0.288D+00 0.858D+00
 Coeff:      0.261D-06-0.349D-06-0.130D-06-0.242D-05-0.143D-04-0.251D-04
 Coeff:      0.438D-04 0.247D-03 0.564D-04-0.818D-03-0.159D-02 0.185D-02
 Coeff:      0.148D-01-0.752D-02-0.460D-01-0.106D+00 0.288D+00 0.858D+00
 Gap=     0.247 Goal=   None    Shift=    0.000
 RMSDP=1.58D-08 MaxDP=1.07D-06 DE=-2.23D-11 OVMax= 2.58D-07

 Cycle  19  Pass 1  IDiag  1:
 RMSU=  2.90D-09    CP:  3.98D-01  2.83D+00  1.82D+00  9.44D-01  9.03D-01
                    CP:  9.30D-01  1.65D+00  1.45D+00  1.88D+00  1.83D+00
                    CP:  1.36D+00  1.49D+00  1.60D+00  1.68D+00  1.38D+00
                    CP:  1.51D+00  1.48D+00  1.22D+00
 E= -3010.56406404717     Delta-E=        0.000000000007 Rises=F Damp=F
 DIIS: error= 2.77D-09 at cycle  19 NSaved=  19.
 NSaved=19 IEnMin=18 EnMin= -3010.56406404718     IErMin=19 ErrMin= 2.77D-09
 ErrMax= 2.77D-09  0.00D+00 EMaxC= 1.00D-01 BMatC= 4.50D-15 BMatP= 5.70D-14
 IDIUse=1 WtCom= 1.00D+00 WtEn= 0.00D+00
 Large coefficients: NSaved= 19 BigCof=    0.00 CofMax=   10.00 Det=-2.22D-14
 Inversion failed.  Reducing to 18 matrices.
 Coeff-Com:  0.214D-08-0.375D-07-0.198D-06-0.334D-06-0.359D-05-0.104D-04
 Coeff-Com:  0.429D-04 0.111D-03-0.920D-04-0.459D-03-0.420D-03 0.874D-03
 Coeff-Com:  0.339D-02 0.406D-02-0.275D-01-0.529D-01 0.127D+00 0.946D+00
 Coeff:      0.214D-08-0.375D-07-0.198D-06-0.334D-06-0.359D-05-0.104D-04
 Coeff:      0.429D-04 0.111D-03-0.920D-04-0.459D-03-0.420D-03 0.874D-03
 Coeff:      0.339D-02 0.406D-02-0.275D-01-0.529D-01 0.127D+00 0.946D+00
 Gap=     0.247 Goal=   None    Shift=    0.000
 RMSDP=8.27D-09 MaxDP=8.20D-07 DE= 6.82D-12 OVMax= 8.92D-08

 SCF Done:  E(RwB97XD) =  -3010.56406405     A.U. after   19 cycles
            NFock= 19  Conv=0.83D-08     -V/T= 2.0016
 KE= 3.005833158134D+03 PE=-8.635444287763D+03 EE= 1.876180885830D+03
 Leave Link  502 at Wed May  1 14:47:29 2024, MaxMem=  1207959552 cpu:            1113.1 elap:            1113.2
 (Enter /software/gaussian/g16-c01/sse4/g16/l601.exe)
 Copying SCF densities to generalized density rwf, IOpCl= 0 IROHF=0.

 **********************************************************************

            Population analysis using the SCF Density.

 **********************************************************************

 Alpha  occ. eigenvalues -- -483.32676 -62.87666 -56.67386 -56.66782 -56.66770
 Alpha  occ. eigenvalues --  -19.55636 -19.55548 -14.94816 -10.61845 -10.60919
 Alpha  occ. eigenvalues --  -10.60515 -10.59882 -10.58720 -10.54851  -9.03446
 Alpha  occ. eigenvalues --   -6.86194  -6.84221  -6.84180  -2.96080  -2.95565
 Alpha  occ. eigenvalues --   -2.95531  -2.93953  -2.93953  -1.59348  -1.42434
 Alpha  occ. eigenvalues --   -1.26078  -1.17815  -1.14501  -1.07196  -1.05550
 Alpha  occ. eigenvalues --   -0.98190  -0.95145  -0.92037  -0.89200  -0.87683
 Alpha  occ. eigenvalues --   -0.85209  -0.82265  -0.80536  -0.78674  -0.75006
 Alpha  occ. eigenvalues --   -0.71416  -0.70033  -0.66977  -0.66774  -0.66393
 Alpha  occ. eigenvalues --   -0.65653  -0.62375  -0.57262  -0.56699
 Alpha virt. eigenvalues --   -0.31978  -0.29306  -0.18358  -0.16680  -0.15318
 Alpha virt. eigenvalues --   -0.12252  -0.11334  -0.09992  -0.09488  -0.07112
 Alpha virt. eigenvalues --   -0.06237  -0.05523  -0.04695  -0.03796  -0.03219
 Alpha virt. eigenvalues --   -0.02691  -0.02417  -0.01436  -0.00328  -0.00147
 Alpha virt. eigenvalues --    0.00746   0.01476   0.02061   0.02254   0.02822
 Alpha virt. eigenvalues --    0.03472   0.03805   0.04345   0.05169   0.05583
 Alpha virt. eigenvalues --    0.06626   0.07197   0.08137   0.08561   0.08738
 Alpha virt. eigenvalues --    0.09221   0.09789   0.10716   0.10765   0.12160
 Alpha virt. eigenvalues --    0.12574   0.12918   0.13725   0.14253   0.14611
 Alpha virt. eigenvalues --    0.16565   0.17047   0.17953   0.18177   0.20056
 Alpha virt. eigenvalues --    0.20698   0.21256   0.21675   0.22509   0.25976
 Alpha virt. eigenvalues --    0.27030   0.28874   0.31519   0.31591   0.32911
 Alpha virt. eigenvalues --    0.33310   0.34751   0.36201   0.36870   0.39333
 Alpha virt. eigenvalues --    0.39997   0.40772   0.40987   0.41978   0.43836
 Alpha virt. eigenvalues --    0.44382   0.46333   0.48330   0.48730   0.50354
 Alpha virt. eigenvalues --    0.50854   0.52251   0.53806   0.54823   0.55670
 Alpha virt. eigenvalues --    0.59248   0.61210   0.62577   0.63710   0.65146
 Alpha virt. eigenvalues --    0.66128   0.68178   0.70606   0.71404   0.71931
 Alpha virt. eigenvalues --    0.72644   0.73481   0.75479   0.77328   0.80927
 Alpha virt. eigenvalues --    0.83065   0.83611   0.87153   0.88195   0.89591
 Alpha virt. eigenvalues --    0.91075   0.95863   0.98732   1.00192   1.01547
 Alpha virt. eigenvalues --    1.02235   1.03054   1.04633   1.05086   1.07789
 Alpha virt. eigenvalues --    1.12431   1.18559   1.21492   1.30041   1.33131
 Alpha virt. eigenvalues --    1.33930   1.34812   1.42361   1.49707   1.50031
 Alpha virt. eigenvalues --    1.51207   1.52948   1.57403   1.58430   1.63389
 Alpha virt. eigenvalues --    1.64544   1.66679   1.66866   1.70898   1.75684
 Alpha virt. eigenvalues --    1.78914   1.81895   1.83203   1.90338   1.93277
 Alpha virt. eigenvalues --    1.94928   1.96348   1.99272   2.04367   2.05197
 Alpha virt. eigenvalues --    2.06880   2.11742   2.15581   2.18169   2.26755
 Alpha virt. eigenvalues --    2.31510   2.35209   2.38904   2.40905   2.48982
 Alpha virt. eigenvalues --    2.53993   2.58993   2.60496   2.62921   2.64896
 Alpha virt. eigenvalues --    2.65587   2.67730   2.71578   2.72898   2.79018
 Alpha virt. eigenvalues --    2.89879   2.92247   2.93257   3.02569   3.04434
 Alpha virt. eigenvalues --    3.07960   3.11246   3.15292   3.16731   3.17290
 Alpha virt. eigenvalues --    3.20882   3.32432   3.44374   3.45542   3.46975
 Alpha virt. eigenvalues --    3.51823   3.60987   3.64503   3.79000   3.83887
 Alpha virt. eigenvalues --    4.07714   4.07926   4.15203   4.20537   4.34237
 Alpha virt. eigenvalues --    4.41272   4.51008   4.54869   4.82936   4.85508
 Alpha virt. eigenvalues --    4.94196   4.98360   5.53112   6.05616   6.63396
 Alpha virt. eigenvalues --    7.46426   7.47971   7.57656  23.18351  23.58153
 Alpha virt. eigenvalues --   23.67664  23.76439  23.92895  23.98078  35.23166
 Alpha virt. eigenvalues --   47.89799  49.75745  49.84554 289.79088 289.80750
 Alpha virt. eigenvalues --  289.931711020.90163
          Condensed to atoms (all electrons):
               1          2          3          4          5          6
     1  C    8.486941  -2.753663   1.033470  -1.472678  -1.074387   0.291483
     2  C   -2.753663  14.347623  -3.237701  -2.512192   1.636973  -0.010074
     3  C    1.033470  -3.237701  13.156478  -2.499882  -1.582821   0.011878
     4  C   -1.472678  -2.512192  -2.499882  13.223307   1.256280   0.011106
     5  C   -1.074387   1.636973  -1.582821   1.256280   7.711614   0.036324
     6  H    0.291483  -0.010074   0.011878   0.011106   0.036324   0.300354
     7  H    0.056704   0.256418   0.086313  -0.036876  -0.022769  -0.001835
     8  H   -0.000153  -0.018481   0.052612   0.278642   0.005158   0.000002
     9  H    0.016234   0.001851  -0.002625  -0.004084   0.321571  -0.001441
    10  N   -0.081876   0.322838  -0.948955   0.224185   0.070995  -0.000347
    11  O    0.028100   0.011430  -0.246388  -0.064583  -0.051957  -0.000011
    12  O    0.212215  -0.054562  -0.265153  -0.005943  -0.045331  -0.000068
    13  C    1.789009  -2.536493   1.119860  -2.686461  -2.310452  -0.011048
    14  H    0.009970  -0.026568   0.016223  -0.037813  -0.101239  -0.000061
    15  Br   0.079754   0.000717   0.056356   0.156648   0.077408  -0.000348
               7          8          9         10         11         12
     1  C    0.056704  -0.000153   0.016234  -0.081876   0.028100   0.212215
     2  C    0.256418  -0.018481   0.001851   0.322838   0.011430  -0.054562
     3  C    0.086313   0.052612  -0.002625  -0.948955  -0.246388  -0.265153
     4  C   -0.036876   0.278642  -0.004084   0.224185  -0.064583  -0.005943
     5  C   -0.022769   0.005158   0.321571   0.070995  -0.051957  -0.045331
     6  H   -0.001835   0.000002  -0.001441  -0.000347  -0.000011  -0.000068
     7  H    0.337753   0.000044   0.000026  -0.030372  -0.001725   0.013137
     8  H    0.000044   0.333099   0.000148  -0.023608   0.013418  -0.000988
     9  H    0.000026   0.000148   0.256703   0.000475   0.000001   0.000006
    10  N   -0.030372  -0.023608   0.000475   7.116316   0.292526   0.265064
    11  O   -0.001725   0.013418   0.000001   0.292526   7.891305  -0.031652
    12  O    0.013137  -0.000988   0.000006   0.265064  -0.031652   7.920871
    13  C    0.013019   0.023238  -0.018590  -0.099449   0.214260   0.049885
    14  H   -0.000009  -0.005709  -0.003827  -0.002026  -0.000081  -0.000074
    15  Br  -0.000342  -0.003384   0.001276  -0.000771   0.001594   0.001901
              13         14         15
     1  C    1.789009   0.009970   0.079754
     2  C   -2.536493  -0.026568   0.000717
     3  C    1.119860   0.016223   0.056356
     4  C   -2.686461  -0.037813   0.156648
     5  C   -2.310452  -0.101239   0.077408
     6  H   -0.011048  -0.000061  -0.000348
     7  H    0.013019  -0.000009  -0.000342
     8  H    0.023238  -0.005709  -0.003384
     9  H   -0.018590  -0.003827   0.001276
    10  N   -0.099449  -0.002026  -0.000771
    11  O    0.214260  -0.000081   0.001594
    12  O    0.049885  -0.000074   0.001901
    13  C   10.625503   0.434428  -0.176045
    14  H    0.434428   0.315068  -0.034792
    15  Br  -0.176045  -0.034792  34.552253
 Mulliken charges:
               1
     1  C   -0.621122
     2  C    0.571885
     3  C   -0.749664
     4  C    0.170347
     5  C    0.072633
     6  H    0.374084
     7  H    0.330514
     8  H    0.345962
     9  H    0.432276
    10  N   -0.104993
    11  O   -0.056237
    12  O   -0.059306
    13  C   -0.430664
    14  H    0.436509
    15  Br   0.287776
 Sum of Mulliken charges =   1.00000
 Mulliken charges with hydrogens summed into heavy atoms:
               1
     1  C   -0.247038
     2  C    0.902399
     3  C   -0.749664
     4  C    0.516309
     5  C    0.504908
    10  N   -0.104993
    11  O   -0.056237
    12  O   -0.059306
    13  C    0.005845
    15  Br   0.287776
 Electronic spatial extent (au):  <R**2>=           2807.7391
 Charge=              1.0000 electrons
 Dipole moment (field-independent basis, Debye):
    X=             -6.7676    Y=             -1.2828    Z=             -0.5211  Tot=              6.9078
 Quadrupole moment (field-independent basis, Debye-Ang):
   XX=            -85.8172   YY=            -51.4022   ZZ=            -61.2325
   XY=              2.1689   XZ=              2.6315   YZ=              3.0652
 Traceless Quadrupole moment (field-independent basis, Debye-Ang):
   XX=            -19.6666   YY=             14.7484   ZZ=              4.9181
   XY=              2.1689   XZ=              2.6315   YZ=              3.0652
 Octapole moment (field-independent basis, Debye-Ang**2):
  XXX=           -383.1382  YYY=             82.7754  ZZZ=             73.6200  XYY=            -90.1409
  XXY=             27.3680  XXZ=             31.8819  XZZ=            -84.8095  YZZ=             12.7286
  YYZ=             22.2508  XYZ=             -6.1569
 Hexadecapole moment (field-independent basis, Debye-Ang**3):
 XXXX=          -2645.0272 YYYY=           -666.5405 ZZZZ=           -336.8749 XXXY=            -67.9942
 XXXZ=            -11.5829 YYYX=            -53.5245 YYYZ=           -146.2721 ZZZX=            -10.3959
 ZZZY=           -126.9821 XXYY=           -484.1763 XXZZ=           -376.4751 YYZZ=           -155.5718
 XXYZ=            -51.0780 YYXZ=              4.6255 ZZXY=             -2.8768
 N-N= 7.428661797513D+02 E-N=-8.635444286701D+03  KE= 3.005833158134D+03
 No NMR shielding tensors so no spin-rotation constants.
 Leave Link  601 at Wed May  1 14:47:36 2024, MaxMem=  1207959552 cpu:               7.4 elap:               7.3
 (Enter /software/gaussian/g16-c01/sse4/g16/l9999.exe)
 Unable to Open any file for archive entry.
 1\1\GINC-BHX0027\SP\RwB97XD\6-311+G(d)\C6H5Br1N1O2(1+)\BWEIGHT\01-May-
 2024\0\\#P wB97XD/6-311+G* NoSymm #P Field=X+194\\TitleMe\\1,1\C,0,0.0
 295,1.3397,0.0682\C,0,1.4348,1.2867,0.0064\C,0,2.1118,0.0511,-0.0054\C
 ,0,1.4451,-1.1372,0.0312\C,0,-0.6879,0.1682,0.11\H,0,-0.4713,2.2984,0.
 0781\H,0,2.0273,2.1965,-0.0322\H,0,1.9897,-2.0764,0.0232\H,0,-1.7716,0
 .1804,0.1582\N,0,3.5864,0.051,-0.0675\O,0,4.1471,-1.0597,-0.0881\O,0,4
 .145,1.1639,-0.0901\C,0,-0.0236,-1.1458,0.0835\H,0,-0.4367,-1.8725,0.7
 889\Br,0,-0.5359,-1.8697,-1.7408\\Version=ES64L-G16RevC.01\HF=-3010.56
 4064\RMSD=8.272e-09\Dipole=-4.5691001,0.6433724,0.941159\Quadrupole=-1
 4.6216178,10.9651009,3.6565169,1.6125302,1.9564886,2.2789318\PG=C01 [X
 (C6H5Br1N1O2)]\\@
 The archive entry for this job was punched.


 MY DESCRIPTION OF EXPERIENCE IS NOT WHAT HAPPENS
 TO A MAN.  EXPERIENCE IS WHAT A MAN DOES WITH WHAT
 HAPPENS TO HIM.
                         - CHUCK KNOX, SEATTLE SEAHAWKS, 1985
 Job cpu time:       0 days  0 hours 19 minutes 46.3 seconds.
 Elapsed time:       0 days  0 hours 19 minutes 46.3 seconds.
 File lengths (MBytes):  RWF=     40 Int=      0 D2E=      0 Chk=     32 Scr=      1
 Normal termination of Gaussian 16 at Wed May  1 14:47:37 2024.
