 Entering Gaussian System, Link 0=g16
 Initial command:
 /software/gaussian/g16-c01/sse4/g16/l1.exe "/local_scratch/24665253/Gau-12937.inp" -scrdir="/local_scratch/24665253/"
 Entering Link 1 = /software/gaussian/g16-c01/sse4/g16/l1.exe PID=     13083.
  
 Copyright (c) 1988-2019, Gaussian, Inc.  All Rights Reserved.
  
 This is part of the Gaussian(R) 16 program.  It is based on
 the Gaussian(R) 09 system (copyright 2009, Gaussian, Inc.),
 the Gaussian(R) 03 system (copyright 2003, Gaussian, Inc.),
 the Gaussian(R) 98 system (copyright 1998, Gaussian, Inc.),
 the Gaussian(R) 94 system (copyright 1995, Gaussian, Inc.),
 the Gaussian 92(TM) system (copyright 1992, Gaussian, Inc.),
 the Gaussian 90(TM) system (copyright 1990, Gaussian, Inc.),
 the Gaussian 88(TM) system (copyright 1988, Gaussian, Inc.),
 the Gaussian 86(TM) system (copyright 1986, Carnegie Mellon
 University), and the Gaussian 82(TM) system (copyright 1983,
 Carnegie Mellon University). Gaussian is a federally registered
 trademark of Gaussian, Inc.
  
 This software contains proprietary and confidential information,
 including trade secrets, belonging to Gaussian, Inc.
  
 This software is provided under written license and may be
 used, copied, transmitted, or stored only in accord with that
 written license.
  
 The following legend is applicable only to US Government
 contracts under FAR:
  
                    RESTRICTED RIGHTS LEGEND
  
 Use, reproduction and disclosure by the US Government is
 subject to restrictions as set forth in subparagraphs (a)
 and (c) of the Commercial Computer Software - Restricted
 Rights clause in FAR 52.227-19.
  
 Gaussian, Inc.
 340 Quinnipiac St., Bldg. 40, Wallingford CT 06492
  
  
 ---------------------------------------------------------------
 Warning -- This program may not be used in any manner that
 competes with the business of Gaussian, Inc. or will provide
 assistance to any competitor of Gaussian, Inc.  The licensee
 of this program is prohibited from giving any competitor of
 Gaussian, Inc. access to this program.  By using this program,
 the user acknowledges that Gaussian, Inc. is engaged in the
 business of creating and licensing software in the field of
 computational chemistry and represents and warrants to the
 licensee that it is not a competitor of Gaussian, Inc. and that
 it will not use this program in any manner prohibited above.
 ---------------------------------------------------------------
  

 Cite this work as:
 Gaussian 16, Revision C.01,
 M. J. Frisch, G. W. Trucks, H. B. Schlegel, G. E. Scuseria, 
 M. A. Robb, J. R. Cheeseman, G. Scalmani, V. Barone, 
 G. A. Petersson, H. Nakatsuji, X. Li, M. Caricato, A. V. Marenich, 
 J. Bloino, B. G. Janesko, R. Gomperts, B. Mennucci, H. P. Hratchian, 
 J. V. Ortiz, A. F. Izmaylov, J. L. Sonnenberg, D. Williams-Young, 
 F. Ding, F. Lipparini, F. Egidi, J. Goings, B. Peng, A. Petrone, 
 T. Henderson, D. Ranasinghe, V. G. Zakrzewski, J. Gao, N. Rega, 
 G. Zheng, W. Liang, M. Hada, M. Ehara, K. Toyota, R. Fukuda, 
 J. Hasegawa, M. Ishida, T. Nakajima, Y. Honda, O. Kitao, H. Nakai, 
 T. Vreven, K. Throssell, J. A. Montgomery, Jr., J. E. Peralta, 
 F. Ogliaro, M. J. Bearpark, J. J. Heyd, E. N. Brothers, K. N. Kudin, 
 V. N. Staroverov, T. A. Keith, R. Kobayashi, J. Normand, 
 K. Raghavachari, A. P. Rendell, J. C. Burant, S. S. Iyengar, 
 J. Tomasi, M. Cossi, J. M. Millam, M. Klene, C. Adamo, R. Cammi, 
 J. W. Ochterski, R. L. Martin, K. Morokuma, O. Farkas, 
 J. B. Foresman, and D. J. Fox, Gaussian, Inc., Wallingford CT, 2019.
 
 ******************************************
 Gaussian 16:  ES64L-G16RevC.01  3-Jul-2019
                 2-May-2024 
 ******************************************
 %chk=geometry.chk
 %mem=1GB
 %nprocshared=12
 Will use up to   12 processors via shared memory.
 ---------------------------------------
 #P wB97XD/6-311+G* NoSymm #P Field=X-97
 ---------------------------------------
 1/38=1,172=1/1;
 2/12=2,15=1,17=6,18=5,40=1/2;
 3/5=4,6=6,7=11,11=2,14=1,15=-97,25=1,30=1,74=-58/1,2,3;
 4//1;
 5/5=2,38=5/2;
 6/7=2,8=2,9=2,10=2,28=1/1;
 99/5=1,9=1/99;
 Leave Link    1 at Thu May  2 13:57:32 2024, MaxMem=   134217728 cpu:               2.7 elap:               2.7
 (Enter /software/gaussian/g16-c01/sse4/g16/l101.exe)
 -------
 TitleMe
 -------
 Symbolic Z-matrix:
 Charge =  1 Multiplicity = 1
 C                     0.5193    1.233    -0.0319 
 C                     1.9445    1.2692   -0.0367 
 C                     2.6204    0.0928   -0.025 
 C                    -0.196     0.0301    0.001 
 H                    -0.0207    2.1742   -0.0434 
 H                     2.4828    2.2089   -0.0361 
 H                    -1.2777    0.0399    0.0117 
 N                     4.0921    0.0959    0.0366 
 O                     4.6393   -1.0217    0.1446 
 O                     4.6649    1.1984   -0.0233 
 C                     0.4943   -1.1671    0.021 
 H                    -0.0325   -2.1149    0.0545 
 C                     1.9629   -1.2165   -0.0211 
 H                     2.4436   -1.9631    0.6151 
 Br                    2.173    -1.9491   -1.9062 
 
 ITRead=  0  0  0  0  0  0  0  0  0  0  0  0  0  0  0
 MicOpt= -1 -1 -1 -1 -1 -1 -1 -1 -1 -1 -1 -1 -1 -1 -1
 NAtoms=     15 NQM=       15 NQMF=       0 NMMI=      0 NMMIF=      0
                NMic=       0 NMicF=      0.
                    Isotopes and Nuclear Properties:
 (Nuclear quadrupole moments (NQMom) in fm**2, nuclear magnetic moments (NMagM)
  in nuclear magnetons)

  Atom         1           2           3           4           5           6           7           8           9          10
 IAtWgt=          12          12          12          12           1           1           1          14          16          16
 AtmWgt=  12.0000000  12.0000000  12.0000000  12.0000000   1.0078250   1.0078250   1.0078250  14.0030740  15.9949146  15.9949146
 NucSpn=           0           0           0           0           1           1           1           2           0           0
 AtZEff=  -0.0000000  -0.0000000  -0.0000000  -0.0000000  -0.0000000  -0.0000000  -0.0000000  -0.0000000  -0.0000000  -0.0000000
 NQMom=    0.0000000   0.0000000   0.0000000   0.0000000   0.0000000   0.0000000   0.0000000   2.0440000   0.0000000   0.0000000
 NMagM=    0.0000000   0.0000000   0.0000000   0.0000000   2.7928460   2.7928460   2.7928460   0.4037610   0.0000000   0.0000000
 AtZNuc=   6.0000000   6.0000000   6.0000000   6.0000000   1.0000000   1.0000000   1.0000000   7.0000000   8.0000000   8.0000000

  Atom        11          12          13          14          15
 IAtWgt=          12           1          12           1          79
 AtmWgt=  12.0000000   1.0078250  12.0000000   1.0078250  78.9183361
 NucSpn=           0           1           0           1           3
 AtZEff=  -0.0000000  -0.0000000  -0.0000000  -0.0000000  -0.0000000
 NQMom=    0.0000000   0.0000000   0.0000000   0.0000000  31.3000000
 NMagM=    0.0000000   2.7928460   0.0000000   2.7928460   2.1063990
 AtZNuc=   6.0000000   1.0000000   6.0000000   1.0000000  35.0000000
 Leave Link  101 at Thu May  2 13:57:35 2024, MaxMem=   134217728 cpu:               1.8 elap:               1.8
 (Enter /software/gaussian/g16-c01/sse4/g16/l202.exe)
                          Input orientation:                          
 ---------------------------------------------------------------------
 Center     Atomic      Atomic             Coordinates (Angstroms)
 Number     Number       Type             X           Y           Z
 ---------------------------------------------------------------------
      1          6           0        0.519300    1.233000   -0.031900
      2          6           0        1.944500    1.269200   -0.036700
      3          6           0        2.620400    0.092800   -0.025000
      4          6           0       -0.196000    0.030100    0.001000
      5          1           0       -0.020700    2.174200   -0.043400
      6          1           0        2.482800    2.208900   -0.036100
      7          1           0       -1.277700    0.039900    0.011700
      8          7           0        4.092100    0.095900    0.036600
      9          8           0        4.639300   -1.021700    0.144600
     10          8           0        4.664900    1.198400   -0.023300
     11          6           0        0.494300   -1.167100    0.021000
     12          1           0       -0.032500   -2.114900    0.054500
     13          6           0        1.962900   -1.216500   -0.021100
     14          1           0        2.443600   -1.963100    0.615100
     15         35           0        2.173000   -1.949100   -1.906200
 ---------------------------------------------------------------------
                    Distance matrix (angstroms):
                    1          2          3          4          5
     1  C    0.000000
     2  C    1.425668   0.000000
     3  C    2.390549   1.356796   0.000000
     4  C    1.399895   2.473566   2.817218   0.000000
     5  H    1.085168   2.163581   3.362733   2.151712   0.000000
     6  H    2.192654   1.082960   2.120598   3.453189   2.503751
     7  H    2.157452   3.449071   3.898632   1.081797   2.477564
     8  N    3.750012   2.448304   1.472992   4.288753   4.608780
     9  O    4.699917   3.541615   2.312322   4.950458   5.653735
    10  O    4.145753   2.721354   2.324292   4.999386   4.786171
    11  C    2.400813   2.835836   2.471794   1.382101   3.381369
    12  H    3.394169   3.920329   3.452266   2.151887   4.290233
    13  C    2.843264   2.485817   1.465124   2.493060   3.928360
    14  H    3.786370   3.334922   2.160489   3.364142   4.860416
    15  Br   4.046416   3.728900   2.812194   3.628609   5.028314
                    6          7          8          9         10
     6  H    0.000000
     7  H    4.341452   0.000000
     8  N    2.657047   5.370150   0.000000
     9  O    3.888434   6.012948   1.249048   0.000000
    10  O    2.404752   6.054572   1.243863   2.226587   0.000000
    11  C    3.918516   2.144043   3.813080   4.149391   4.794941
    12  H    5.003018   2.489080   4.679774   4.798846   5.748876
    13  C    3.464662   3.475788   2.501842   2.688591   3.623886
    14  H    4.222698   4.268978   2.700314   2.434893   3.916224
    15  Br   4.569706   4.420610   3.411663   3.338935   4.434144
                   11         12         13         14         15
    11  C    0.000000
    12  H    1.084880   0.000000
    13  C    1.470034   2.189625   0.000000
    14  H    2.187771   2.543302   1.092353   0.000000
    15  Br   2.672762   2.955683   2.033334   2.535818   0.000000
 Symmetry turned off by external request.
 Stoichiometry    C6H5BrNO2(1+)
 Framework group  C1[X(C6H5BrNO2)]
 Deg. of freedom    39
 Full point group                 C1      NOp   1
 Rotational constants (GHZ):           1.1632986           0.9594224           0.5957624
 Leave Link  202 at Thu May  2 13:57:36 2024, MaxMem=   134217728 cpu:               1.3 elap:               1.3
 (Enter /software/gaussian/g16-c01/sse4/g16/l301.exe)
 Standard basis: 6-311+G(d) (5D, 7F)
 Ernie: Thresh=  0.10000D-02 Tol=  0.10000D-05 Strict=F.
 The following finite field(s) will be applied:
 An electric field of             -0.0097  0.0000  0.0000
   261 basis functions,   443 primitive gaussians,   273 cartesian basis functions
    49 alpha electrons       49 beta electrons
       nuclear repulsion energy       772.8945969580 Hartrees.
 IExCor= 4639 DFT=T Ex+Corr=wB97XD ExCW=0 ScaHFX=  1.000000
 ScaDFX=  1.000000  1.000000  1.000000  1.000000 ScalE2=  1.000000  1.000000
 IRadAn=      5 IRanWt=     -1 IRanGd=            0 ICorTp=0 IEmpDi=121
 HFx  wShort=  0.000000 wLong=  0.200000 cFull=  0.222036 cShort=  0.000000 cLong=  0.777964
 DFx  wShort=  0.000000 wLong=  0.200000 cFull=  0.000000 cShort=  0.000000 cLong=  1.000000
 NAtoms=   15 NActive=   15 NUniq=   15 SFac= 1.00D+00 NAtFMM=   60 NAOKFM=F Big=F
 Integral buffers will be    131072 words long.
 Raffenetti 2 integral format.
 Two-electron integral symmetry is turned off.
 R6Disp:  Grimme-D2 Dispersion energy=       -0.0080346408 Hartrees.
 Nuclear repulsion after empirical dispersion term =      772.8865623173 Hartrees.
 Leave Link  301 at Thu May  2 13:57:38 2024, MaxMem=   134217728 cpu:               1.1 elap:               1.1
 (Enter /software/gaussian/g16-c01/sse4/g16/l302.exe)
 NPDir=0 NMtPBC=     1 NCelOv=     1 NCel=       1 NClECP=     1 NCelD=      1
         NCelK=      1 NCelE2=     1 NClLst=     1 CellRange=     0.0.
 One-electron integrals computed using PRISM.
 NBasis=   261 RedAO= T EigKep=  2.52D-06  NBF=   261
 NBsUse=   261 1.00D-06 EigRej= -1.00D+00 NBFU=   261
 Precomputing XC quadrature grid using
 IXCGrd= 4 IRadAn=           5 IRanWt=          -1 IRanGd=           0 AccXCQ= 0.00D+00.
 Generated NRdTot=       0 NPtTot=           0 NUsed=           0 NTot=          32
 NSgBfM=   273   273   273   273   273 MxSgAt=    15 MxSgA2=    15.
 Leave Link  302 at Thu May  2 13:57:59 2024, MaxMem=   134217728 cpu:              21.7 elap:              21.7
 (Enter /software/gaussian/g16-c01/sse4/g16/l303.exe)
 DipDrv:  MaxL=1.
 The nuclear repulsion energy is now       768.7292184359 hartrees.
 Leave Link  303 at Thu May  2 13:58:03 2024, MaxMem=   134217728 cpu:               3.4 elap:               3.4
 (Enter /software/gaussian/g16-c01/sse4/g16/l401.exe)
 ExpMin= 3.50D-02 ExpMax= 4.40D+05 ExpMxC= 1.51D+04 IAcc=3 IRadAn=         5 AccDes= 0.00D+00
 Harris functional with IExCor= 4639 and IRadAn=       5 diagonalized for initial guess.
 HarFok:  IExCor= 4639 AccDes= 0.00D+00 IRadAn=         5 IDoV= 1 UseB2=F ITyADJ=14
 ICtDFT=  3500011 ScaDFX=  1.000000  1.000000  1.000000  1.000000
 FoFCou: FMM=F IPFlag=           0 FMFlag=      100000 FMFlg1=           0
         NFxFlg=           0 DoJE=T BraDBF=F KetDBF=T FulRan=T
         wScrn=  0.000000 ICntrl=       500 IOpCl=  0 I1Cent=   200000004 NGrid=           0
         NMat0=    1 NMatS0=      1 NMatT0=    0 NMatD0=    1 NMtDS0=    0 NMtDT0=    0
 Symmetry not used in FoFCou.
 Harris En= -2970.67327156178    
 JPrj=0 DoOrth=F DoCkMO=F.
 Leave Link  401 at Thu May  2 13:58:34 2024, MaxMem=   134217728 cpu:              31.3 elap:              31.3
 (Enter /software/gaussian/g16-c01/sse4/g16/l502.exe)
 Two-electron integral symmetry not used.
 Closed shell SCF:
 Using DIIS extrapolation, IDIIS=  1040.
 NGot=   134217728 LenX=   134063053 LenY=   133988083
 Requested convergence on RMS density matrix=1.00D-08 within 128 cycles.
 Requested convergence on MAX density matrix=1.00D-06.
 Requested convergence on             energy=1.00D-06.
 No special actions if energy rises.
 Fock matrices will be formed incrementally for  20 cycles.

 Cycle   1  Pass 1  IDiag  1:
 FoFJK:  IHMeth= 1 ICntrl=       0 DoSepK=T KAlg= 0 I1Cent=           0 FoldK=F
 IRaf=         1 NMat=       1 IRICut=       1 DoRegI=T DoRafI=F ISym2E= 0 IDoP0=0 IntGTp=1.
 FoFCou: FMM=F IPFlag=           0 FMFlag=      100000 FMFlg1=           0
         NFxFlg=           0 DoJE=T BraDBF=F KetDBF=F FulRan=T
         wScrn=  0.000000 ICntrl=       500 IOpCl=  0 I1Cent=           0 NGrid=           0
         NMat0=    1 NMatS0=      1 NMatT0=    0 NMatD0=    1 NMtDS0=    0 NMtDT0=    0
 Symmetry not used in FoFCou.
 E= -3008.68785189986    
 DIIS: error= 2.90D-01 at cycle   1 NSaved=   1.
 NSaved= 1 IEnMin= 1 EnMin= -3008.68785189986     IErMin= 1 ErrMin= 2.90D-01
 ErrMax= 2.90D-01  0.00D+00 EMaxC= 1.00D-01 BMatC= 1.24D+01 BMatP= 1.24D+01
 IDIUse=3 WtCom= 0.00D+00 WtEn= 1.00D+00
 Coeff-Com:  0.100D+01
 Coeff-En:   0.100D+01
 Coeff:      0.100D+01
 Gap=     0.149 Goal=   None    Shift=    0.000
 GapD=    0.149 DampG=1.000 DampE=0.250 DampFc=0.2500 IDamp=-1.
 Damping current iteration by 2.50D-01
 RMSDP=8.40D-02 MaxDP=6.83D+00              OVMax= 9.31D-01

 Cycle   2  Pass 1  IDiag  1:
 RMSU=  2.10D-02    CP:  9.91D-01
 E= -3008.47299796296     Delta-E=        0.214853936895 Rises=F Damp=T
 DIIS: error= 2.18D-01 at cycle   2 NSaved=   2.
 NSaved= 2 IEnMin= 1 EnMin= -3008.68785189986     IErMin= 2 ErrMin= 2.18D-01
 ErrMax= 2.18D-01  0.00D+00 EMaxC= 1.00D-01 BMatC= 5.44D+00 BMatP= 1.24D+01
 IDIUse=3 WtCom= 0.00D+00 WtEn= 1.00D+00
 Coeff-Com: -0.926D+00 0.193D+01
 Coeff-En:   0.566D+00 0.434D+00
 Coeff:      0.566D+00 0.434D+00
 Gap=    -0.291 Goal=   None    Shift=    0.000
 RMSDP=6.49D-02 MaxDP=6.03D+00 DE= 2.15D-01 OVMax= 9.33D-01

 Cycle   3  Pass 1  IDiag  1:
 RMSU=  2.49D-02    CP:  5.94D-01  2.05D+00
 E= -3008.94760284494     Delta-E=       -0.474604881979 Rises=F Damp=F
 DIIS: error= 1.41D-01 at cycle   3 NSaved=   3.
 NSaved= 3 IEnMin= 3 EnMin= -3008.94760284494     IErMin= 3 ErrMin= 1.41D-01
 ErrMax= 1.41D-01  0.00D+00 EMaxC= 1.00D-01 BMatC= 2.53D+00 BMatP= 5.44D+00
 IDIUse=3 WtCom= 0.00D+00 WtEn= 1.00D+00
 EnCoef did   100 forward-backward iterations
 Coeff-Com:  0.565D+00-0.423D+00 0.858D+00
 Coeff-En:   0.467D+00 0.348D-02 0.529D+00
 Coeff:      0.467D+00 0.348D-02 0.529D+00
 Gap=     0.134 Goal=   None    Shift=    0.000
 RMSDP=2.68D-02 MaxDP=2.07D+00 DE=-4.75D-01 OVMax= 5.96D-01

 Cycle   4  Pass 1  IDiag  1:
 RMSU=  1.38D-02    CP:  6.00D-01  9.66D-01  8.70D-01
 E= -3010.32075468609     Delta-E=       -1.373151841152 Rises=F Damp=F
 DIIS: error= 2.75D-02 at cycle   4 NSaved=   4.
 NSaved= 4 IEnMin= 4 EnMin= -3010.32075468609     IErMin= 4 ErrMin= 2.75D-02
 ErrMax= 2.75D-02  0.00D+00 EMaxC= 1.00D-01 BMatC= 1.95D-01 BMatP= 2.53D+00
 IDIUse=3 WtCom= 7.25D-01 WtEn= 2.75D-01
 Coeff-Com: -0.394D-01 0.152D+00 0.905D-01 0.797D+00
 Coeff-En:   0.000D+00 0.000D+00 0.556D-01 0.944D+00
 Coeff:     -0.286D-01 0.110D+00 0.809D-01 0.837D+00
 Gap=     0.148 Goal=   None    Shift=    0.000
 RMSDP=1.85D-02 MaxDP=1.64D+00 DE=-1.37D+00 OVMax= 4.28D-01

 Cycle   5  Pass 1  IDiag  1:
 RMSU=  8.03D-03    CP:  4.99D-01  1.27D+00  9.55D-01  5.94D-01
 E= -3010.37970430342     Delta-E=       -0.058949617322 Rises=F Damp=F
 DIIS: error= 4.69D-02 at cycle   5 NSaved=   5.
 NSaved= 5 IEnMin= 5 EnMin= -3010.37970430342     IErMin= 4 ErrMin= 2.75D-02
 ErrMax= 4.69D-02  0.00D+00 EMaxC= 1.00D-01 BMatC= 2.24D-01 BMatP= 1.95D-01
 IDIUse=2 WtCom= 0.00D+00 WtEn= 1.00D+00
 Coeff-En:   0.000D+00 0.000D+00 0.000D+00 0.417D+00 0.583D+00
 Coeff:      0.000D+00 0.000D+00 0.000D+00 0.417D+00 0.583D+00
 Gap=     0.227 Goal=   None    Shift=    0.000
 RMSDP=1.30D-02 MaxDP=1.11D+00 DE=-5.89D-02 OVMax= 1.13D-01

 Cycle   6  Pass 1  IDiag  1:
 RMSU=  6.81D-03    CP:  5.62D-01  1.10D+00  9.68D-01  9.46D-01  6.22D-01
 E= -3010.50790669663     Delta-E=       -0.128202393217 Rises=F Damp=F
 DIIS: error= 1.55D-02 at cycle   6 NSaved=   6.
 NSaved= 6 IEnMin= 6 EnMin= -3010.50790669663     IErMin= 6 ErrMin= 1.55D-02
 ErrMax= 1.55D-02  0.00D+00 EMaxC= 1.00D-01 BMatC= 3.51D-02 BMatP= 1.95D-01
 IDIUse=3 WtCom= 8.45D-01 WtEn= 1.55D-01
 Coeff-Com:  0.177D-01-0.242D-01-0.403D-02 0.208D+00 0.311D+00 0.491D+00
 Coeff-En:   0.000D+00 0.000D+00 0.000D+00 0.000D+00 0.509D-01 0.949D+00
 Coeff:      0.149D-01-0.204D-01-0.341D-02 0.176D+00 0.271D+00 0.562D+00
 Gap=     0.218 Goal=   None    Shift=    0.000
 RMSDP=5.95D-03 MaxDP=6.36D-01 DE=-1.28D-01 OVMax= 6.50D-02

 Cycle   7  Pass 1  IDiag  1:
 RMSU=  2.25D-03    CP:  5.35D-01  9.55D-01  9.01D-01  8.58D-01  7.61D-01
                    CP:  8.20D-01
 E= -3010.53511563975     Delta-E=       -0.027208943121 Rises=F Damp=F
 DIIS: error= 8.53D-03 at cycle   7 NSaved=   7.
 NSaved= 7 IEnMin= 7 EnMin= -3010.53511563975     IErMin= 7 ErrMin= 8.53D-03
 ErrMax= 8.53D-03  0.00D+00 EMaxC= 1.00D-01 BMatC= 6.80D-03 BMatP= 3.51D-02
 IDIUse=3 WtCom= 9.15D-01 WtEn= 8.53D-02
 Coeff-Com:  0.233D-01-0.332D-01-0.863D-02-0.139D-01-0.263D-01 0.275D+00
 Coeff-Com:  0.784D+00
 Coeff-En:   0.000D+00 0.000D+00 0.000D+00 0.000D+00 0.000D+00 0.000D+00
 Coeff-En:   0.100D+01
 Coeff:      0.213D-01-0.304D-01-0.789D-02-0.127D-01-0.240D-01 0.252D+00
 Coeff:      0.802D+00
 Gap=     0.228 Goal=   None    Shift=    0.000
 RMSDP=3.98D-03 MaxDP=3.30D-01 DE=-2.72D-02 OVMax= 5.58D-02

 Cycle   8  Pass 1  IDiag  1:
 RMSU=  1.28D-03    CP:  5.39D-01  8.26D-01  8.55D-01  8.82D-01  7.26D-01
                    CP:  1.13D+00  1.38D+00
 E= -3010.54303594359     Delta-E=       -0.007920303840 Rises=F Damp=F
 DIIS: error= 4.10D-03 at cycle   8 NSaved=   8.
 NSaved= 8 IEnMin= 8 EnMin= -3010.54303594359     IErMin= 8 ErrMin= 4.10D-03
 ErrMax= 4.10D-03  0.00D+00 EMaxC= 1.00D-01 BMatC= 1.86D-03 BMatP= 6.80D-03
 IDIUse=3 WtCom= 9.59D-01 WtEn= 4.10D-02
 Coeff-Com:  0.111D-01-0.158D-01-0.823D-02-0.435D-01-0.917D-01 0.154D-01
 Coeff-Com:  0.562D+00 0.571D+00
 Coeff-En:   0.000D+00 0.000D+00 0.000D+00 0.000D+00 0.000D+00 0.000D+00
 Coeff-En:   0.000D+00 0.100D+01
 Coeff:      0.106D-01-0.152D-01-0.789D-02-0.417D-01-0.880D-01 0.148D-01
 Coeff:      0.539D+00 0.588D+00
 Gap=     0.229 Goal=   None    Shift=    0.000
 RMSDP=1.65D-03 MaxDP=1.44D-01 DE=-7.92D-03 OVMax= 4.15D-02

 Cycle   9  Pass 1  IDiag  1:
 RMSU=  5.85D-04    CP:  5.45D-01  7.90D-01  8.37D-01  8.89D-01  7.30D-01
                    CP:  1.21D+00  1.66D+00  8.46D-01
 E= -3010.54601313625     Delta-E=       -0.002977192655 Rises=F Damp=F
 DIIS: error= 2.31D-03 at cycle   9 NSaved=   9.
 NSaved= 9 IEnMin= 9 EnMin= -3010.54601313625     IErMin= 9 ErrMin= 2.31D-03
 ErrMax= 2.31D-03  0.00D+00 EMaxC= 1.00D-01 BMatC= 3.72D-04 BMatP= 1.86D-03
 IDIUse=3 WtCom= 9.77D-01 WtEn= 2.31D-02
 Coeff-Com:  0.193D-02-0.267D-02 0.110D-02-0.201D-01-0.420D-01-0.117D+00
 Coeff-Com: -0.968D-03 0.382D+00 0.798D+00
 Coeff-En:   0.000D+00 0.000D+00 0.000D+00 0.000D+00 0.000D+00 0.000D+00
 Coeff-En:   0.000D+00 0.000D+00 0.100D+01
 Coeff:      0.188D-02-0.261D-02 0.107D-02-0.196D-01-0.410D-01-0.114D+00
 Coeff:     -0.946D-03 0.373D+00 0.803D+00
 Gap=     0.227 Goal=   None    Shift=    0.000
 RMSDP=1.48D-03 MaxDP=1.37D-01 DE=-2.98D-03 OVMax= 3.19D-02

 Cycle  10  Pass 1  IDiag  1:
 RMSU=  4.18D-04    CP:  5.43D-01  7.51D-01  8.20D-01  8.59D-01  7.28D-01
                    CP:  1.29D+00  1.84D+00  1.38D+00  9.81D-01
 E= -3010.54730521584     Delta-E=       -0.001292079587 Rises=F Damp=F
 DIIS: error= 5.78D-04 at cycle  10 NSaved=  10.
 NSaved=10 IEnMin=10 EnMin= -3010.54730521584     IErMin=10 ErrMin= 5.78D-04
 ErrMax= 5.78D-04  0.00D+00 EMaxC= 1.00D-01 BMatC= 5.75D-05 BMatP= 3.72D-04
 IDIUse=3 WtCom= 9.94D-01 WtEn= 5.78D-03
 Coeff-Com: -0.512D-03 0.612D-03 0.286D-02-0.745D-02 0.242D-02-0.228D-01
 Coeff-Com: -0.661D-01 0.224D-02 0.188D+00 0.900D+00
 Coeff-En:   0.000D+00 0.000D+00 0.000D+00 0.000D+00 0.000D+00 0.000D+00
 Coeff-En:   0.000D+00 0.000D+00 0.000D+00 0.100D+01
 Coeff:     -0.509D-03 0.609D-03 0.284D-02-0.740D-02 0.241D-02-0.227D-01
 Coeff:     -0.657D-01 0.222D-02 0.187D+00 0.901D+00
 Gap=     0.226 Goal=   None    Shift=    0.000
 RMSDP=5.75D-04 MaxDP=6.63D-02 DE=-1.29D-03 OVMax= 1.77D-02

 Cycle  11  Pass 1  IDiag  1:
 RMSU=  1.23D-04    CP:  5.41D-01  7.51D-01  8.19D-01  8.37D-01  7.32D-01
                    CP:  1.30D+00  1.86D+00  1.57D+00  1.03D+00  1.57D+00
 E= -3010.54762806460     Delta-E=       -0.000322848761 Rises=F Damp=F
 DIIS: error= 2.84D-04 at cycle  11 NSaved=  11.
 NSaved=11 IEnMin=11 EnMin= -3010.54762806460     IErMin=11 ErrMin= 2.84D-04
 ErrMax= 2.84D-04  0.00D+00 EMaxC= 1.00D-01 BMatC= 2.34D-05 BMatP= 5.75D-05
 IDIUse=3 WtCom= 9.97D-01 WtEn= 2.84D-03
 Coeff-Com: -0.125D-02 0.154D-02-0.160D-03-0.329D-02 0.109D-01 0.455D-01
 Coeff-Com:  0.235D-01-0.104D+00-0.242D+00 0.143D+00 0.113D+01
 Coeff-En:   0.000D+00 0.000D+00 0.000D+00 0.000D+00 0.000D+00 0.000D+00
 Coeff-En:   0.000D+00 0.000D+00 0.000D+00 0.000D+00 0.100D+01
 Coeff:     -0.124D-02 0.154D-02-0.160D-03-0.328D-02 0.108D-01 0.454D-01
 Coeff:      0.234D-01-0.104D+00-0.242D+00 0.143D+00 0.113D+01
 Gap=     0.226 Goal=   None    Shift=    0.000
 RMSDP=5.63D-04 MaxDP=5.29D-02 DE=-3.23D-04 OVMax= 1.33D-02

 Cycle  12  Pass 1  IDiag  1:
 RMSU=  7.73D-05    CP:  5.39D-01  7.61D-01  8.22D-01  8.16D-01  7.38D-01
                    CP:  1.30D+00  1.83D+00  1.72D+00  1.02D+00  2.15D+00
                    CP:  1.66D+00
 E= -3010.54776380604     Delta-E=       -0.000135741444 Rises=F Damp=F
 DIIS: error= 1.52D-04 at cycle  12 NSaved=  12.
 NSaved=12 IEnMin=12 EnMin= -3010.54776380604     IErMin=12 ErrMin= 1.52D-04
 ErrMax= 1.52D-04  0.00D+00 EMaxC= 1.00D-01 BMatC= 3.93D-06 BMatP= 2.34D-05
 IDIUse=3 WtCom= 9.98D-01 WtEn= 1.52D-03
 Coeff-Com: -0.415D-03 0.522D-03-0.471D-03-0.824D-03 0.946D-03 0.138D-01
 Coeff-Com:  0.117D-01-0.185D-01-0.761D-01-0.218D+00 0.188D+00 0.110D+01
 Coeff-En:   0.000D+00 0.000D+00 0.000D+00 0.000D+00 0.000D+00 0.000D+00
 Coeff-En:   0.000D+00 0.000D+00 0.000D+00 0.000D+00 0.000D+00 0.100D+01
 Coeff:     -0.414D-03 0.521D-03-0.470D-03-0.823D-03 0.945D-03 0.138D-01
 Coeff:      0.116D-01-0.185D-01-0.760D-01-0.218D+00 0.188D+00 0.110D+01
 Gap=     0.226 Goal=   None    Shift=    0.000
 RMSDP=3.34D-04 MaxDP=4.11D-02 DE=-1.36D-04 OVMax= 8.74D-03

 Cycle  13  Pass 1  IDiag  1:
 RMSU=  3.71D-05    CP:  5.37D-01  7.61D-01  8.21D-01  8.04D-01  7.39D-01
                    CP:  1.31D+00  1.83D+00  1.84D+00  1.00D+00  2.48D+00
                    CP:  2.17D+00  1.19D+00
 E= -3010.54779882648     Delta-E=       -0.000035020439 Rises=F Damp=F
 DIIS: error= 5.59D-05 at cycle  13 NSaved=  13.
 NSaved=13 IEnMin=13 EnMin= -3010.54779882648     IErMin=13 ErrMin= 5.59D-05
 ErrMax= 5.59D-05  0.00D+00 EMaxC= 1.00D-01 BMatC= 8.47D-07 BMatP= 3.93D-06
 IDIUse=1 WtCom= 1.00D+00 WtEn= 0.00D+00
 Coeff-Com:  0.120D-03-0.154D-03-0.639D-04-0.436D-05-0.205D-02-0.460D-02
 Coeff-Com: -0.279D-02 0.149D-01 0.260D-01-0.135D+00-0.171D+00 0.526D+00
 Coeff-Com:  0.748D+00
 Coeff:      0.120D-03-0.154D-03-0.639D-04-0.436D-05-0.205D-02-0.460D-02
 Coeff:     -0.279D-02 0.149D-01 0.260D-01-0.135D+00-0.171D+00 0.526D+00
 Coeff:      0.748D+00
 Gap=     0.227 Goal=   None    Shift=    0.000
 RMSDP=7.89D-05 MaxDP=5.87D-03 DE=-3.50D-05 OVMax= 2.98D-03

 Cycle  14  Pass 1  IDiag  1:
 RMSU=  1.52D-05    CP:  5.37D-01  7.62D-01  8.21D-01  8.01D-01  7.40D-01
                    CP:  1.31D+00  1.83D+00  1.87D+00  1.02D+00  2.57D+00
                    CP:  2.31D+00  1.48D+00  1.01D+00
 E= -3010.54780275202     Delta-E=       -0.000003925543 Rises=F Damp=F
 DIIS: error= 2.31D-05 at cycle  14 NSaved=  14.
 NSaved=14 IEnMin=14 EnMin= -3010.54780275202     IErMin=14 ErrMin= 2.31D-05
 ErrMax= 2.31D-05  0.00D+00 EMaxC= 1.00D-01 BMatC= 8.50D-08 BMatP= 8.47D-07
 IDIUse=1 WtCom= 1.00D+00 WtEn= 0.00D+00
 Coeff-Com:  0.112D-03-0.153D-03 0.266D-04 0.435D-04-0.489D-03-0.236D-02
 Coeff-Com:  0.177D-03 0.507D-02 0.109D-01 0.554D-02-0.376D-01-0.589D-01
 Coeff-Com:  0.727D-01 0.101D+01
 Coeff:      0.112D-03-0.153D-03 0.266D-04 0.435D-04-0.489D-03-0.236D-02
 Coeff:      0.177D-03 0.507D-02 0.109D-01 0.554D-02-0.376D-01-0.589D-01
 Coeff:      0.727D-01 0.101D+01
 Gap=     0.226 Goal=   None    Shift=    0.000
 RMSDP=1.61D-05 MaxDP=1.28D-03 DE=-3.93D-06 OVMax= 4.63D-04

 Cycle  15  Pass 1  IDiag  1:
 RMSU=  8.06D-06    CP:  5.37D-01  7.62D-01  8.22D-01  8.01D-01  7.41D-01
                    CP:  1.31D+00  1.83D+00  1.87D+00  1.02D+00  2.59D+00
                    CP:  2.33D+00  1.54D+00  1.11D+00  1.46D+00
 E= -3010.54780312607     Delta-E=       -0.000000374045 Rises=F Damp=F
 DIIS: error= 9.85D-06 at cycle  15 NSaved=  15.
 NSaved=15 IEnMin=15 EnMin= -3010.54780312607     IErMin=15 ErrMin= 9.85D-06
 ErrMax= 9.85D-06  0.00D+00 EMaxC= 1.00D-01 BMatC= 2.73D-08 BMatP= 8.50D-08
 IDIUse=1 WtCom= 1.00D+00 WtEn= 0.00D+00
 Coeff-Com:  0.682D-05-0.664D-05-0.542D-05 0.217D-03 0.312D-03 0.924D-04
 Coeff-Com:  0.422D-03-0.194D-02-0.370D-02 0.245D-01 0.195D-01-0.102D+00
 Coeff-Com: -0.127D+00 0.276D+00 0.913D+00
 Coeff:      0.682D-05-0.664D-05-0.542D-05 0.217D-03 0.312D-03 0.924D-04
 Coeff:      0.422D-03-0.194D-02-0.370D-02 0.245D-01 0.195D-01-0.102D+00
 Coeff:     -0.127D+00 0.276D+00 0.913D+00
 Gap=     0.226 Goal=   None    Shift=    0.000
 RMSDP=8.91D-06 MaxDP=7.44D-04 DE=-3.74D-07 OVMax= 2.87D-04

 Cycle  16  Pass 1  IDiag  1:
 RMSU=  2.81D-06    CP:  5.37D-01  7.62D-01  8.22D-01  8.00D-01  7.40D-01
                    CP:  1.31D+00  1.83D+00  1.87D+00  1.02D+00  2.59D+00
                    CP:  2.34D+00  1.56D+00  1.16D+00  1.71D+00  1.30D+00
 E= -3010.54780320886     Delta-E=       -0.000000082795 Rises=F Damp=F
 DIIS: error= 4.52D-06 at cycle  16 NSaved=  16.
 NSaved=16 IEnMin=16 EnMin= -3010.54780320886     IErMin=16 ErrMin= 4.52D-06
 ErrMax= 4.52D-06  0.00D+00 EMaxC= 1.00D-01 BMatC= 1.07D-08 BMatP= 2.73D-08
 IDIUse=1 WtCom= 1.00D+00 WtEn= 0.00D+00
 Coeff-Com:  0.822D-05-0.106D-04-0.101D-05 0.500D-04 0.157D-03 0.457D-03
 Coeff-Com: -0.732D-04-0.176D-02-0.343D-02 0.117D-01 0.155D-01-0.249D-01
 Coeff-Com: -0.713D-01-0.105D+00 0.344D+00 0.834D+00
 Coeff:      0.822D-05-0.106D-04-0.101D-05 0.500D-04 0.157D-03 0.457D-03
 Coeff:     -0.732D-04-0.176D-02-0.343D-02 0.117D-01 0.155D-01-0.249D-01
 Coeff:     -0.713D-01-0.105D+00 0.344D+00 0.834D+00
 Gap=     0.226 Goal=   None    Shift=    0.000
 RMSDP=6.77D-06 MaxDP=5.91D-04 DE=-8.28D-08 OVMax= 8.77D-05

 Cycle  17  Pass 1  IDiag  1:
 RMSU=  1.51D-06    CP:  5.37D-01  7.61D-01  8.22D-01  8.01D-01  7.40D-01
                    CP:  1.31D+00  1.83D+00  1.87D+00  1.02D+00  2.59D+00
                    CP:  2.34D+00  1.55D+00  1.16D+00  1.81D+00  1.38D+00
                    CP:  1.31D+00
 E= -3010.54780322968     Delta-E=       -0.000000020818 Rises=F Damp=F
 DIIS: error= 1.18D-06 at cycle  17 NSaved=  17.
 NSaved=17 IEnMin=17 EnMin= -3010.54780322968     IErMin=17 ErrMin= 1.18D-06
 ErrMax= 1.18D-06  0.00D+00 EMaxC= 1.00D-01 BMatC= 7.30D-10 BMatP= 1.07D-08
 IDIUse=1 WtCom= 1.00D+00 WtEn= 0.00D+00
 Coeff-Com:  0.355D-05-0.412D-05 0.280D-05 0.213D-04 0.355D-04 0.946D-04
 Coeff-Com: -0.241D-03-0.378D-03-0.581D-03 0.321D-03 0.326D-03 0.942D-02
 Coeff-Com: -0.479D-02-0.534D-01-0.318D-01 0.162D+00 0.919D+00
 Coeff:      0.355D-05-0.412D-05 0.280D-05 0.213D-04 0.355D-04 0.946D-04
 Coeff:     -0.241D-03-0.378D-03-0.581D-03 0.321D-03 0.326D-03 0.942D-02
 Coeff:     -0.479D-02-0.534D-01-0.318D-01 0.162D+00 0.919D+00
 Gap=     0.226 Goal=   None    Shift=    0.000
 RMSDP=2.06D-06 MaxDP=2.51D-04 DE=-2.08D-08 OVMax= 2.53D-05

 Cycle  18  Pass 1  IDiag  1:
 RMSU=  3.86D-07    CP:  5.37D-01  7.61D-01  8.22D-01  8.01D-01  7.40D-01
                    CP:  1.31D+00  1.83D+00  1.87D+00  1.02D+00  2.59D+00
                    CP:  2.34D+00  1.55D+00  1.15D+00  1.83D+00  1.39D+00
                    CP:  1.43D+00  1.33D+00
 E= -3010.54780323158     Delta-E=       -0.000000001902 Rises=F Damp=F
 DIIS: error= 5.10D-07 at cycle  18 NSaved=  18.
 NSaved=18 IEnMin=18 EnMin= -3010.54780323158     IErMin=18 ErrMin= 5.10D-07
 ErrMax= 5.10D-07  0.00D+00 EMaxC= 1.00D-01 BMatC= 8.45D-11 BMatP= 7.30D-10
 IDIUse=1 WtCom= 1.00D+00 WtEn= 0.00D+00
 Coeff-Com: -0.225D-06 0.592D-06 0.135D-05 0.464D-05-0.769D-05-0.404D-04
 Coeff-Com: -0.672D-05 0.148D-03 0.266D-03-0.111D-02-0.212D-02 0.557D-02
 Coeff-Com:  0.603D-02 0.626D-02-0.506D-01-0.937D-01 0.184D+00 0.946D+00
 Coeff:     -0.225D-06 0.592D-06 0.135D-05 0.464D-05-0.769D-05-0.404D-04
 Coeff:     -0.672D-05 0.148D-03 0.266D-03-0.111D-02-0.212D-02 0.557D-02
 Coeff:      0.603D-02 0.626D-02-0.506D-01-0.937D-01 0.184D+00 0.946D+00
 Gap=     0.226 Goal=   None    Shift=    0.000
 RMSDP=6.31D-07 MaxDP=5.07D-05 DE=-1.90D-09 OVMax= 1.74D-05

 Cycle  19  Pass 1  IDiag  1:
 RMSU=  1.44D-07    CP:  5.37D-01  7.61D-01  8.22D-01  8.01D-01  7.40D-01
                    CP:  1.31D+00  1.83D+00  1.87D+00  1.02D+00  2.59D+00
                    CP:  2.34D+00  1.55D+00  1.14D+00  1.83D+00  1.38D+00
                    CP:  1.50D+00  1.47D+00  1.10D+00
 E= -3010.54780323193     Delta-E=       -0.000000000346 Rises=F Damp=F
 DIIS: error= 1.81D-07 at cycle  19 NSaved=  19.
 NSaved=19 IEnMin=19 EnMin= -3010.54780323193     IErMin=19 ErrMin= 1.81D-07
 ErrMax= 1.81D-07  0.00D+00 EMaxC= 1.00D-01 BMatC= 1.13D-11 BMatP= 8.45D-11
 IDIUse=1 WtCom= 1.00D+00 WtEn= 0.00D+00
 Coeff-Com: -0.590D-06 0.882D-06-0.112D-06 0.185D-05-0.682D-05-0.280D-04
 Coeff-Com:  0.202D-04 0.101D-03 0.183D-03-0.354D-03-0.110D-02 0.102D-02
 Coeff-Com:  0.258D-02 0.899D-02-0.141D-01-0.456D-01-0.360D-01 0.316D+00
 Coeff-Com:  0.768D+00
 Coeff:     -0.590D-06 0.882D-06-0.112D-06 0.185D-05-0.682D-05-0.280D-04
 Coeff:      0.202D-04 0.101D-03 0.183D-03-0.354D-03-0.110D-02 0.102D-02
 Coeff:      0.258D-02 0.899D-02-0.141D-01-0.456D-01-0.360D-01 0.316D+00
 Coeff:      0.768D+00
 Gap=     0.226 Goal=   None    Shift=    0.000
 RMSDP=2.02D-07 MaxDP=1.97D-05 DE=-3.46D-10 OVMax= 3.61D-06

 Cycle  20  Pass 1  IDiag  1:
 RMSU=  5.37D-08    CP:  5.37D-01  7.61D-01  8.22D-01  8.01D-01  7.40D-01
                    CP:  1.31D+00  1.83D+00  1.87D+00  1.02D+00  2.59D+00
                    CP:  2.34D+00  1.55D+00  1.14D+00  1.83D+00  1.38D+00
                    CP:  1.51D+00  1.48D+00  1.19D+00  1.12D+00
 E= -3010.54780323194     Delta-E=       -0.000000000016 Rises=F Damp=F
 DIIS: error= 1.07D-07 at cycle  20 NSaved=  20.
 NSaved=20 IEnMin=20 EnMin= -3010.54780323194     IErMin=20 ErrMin= 1.07D-07
 ErrMax= 1.07D-07  0.00D+00 EMaxC= 1.00D-01 BMatC= 2.08D-12 BMatP= 1.13D-11
 IDIUse=1 WtCom= 1.00D+00 WtEn= 0.00D+00
 Coeff-Com: -0.140D-06 0.159D-06-0.224D-06-0.597D-06-0.212D-05-0.320D-05
 Coeff-Com:  0.274D-05 0.140D-04 0.277D-04 0.973D-04-0.923D-04-0.480D-03
 Coeff-Com: -0.321D-04 0.173D-02 0.231D-02 0.123D-02-0.412D-01-0.593D-01
 Coeff-Com:  0.192D+00 0.904D+00
 Coeff:     -0.140D-06 0.159D-06-0.224D-06-0.597D-06-0.212D-05-0.320D-05
 Coeff:      0.274D-05 0.140D-04 0.277D-04 0.973D-04-0.923D-04-0.480D-03
 Coeff:     -0.321D-04 0.173D-02 0.231D-02 0.123D-02-0.412D-01-0.593D-01
 Coeff:      0.192D+00 0.904D+00
 Gap=     0.226 Goal=   None    Shift=    0.000
 RMSDP=9.93D-08 MaxDP=9.30D-06 DE=-1.64D-11 OVMax= 2.23D-06

 Cycle  21  Pass 1  IDiag  1:
 Restarting incremental Fock formation.
 E= -3010.54780323200     Delta-E=       -0.000000000059 Rises=F Damp=F
 DIIS: error= 6.62D-08 at cycle  21 NSaved=  20.
 NSaved=20 IEnMin=20 EnMin= -3010.54780323200     IErMin=20 ErrMin= 6.62D-08
 ErrMax= 6.62D-08  0.00D+00 EMaxC= 1.00D-01 BMatC= 2.74D-13 BMatP= 2.08D-12
 IDIUse=1 WtCom= 1.00D+00 WtEn= 0.00D+00
 Coeff-Com: -0.103D-07-0.762D-07-0.260D-06 0.770D-06 0.206D-05-0.541D-05
 Coeff-Com: -0.823D-05-0.206D-04 0.547D-04 0.130D-03-0.185D-03-0.337D-03
 Coeff-Com: -0.880D-03 0.197D-02 0.572D-02 0.102D-02-0.447D-01-0.102D+00
 Coeff-Com:  0.729D-01 0.107D+01
 Coeff:     -0.103D-07-0.762D-07-0.260D-06 0.770D-06 0.206D-05-0.541D-05
 Coeff:     -0.823D-05-0.206D-04 0.547D-04 0.130D-03-0.185D-03-0.337D-03
 Coeff:     -0.880D-03 0.197D-02 0.572D-02 0.102D-02-0.447D-01-0.102D+00
 Coeff:      0.729D-01 0.107D+01
 Gap=     0.226 Goal=   None    Shift=    0.000
 RMSDP=4.03D-08 MaxDP=3.67D-06 DE=-5.91D-11 OVMax= 1.28D-06

 Cycle  22  Pass 1  IDiag  1:
 RMSU=  3.06D-08    CP:  1.00D+00
 E= -3010.54780323197     Delta-E=        0.000000000035 Rises=F Damp=F
 DIIS: error= 3.05D-08 at cycle  22 NSaved=  20.
 NSaved=20 IEnMin=19 EnMin= -3010.54780323200     IErMin=20 ErrMin= 3.05D-08
 ErrMax= 3.05D-08  0.00D+00 EMaxC= 1.00D-01 BMatC= 6.70D-14 BMatP= 2.74D-13
 IDIUse=1 WtCom= 1.00D+00 WtEn= 0.00D+00
 Coeff-Com:  0.458D-07-0.457D-07 0.275D-06 0.771D-06 0.173D-05-0.136D-05
 Coeff-Com: -0.946D-05-0.181D-04 0.419D-04 0.592D-04-0.365D-04-0.397D-03
 Coeff-Com: -0.129D-03-0.153D-04 0.668D-02 0.111D-01-0.357D-01-0.180D+00
 Coeff-Com:  0.586D-01 0.114D+01
 Coeff:      0.458D-07-0.457D-07 0.275D-06 0.771D-06 0.173D-05-0.136D-05
 Coeff:     -0.946D-05-0.181D-04 0.419D-04 0.592D-04-0.365D-04-0.397D-03
 Coeff:     -0.129D-03-0.153D-04 0.668D-02 0.111D-01-0.357D-01-0.180D+00
 Coeff:      0.586D-01 0.114D+01
 Gap=     0.226 Goal=   None    Shift=    0.000
 RMSDP=1.59D-08 MaxDP=7.75D-07 DE= 3.55D-11 OVMax= 7.59D-07

 Cycle  23  Pass 1  IDiag  1:
 RMSU=  1.15D-08    CP:  1.00D+00  1.34D+00
 E= -3010.54780323200     Delta-E=       -0.000000000031 Rises=F Damp=F
 DIIS: error= 1.10D-08 at cycle  23 NSaved=  20.
 NSaved=20 IEnMin=18 EnMin= -3010.54780323200     IErMin=20 ErrMin= 1.10D-08
 ErrMax= 1.10D-08  0.00D+00 EMaxC= 1.00D-01 BMatC= 1.16D-14 BMatP= 6.70D-14
 IDIUse=1 WtCom= 1.00D+00 WtEn= 0.00D+00
 Coeff-Com: -0.583D-07-0.232D-06-0.264D-06 0.176D-05 0.173D-05 0.166D-05
 Coeff-Com: -0.210D-04-0.140D-04 0.531D-04 0.739D-04 0.328D-04-0.313D-03
 Coeff-Com: -0.933D-03 0.141D-02 0.927D-02 0.480D-02-0.560D-01-0.176D+00
 Coeff-Com:  0.275D+00 0.943D+00
 Coeff:     -0.583D-07-0.232D-06-0.264D-06 0.176D-05 0.173D-05 0.166D-05
 Coeff:     -0.210D-04-0.140D-04 0.531D-04 0.739D-04 0.328D-04-0.313D-03
 Coeff:     -0.933D-03 0.141D-02 0.927D-02 0.480D-02-0.560D-01-0.176D+00
 Coeff:      0.275D+00 0.943D+00
 Gap=     0.226 Goal=   None    Shift=    0.000
 RMSDP=8.20D-09 MaxDP=8.65D-07 DE=-3.09D-11 OVMax= 3.43D-07

 SCF Done:  E(RwB97XD) =  -3010.54780323     A.U. after   23 cycles
            NFock= 23  Conv=0.82D-08     -V/T= 2.0016
 KE= 3.005836998098D+03 PE=-8.694949820419D+03 EE= 1.909835800654D+03
 Leave Link  502 at Thu May  2 14:22:06 2024, MaxMem=   134217728 cpu:            1410.9 elap:            1412.0
 (Enter /software/gaussian/g16-c01/sse4/g16/l601.exe)
 Copying SCF densities to generalized density rwf, IOpCl= 0 IROHF=0.

 **********************************************************************

            Population analysis using the SCF Density.

 **********************************************************************

 Alpha  occ. eigenvalues -- -483.27749 -62.82758 -56.62461 -56.61882 -56.61867
 Alpha  occ. eigenvalues --  -19.40186 -19.40137 -14.79725 -10.55712 -10.54552
 Alpha  occ. eigenvalues --  -10.54502 -10.54266 -10.50558 -10.49648  -8.98554
 Alpha  occ. eigenvalues --   -6.81257  -6.79359  -6.79313  -2.91155  -2.90660
 Alpha  occ. eigenvalues --   -2.90623  -2.89104  -2.89103  -1.43893  -1.26782
 Alpha  occ. eigenvalues --   -1.19159  -1.09716  -1.08913  -1.01319  -0.96421
 Alpha  occ. eigenvalues --   -0.92254  -0.87218  -0.81073  -0.76963  -0.75891
 Alpha  occ. eigenvalues --   -0.75361  -0.74222  -0.72284  -0.70323  -0.68674
 Alpha  occ. eigenvalues --   -0.65831  -0.64413  -0.60398  -0.56374  -0.52695
 Alpha  occ. eigenvalues --   -0.51996  -0.51057  -0.49743  -0.49462
 Alpha virt. eigenvalues --   -0.26826  -0.16155  -0.12121  -0.09298  -0.08935
 Alpha virt. eigenvalues --   -0.06113  -0.04535  -0.03158  -0.02383  -0.01140
 Alpha virt. eigenvalues --   -0.00128   0.00596   0.01425   0.02367   0.03645
 Alpha virt. eigenvalues --    0.04212   0.04425   0.05389   0.05621   0.06387
 Alpha virt. eigenvalues --    0.06808   0.07705   0.08531   0.08840   0.09511
 Alpha virt. eigenvalues --    0.09675   0.10573   0.11539   0.11925   0.12976
 Alpha virt. eigenvalues --    0.13197   0.13934   0.14656   0.15243   0.15772
 Alpha virt. eigenvalues --    0.16305   0.17794   0.18413   0.19256   0.19834
 Alpha virt. eigenvalues --    0.20227   0.21133   0.22060   0.22445   0.22870
 Alpha virt. eigenvalues --    0.23843   0.26160   0.26654   0.28809   0.29116
 Alpha virt. eigenvalues --    0.30766   0.32784   0.33627   0.34349   0.35475
 Alpha virt. eigenvalues --    0.36360   0.37474   0.39334   0.39960   0.40944
 Alpha virt. eigenvalues --    0.41807   0.41907   0.42572   0.44573   0.45171
 Alpha virt. eigenvalues --    0.45874   0.48204   0.48895   0.49499   0.51096
 Alpha virt. eigenvalues --    0.52596   0.53996   0.55452   0.56094   0.57541
 Alpha virt. eigenvalues --    0.58796   0.59941   0.60700   0.62043   0.62555
 Alpha virt. eigenvalues --    0.64454   0.65927   0.68374   0.70265   0.71160
 Alpha virt. eigenvalues --    0.73196   0.74300   0.74876   0.77241   0.77971
 Alpha virt. eigenvalues --    0.79749   0.81040   0.84237   0.87070   0.88887
 Alpha virt. eigenvalues --    0.90753   0.92863   0.96261   0.97644   1.03581
 Alpha virt. eigenvalues --    1.05432   1.07381   1.07605   1.09269   1.11025
 Alpha virt. eigenvalues --    1.14237   1.18365   1.18681   1.19794   1.23558
 Alpha virt. eigenvalues --    1.26546   1.28848   1.31873   1.36899   1.39609
 Alpha virt. eigenvalues --    1.40111   1.42621   1.46561   1.58663   1.60026
 Alpha virt. eigenvalues --    1.61976   1.63734   1.65857   1.67776   1.69087
 Alpha virt. eigenvalues --    1.72812   1.74906   1.77845   1.79727   1.82952
 Alpha virt. eigenvalues --    1.86045   1.89244   1.91359   1.98695   1.99990
 Alpha virt. eigenvalues --    2.02340   2.06654   2.06669   2.11256   2.12372
 Alpha virt. eigenvalues --    2.16325   2.17957   2.25436   2.28033   2.29995
 Alpha virt. eigenvalues --    2.36637   2.43983   2.46226   2.48345   2.56272
 Alpha virt. eigenvalues --    2.61287   2.66701   2.69100   2.71989   2.77599
 Alpha virt. eigenvalues --    2.78377   2.82074   2.82245   2.85004   2.87190
 Alpha virt. eigenvalues --    2.96651   3.02408   3.06686   3.09708   3.12429
 Alpha virt. eigenvalues --    3.17709   3.19145   3.21084   3.28023   3.31133
 Alpha virt. eigenvalues --    3.33113   3.42572   3.49232   3.54114   3.60243
 Alpha virt. eigenvalues --    3.62130   3.74890   3.80171   3.86939   3.90767
 Alpha virt. eigenvalues --    4.13586   4.14442   4.23006   4.27116   4.46966
 Alpha virt. eigenvalues --    4.51290   4.58113   4.65145   4.99876   5.02745
 Alpha virt. eigenvalues --    5.11599   5.16066   5.68075   6.21414   6.71590
 Alpha virt. eigenvalues --    7.52464   7.54782   7.64854  23.25272  23.64539
 Alpha virt. eigenvalues --   23.75431  23.80949  23.98343  24.05715  35.37429
 Alpha virt. eigenvalues --   47.97606  49.91324  49.99987 289.85232 289.87569
 Alpha virt. eigenvalues --  290.001841020.98767
          Condensed to atoms (all electrons):
               1          2          3          4          5          6
     1  C    8.698050  -3.054970   1.088554  -0.242289   0.296464   0.064475
     2  C   -3.054970  18.706922  -4.906497   0.341475   0.001111   0.163306
     3  C    1.088554  -4.906497  21.144031  -1.612253   0.027170   0.123334
     4  C   -0.242289   0.341475  -1.612253   6.752783   0.007355  -0.012485
     5  H    0.296464   0.001111   0.027170   0.007355   0.356433  -0.001685
     6  H    0.064475   0.163306   0.123334  -0.012485  -0.001685   0.300655
     7  H    0.037137  -0.037712   0.029617   0.298729  -0.003525  -0.000009
     8  N   -0.165407   0.065666  -1.827918   0.039519  -0.000430  -0.030117
     9  O   -0.022403   0.250966  -0.068805  -0.026582  -0.000041  -0.002685
    10  O    0.331471  -0.207437  -0.236891  -0.024333   0.000053   0.025539
    11  C    1.061009  -0.494247   2.969183  -0.593558  -0.028279   0.008004
    12  H   -0.012120   0.011117   0.023409   0.005498   0.000004  -0.000017
    13  C   -1.971499  -4.807661 -10.529387   1.383428   0.025489  -0.000448
    14  H   -0.004910  -0.002996  -0.030603   0.004880  -0.000031   0.000022
    15  Br  -0.002507  -0.199639  -0.174274   0.003070  -0.000057  -0.000403
               7          8          9         10         11         12
     1  C    0.037137  -0.165407  -0.022403   0.331471   1.061009  -0.012120
     2  C   -0.037712   0.065666   0.250966  -0.207437  -0.494247   0.011117
     3  C    0.029617  -1.827918  -0.068805  -0.236891   2.969183   0.023409
     4  C    0.298729   0.039519  -0.026582  -0.024333  -0.593558   0.005498
     5  H   -0.003525  -0.000430  -0.000041   0.000053  -0.028279   0.000004
     6  H   -0.000009  -0.030117  -0.002685   0.025539   0.008004  -0.000017
     7  H    0.386661  -0.000077   0.000011  -0.000001   0.041345  -0.002890
     8  N   -0.000077   7.887348  -0.046580   0.120738  -0.498503   0.000961
     9  O    0.000011  -0.046580   7.901380   0.018605   0.352186   0.000081
    10  O   -0.000001   0.120738   0.018605   7.813311  -0.000460  -0.000024
    11  C    0.041345  -0.498503   0.352186  -0.000460   9.137952   0.295346
    12  H   -0.002890   0.000961   0.000081  -0.000024   0.295346   0.351174
    13  C   -0.031197   1.559207  -0.439573   0.041956  -6.133530   0.004269
    14  H   -0.000040  -0.025443   0.014207  -0.001846   0.059394  -0.005253
    15  Br  -0.000320   0.163494  -0.056719   0.002887   0.074930  -0.003876
              13         14         15
     1  C   -1.971499  -0.004910  -0.002507
     2  C   -4.807661  -0.002996  -0.199639
     3  C  -10.529387  -0.030603  -0.174274
     4  C    1.383428   0.004880   0.003070
     5  H    0.025489  -0.000031  -0.000057
     6  H   -0.000448   0.000022  -0.000403
     7  H   -0.031197  -0.000040  -0.000320
     8  N    1.559207  -0.025443   0.163494
     9  O   -0.439573   0.014207  -0.056719
    10  O    0.041956  -0.001846   0.002887
    11  C   -6.133530   0.059394   0.074930
    12  H    0.004269  -0.005253  -0.003876
    13  C   26.656415   0.297248   0.346456
    14  H    0.297248   0.307474  -0.035491
    15  Br   0.346456  -0.035491  34.676516
 Mulliken charges:
               1
     1  C   -0.101056
     2  C    0.170596
     3  C   -0.018669
     4  C   -0.325238
     5  H    0.319966
     6  H    0.362512
     7  H    0.282270
     8  N   -0.242459
     9  O    0.125951
    10  O    0.116431
    11  C   -0.250771
    12  H    0.332319
    13  C   -0.401173
    14  H    0.423388
    15  Br   0.205934
 Sum of Mulliken charges =   1.00000
 Mulliken charges with hydrogens summed into heavy atoms:
               1
     1  C    0.218910
     2  C    0.533107
     3  C   -0.018669
     4  C   -0.042969
     8  N   -0.242459
     9  O    0.125951
    10  O    0.116431
    11  C    0.081548
    13  C    0.022216
    15  Br   0.205934
 Electronic spatial extent (au):  <R**2>=           3937.8564
 Charge=              1.0000 electrons
 Dipole moment (field-independent basis, Debye):
    X=              5.5572    Y=             -1.0497    Z=             -0.8925  Tot=              5.7255
 Quadrupole moment (field-independent basis, Debye-Ang):
   XX=            -57.1676   YY=            -50.9828   ZZ=            -61.8849
   XY=             -3.6311   XZ=             -3.3343   YZ=              2.7954
 Traceless Quadrupole moment (field-independent basis, Debye-Ang):
   XX=             -0.4892   YY=              5.6957   ZZ=             -5.2065
   XY=             -3.6311   XZ=             -3.3343   YZ=              2.7954
 Octapole moment (field-independent basis, Debye-Ang**2):
  XXX=           -458.6785  YYY=             90.9856  ZZZ=             81.8863  XYY=           -130.0400
  XXY=             22.6260  XXZ=             22.8234  XZZ=           -128.9104  YZZ=             16.1811
  YYZ=             24.8362  XYZ=              9.6459
 Hexadecapole moment (field-independent basis, Debye-Ang**3):
 XXXX=          -3181.6658 YYYY=           -701.2002 ZZZZ=           -392.8171 XXXY=            175.8116
 XXXZ=            175.3673 YYYX=            180.3587 YYYZ=           -169.6578 ZZZX=            162.2062
 ZZZY=           -142.0435 XXYY=           -598.5349 XXZZ=           -513.0272 YYZZ=           -169.4328
 XXYZ=            -35.4882 YYXZ=             45.2347 ZZXY=             24.4502
 N-N= 7.687292184359D+02 E-N=-8.694949820335D+03  KE= 3.005836998098D+03
 No NMR shielding tensors so no spin-rotation constants.
 Leave Link  601 at Thu May  2 14:22:14 2024, MaxMem=   134217728 cpu:               7.6 elap:               7.6
 (Enter /software/gaussian/g16-c01/sse4/g16/l9999.exe)
 Unable to Open any file for archive entry.
 1\1\GINC-BHX0004\SP\RwB97XD\6-311+G(d)\C6H5Br1N1O2(1+)\BWEIGHT\02-May-
 2024\0\\#P wB97XD/6-311+G* NoSymm #P Field=X-97\\TitleMe\\1,1\C,0,0.51
 93,1.233,-0.0319\C,0,1.9445,1.2692,-0.0367\C,0,2.6204,0.0928,-0.025\C,
 0,-0.196,0.0301,0.001\H,0,-0.0207,2.1742,-0.0434\H,0,2.4828,2.2089,-0.
 0361\H,0,-1.2777,0.0399,0.0117\N,0,4.0921,0.0959,0.0366\O,0,4.6393,-1.
 0217,0.1446\O,0,4.6649,1.1984,-0.0233\C,0,0.4943,-1.1671,0.021\H,0,-0.
 0325,-2.1149,0.0545\C,0,1.9629,-1.2165,-0.0211\H,0,2.4436,-1.9631,0.61
 51\Br,0,2.173,-1.9491,-1.9062\\Version=ES64L-G16RevC.01\HF=-3010.54780
 32\RMSD=8.199e-09\Dipole=-2.1428462,0.8151291,0.8980642\Quadrupole=-0.
 3636741,4.2345814,-3.8709073,-2.6996597,-2.479,2.0782971\PG=C01 [X(C6H
 5Br1N1O2)]\\@
 The archive entry for this job was punched.


 IF YOU GIVE A BOY AND A PIG EVERYTHING THEY WANT,
 YOU'LL GET A BAD BOY AND A GOOD PIG.
 Job cpu time:       0 days  0 hours 24 minutes 42.5 seconds.
 Elapsed time:       0 days  0 hours 24 minutes 43.7 seconds.
 File lengths (MBytes):  RWF=     40 Int=      0 D2E=      0 Chk=     32 Scr=      1
 Normal termination of Gaussian 16 at Thu May  2 14:22:15 2024.
