 Entering Gaussian System, Link 0=g16
 Initial command:
 /software/gaussian/g16-c01/sse4/g16/l1.exe "/local_scratch/24657506/Gau-15015.inp" -scrdir="/local_scratch/24657506/"
 Entering Link 1 = /software/gaussian/g16-c01/sse4/g16/l1.exe PID=     15016.
  
 Copyright (c) 1988-2019, Gaussian, Inc.  All Rights Reserved.
  
 This is part of the Gaussian(R) 16 program.  It is based on
 the Gaussian(R) 09 system (copyright 2009, Gaussian, Inc.),
 the Gaussian(R) 03 system (copyright 2003, Gaussian, Inc.),
 the Gaussian(R) 98 system (copyright 1998, Gaussian, Inc.),
 the Gaussian(R) 94 system (copyright 1995, Gaussian, Inc.),
 the Gaussian 92(TM) system (copyright 1992, Gaussian, Inc.),
 the Gaussian 90(TM) system (copyright 1990, Gaussian, Inc.),
 the Gaussian 88(TM) system (copyright 1988, Gaussian, Inc.),
 the Gaussian 86(TM) system (copyright 1986, Carnegie Mellon
 University), and the Gaussian 82(TM) system (copyright 1983,
 Carnegie Mellon University). Gaussian is a federally registered
 trademark of Gaussian, Inc.
  
 This software contains proprietary and confidential information,
 including trade secrets, belonging to Gaussian, Inc.
  
 This software is provided under written license and may be
 used, copied, transmitted, or stored only in accord with that
 written license.
  
 The following legend is applicable only to US Government
 contracts under FAR:
  
                    RESTRICTED RIGHTS LEGEND
  
 Use, reproduction and disclosure by the US Government is
 subject to restrictions as set forth in subparagraphs (a)
 and (c) of the Commercial Computer Software - Restricted
 Rights clause in FAR 52.227-19.
  
 Gaussian, Inc.
 340 Quinnipiac St., Bldg. 40, Wallingford CT 06492
  
  
 ---------------------------------------------------------------
 Warning -- This program may not be used in any manner that
 competes with the business of Gaussian, Inc. or will provide
 assistance to any competitor of Gaussian, Inc.  The licensee
 of this program is prohibited from giving any competitor of
 Gaussian, Inc. access to this program.  By using this program,
 the user acknowledges that Gaussian, Inc. is engaged in the
 business of creating and licensing software in the field of
 computational chemistry and represents and warrants to the
 licensee that it is not a competitor of Gaussian, Inc. and that
 it will not use this program in any manner prohibited above.
 ---------------------------------------------------------------
  

 Cite this work as:
 Gaussian 16, Revision C.01,
 M. J. Frisch, G. W. Trucks, H. B. Schlegel, G. E. Scuseria, 
 M. A. Robb, J. R. Cheeseman, G. Scalmani, V. Barone, 
 G. A. Petersson, H. Nakatsuji, X. Li, M. Caricato, A. V. Marenich, 
 J. Bloino, B. G. Janesko, R. Gomperts, B. Mennucci, H. P. Hratchian, 
 J. V. Ortiz, A. F. Izmaylov, J. L. Sonnenberg, D. Williams-Young, 
 F. Ding, F. Lipparini, F. Egidi, J. Goings, B. Peng, A. Petrone, 
 T. Henderson, D. Ranasinghe, V. G. Zakrzewski, J. Gao, N. Rega, 
 G. Zheng, W. Liang, M. Hada, M. Ehara, K. Toyota, R. Fukuda, 
 J. Hasegawa, M. Ishida, T. Nakajima, Y. Honda, O. Kitao, H. Nakai, 
 T. Vreven, K. Throssell, J. A. Montgomery, Jr., J. E. Peralta, 
 F. Ogliaro, M. J. Bearpark, J. J. Heyd, E. N. Brothers, K. N. Kudin, 
 V. N. Staroverov, T. A. Keith, R. Kobayashi, J. Normand, 
 K. Raghavachari, A. P. Rendell, J. C. Burant, S. S. Iyengar, 
 J. Tomasi, M. Cossi, J. M. Millam, M. Klene, C. Adamo, R. Cammi, 
 J. W. Ochterski, R. L. Martin, K. Morokuma, O. Farkas, 
 J. B. Foresman, and D. J. Fox, Gaussian, Inc., Wallingford CT, 2019.
 
 ******************************************
 Gaussian 16:  ES64L-G16RevC.01  3-Jul-2019
                 1-May-2024 
 ******************************************
 %chk=geometry.chk
 %mem=9GB
 %nprocshared=12
 Will use up to   12 processors via shared memory.
 ---------------------------------------
 #P wB97XD/6-311+G* NoSymm #P Field=Y+48
 ---------------------------------------
 1/38=1,172=1/1;
 2/12=2,15=1,17=6,18=5,40=1/2;
 3/5=4,6=6,7=11,11=2,14=2,15=48,25=1,30=1,74=-58/1,2,3;
 4//1;
 5/5=2,38=5/2;
 6/7=2,8=2,9=2,10=2,28=1/1;
 99/5=1,9=1/99;
 Leave Link    1 at Wed May  1 14:48:54 2024, MaxMem=  1207959552 cpu:               1.0 elap:               1.0
 (Enter /software/gaussian/g16-c01/sse4/g16/l101.exe)
 -------
 TitleMe
 -------
 Symbolic Z-matrix:
 Charge =  1 Multiplicity = 1
 C                     0.0295    1.3397    0.0682 
 C                     1.4348    1.2867    0.0064 
 C                     2.1118    0.0511   -0.0054 
 C                     1.4451   -1.1372    0.0312 
 C                    -0.6879    0.1682    0.11 
 H                    -0.4713    2.2984    0.0781 
 H                     2.0273    2.1965   -0.0322 
 H                     1.9897   -2.0764    0.0232 
 H                    -1.7716    0.1804    0.1582 
 N                     3.5864    0.051    -0.0675 
 O                     4.1471   -1.0597   -0.0881 
 O                     4.145     1.1639   -0.0901 
 C                    -0.0236   -1.1458    0.0835 
 H                    -0.4367   -1.8725    0.7889 
 Br                   -0.5359   -1.8697   -1.7408 
 
 ITRead=  0  0  0  0  0  0  0  0  0  0  0  0  0  0  0
 MicOpt= -1 -1 -1 -1 -1 -1 -1 -1 -1 -1 -1 -1 -1 -1 -1
 NAtoms=     15 NQM=       15 NQMF=       0 NMMI=      0 NMMIF=      0
                NMic=       0 NMicF=      0.
                    Isotopes and Nuclear Properties:
 (Nuclear quadrupole moments (NQMom) in fm**2, nuclear magnetic moments (NMagM)
  in nuclear magnetons)

  Atom         1           2           3           4           5           6           7           8           9          10
 IAtWgt=          12          12          12          12          12           1           1           1           1          14
 AtmWgt=  12.0000000  12.0000000  12.0000000  12.0000000  12.0000000   1.0078250   1.0078250   1.0078250   1.0078250  14.0030740
 NucSpn=           0           0           0           0           0           1           1           1           1           2
 AtZEff=  -0.0000000  -0.0000000  -0.0000000  -0.0000000  -0.0000000  -0.0000000  -0.0000000  -0.0000000  -0.0000000  -0.0000000
 NQMom=    0.0000000   0.0000000   0.0000000   0.0000000   0.0000000   0.0000000   0.0000000   0.0000000   0.0000000   2.0440000
 NMagM=    0.0000000   0.0000000   0.0000000   0.0000000   0.0000000   2.7928460   2.7928460   2.7928460   2.7928460   0.4037610
 AtZNuc=   6.0000000   6.0000000   6.0000000   6.0000000   6.0000000   1.0000000   1.0000000   1.0000000   1.0000000   7.0000000

  Atom        11          12          13          14          15
 IAtWgt=          16          16          12           1          79
 AtmWgt=  15.9949146  15.9949146  12.0000000   1.0078250  78.9183361
 NucSpn=           0           0           0           1           3
 AtZEff=  -0.0000000  -0.0000000  -0.0000000  -0.0000000  -0.0000000
 NQMom=    0.0000000   0.0000000   0.0000000   0.0000000  31.3000000
 NMagM=    0.0000000   0.0000000   0.0000000   2.7928460   2.1063990
 AtZNuc=   8.0000000   8.0000000   6.0000000   1.0000000  35.0000000
 Leave Link  101 at Wed May  1 14:48:55 2024, MaxMem=  1207959552 cpu:               1.4 elap:               1.4
 (Enter /software/gaussian/g16-c01/sse4/g16/l202.exe)
                          Input orientation:                          
 ---------------------------------------------------------------------
 Center     Atomic      Atomic             Coordinates (Angstroms)
 Number     Number       Type             X           Y           Z
 ---------------------------------------------------------------------
      1          6           0        0.029500    1.339700    0.068200
      2          6           0        1.434800    1.286700    0.006400
      3          6           0        2.111800    0.051100   -0.005400
      4          6           0        1.445100   -1.137200    0.031200
      5          6           0       -0.687900    0.168200    0.110000
      6          1           0       -0.471300    2.298400    0.078100
      7          1           0        2.027300    2.196500   -0.032200
      8          1           0        1.989700   -2.076400    0.023200
      9          1           0       -1.771600    0.180400    0.158200
     10          7           0        3.586400    0.051000   -0.067500
     11          8           0        4.147100   -1.059700   -0.088100
     12          8           0        4.145000    1.163900   -0.090100
     13          6           0       -0.023600   -1.145800    0.083500
     14          1           0       -0.436700   -1.872500    0.788900
     15         35           0       -0.535900   -1.869700   -1.740800
 ---------------------------------------------------------------------
                    Distance matrix (angstroms):
                    1          2          3          4          5
     1  C    0.000000
     2  C    1.407656   0.000000
     3  C    2.449874   1.408963   0.000000
     4  C    2.853126   2.424049   1.363043   0.000000
     5  C    1.374344   2.401589   2.804523   2.501993   0.000000
     6  H    1.081667   2.159142   3.424870   3.934226   2.141421
     7  H    2.176095   1.086408   2.147231   3.384750   3.392128
     8  H    3.938800   3.408612   2.131193   1.085702   3.495040
     9  H    2.143837   3.395283   3.888995   3.478413   1.084840
    10  N    3.785591   2.482297   1.475907   2.450862   4.279589
    11  O    4.768247   3.587631   2.320164   2.705743   4.992415
    12  O    4.122294   2.714696   2.319353   3.549540   4.938459
    13  C    2.486114   2.837240   2.449573   1.469656   1.472614
    14  H    3.324903   3.754379   3.290289   2.157764   2.165286
    15  Br   3.727252   4.110867   3.702891   2.756973   2.757100
                    6          7          8          9         10
     6  H    0.000000
     7  H    2.503108   0.000000
     8  H    5.019802   4.273425   0.000000
     9  H    2.486588   4.304945   4.388479   0.000000
    10  N    4.640790   2.652397   2.661486   5.364313   0.000000
    11  O    5.712624   3.885809   2.387560   6.052233   1.244373
    12  O    4.756638   2.356750   3.893289   6.002923   1.245428
    13  C    3.473180   3.923079   2.218790   2.195425   3.806210
    14  H    4.231175   4.827242   2.552506   2.528663   4.540772
    15  Br   4.548146   5.101303   3.087568   3.055498   4.845862
                   11         12         13         14         15
    11  O    0.000000
    12  O    2.223602   0.000000
    13  C    4.175117   4.768865   0.000000
    14  H    4.737193   5.566358   1.093770   0.000000
    15  Br   5.031700   5.817075   2.028436   2.531646   0.000000
 Symmetry turned off by external request.
 Stoichiometry    C6H5BrNO2(1+)
 Framework group  C1[X(C6H5BrNO2)]
 Deg. of freedom    39
 Full point group                 C1      NOp   1
 Rotational constants (GHZ):           1.8252210           0.5518633           0.4576002
 Leave Link  202 at Wed May  1 14:48:56 2024, MaxMem=  1207959552 cpu:               1.1 elap:               1.1
 (Enter /software/gaussian/g16-c01/sse4/g16/l301.exe)
 Standard basis: 6-311+G(d) (5D, 7F)
 Ernie: Thresh=  0.10000D-02 Tol=  0.10000D-05 Strict=F.
 The following finite field(s) will be applied:
 An electric field of              0.0000  0.0048  0.0000
   261 basis functions,   443 primitive gaussians,   273 cartesian basis functions
    49 alpha electrons       49 beta electrons
       nuclear repulsion energy       739.2122215416 Hartrees.
 IExCor= 4639 DFT=T Ex+Corr=wB97XD ExCW=0 ScaHFX=  1.000000
 ScaDFX=  1.000000  1.000000  1.000000  1.000000 ScalE2=  1.000000  1.000000
 IRadAn=      5 IRanWt=     -1 IRanGd=            0 ICorTp=0 IEmpDi=121
 HFx  wShort=  0.000000 wLong=  0.200000 cFull=  0.222036 cShort=  0.000000 cLong=  0.777964
 DFx  wShort=  0.000000 wLong=  0.200000 cFull=  0.000000 cShort=  0.000000 cLong=  1.000000
 NAtoms=   15 NActive=   15 NUniq=   15 SFac= 1.00D+00 NAtFMM=   60 NAOKFM=F Big=F
 Integral buffers will be    131072 words long.
 Raffenetti 2 integral format.
 Two-electron integral symmetry is turned off.
 R6Disp:  Grimme-D2 Dispersion energy=       -0.0077368520 Hartrees.
 Nuclear repulsion after empirical dispersion term =      739.2044846896 Hartrees.
 Leave Link  301 at Wed May  1 14:48:57 2024, MaxMem=  1207959552 cpu:               1.0 elap:               1.0
 (Enter /software/gaussian/g16-c01/sse4/g16/l302.exe)
 NPDir=0 NMtPBC=     1 NCelOv=     1 NCel=       1 NClECP=     1 NCelD=      1
         NCelK=      1 NCelE2=     1 NClLst=     1 CellRange=     0.0.
 One-electron integrals computed using PRISM.
 NBasis=   261 RedAO= T EigKep=  2.35D-06  NBF=   261
 NBsUse=   261 1.00D-06 EigRej= -1.00D+00 NBFU=   261
 Precomputing XC quadrature grid using
 IXCGrd= 4 IRadAn=           5 IRanWt=          -1 IRanGd=           0 AccXCQ= 0.00D+00.
 Generated NRdTot=       0 NPtTot=           0 NUsed=           0 NTot=          32
 NSgBfM=   273   273   273   273   273 MxSgAt=    15 MxSgA2=    15.
 Leave Link  302 at Wed May  1 14:49:18 2024, MaxMem=  1207959552 cpu:              20.6 elap:              20.7
 (Enter /software/gaussian/g16-c01/sse4/g16/l303.exe)
 DipDrv:  MaxL=1.
 The nuclear repulsion energy is now       738.6589165244 hartrees.
 Leave Link  303 at Wed May  1 14:49:21 2024, MaxMem=  1207959552 cpu:               3.3 elap:               3.2
 (Enter /software/gaussian/g16-c01/sse4/g16/l401.exe)
 ExpMin= 3.50D-02 ExpMax= 4.40D+05 ExpMxC= 1.51D+04 IAcc=3 IRadAn=         5 AccDes= 0.00D+00
 Harris functional with IExCor= 4639 and IRadAn=       5 diagonalized for initial guess.
 HarFok:  IExCor= 4639 AccDes= 0.00D+00 IRadAn=         5 IDoV= 1 UseB2=F ITyADJ=14
 ICtDFT=  3500011 ScaDFX=  1.000000  1.000000  1.000000  1.000000
 FoFCou: FMM=F IPFlag=           0 FMFlag=      100000 FMFlg1=           0
         NFxFlg=           0 DoJE=T BraDBF=F KetDBF=T FulRan=T
         wScrn=  0.000000 ICntrl=       500 IOpCl=  0 I1Cent=   200000004 NGrid=           0
         NMat0=    1 NMatS0=      1 NMatT0=    0 NMatD0=    1 NMtDS0=    0 NMtDT0=    0
 Symmetry not used in FoFCou.
 Harris En= -2970.60037808167    
 JPrj=0 DoOrth=F DoCkMO=F.
 Leave Link  401 at Wed May  1 14:49:51 2024, MaxMem=  1207959552 cpu:              29.5 elap:              29.5
 (Enter /software/gaussian/g16-c01/sse4/g16/l502.exe)
 Two-electron integral symmetry not used.
 Closed shell SCF:
 Using DIIS extrapolation, IDIIS=  1040.
 NGot=  1207959552 LenX=  1207804877 LenY=  1207729907
 Requested convergence on RMS density matrix=1.00D-08 within 128 cycles.
 Requested convergence on MAX density matrix=1.00D-06.
 Requested convergence on             energy=1.00D-06.
 No special actions if energy rises.
 Fock matrices will be formed incrementally for  20 cycles.

 Cycle   1  Pass 1  IDiag  1:
 FoFJK:  IHMeth= 1 ICntrl=       0 DoSepK=T KAlg= 0 I1Cent=           0 FoldK=F
 IRaf=         1 NMat=       1 IRICut=       1 DoRegI=T DoRafI=F ISym2E= 0 IDoP0=0 IntGTp=1.
 FoFCou: FMM=F IPFlag=           0 FMFlag=      100000 FMFlg1=           0
         NFxFlg=           0 DoJE=T BraDBF=F KetDBF=F FulRan=T
         wScrn=  0.000000 ICntrl=       500 IOpCl=  0 I1Cent=           0 NGrid=           0
         NMat0=    1 NMatS0=      1 NMatT0=    0 NMatD0=    1 NMtDS0=    0 NMtDT0=    0
 Symmetry not used in FoFCou.
 E= -3009.71689867089    
 DIIS: error= 3.20D-01 at cycle   1 NSaved=   1.
 NSaved= 1 IEnMin= 1 EnMin= -3009.71689867089     IErMin= 1 ErrMin= 3.20D-01
 ErrMax= 3.20D-01  0.00D+00 EMaxC= 1.00D-01 BMatC= 1.19D+01 BMatP= 1.19D+01
 IDIUse=3 WtCom= 0.00D+00 WtEn= 1.00D+00
 Coeff-Com:  0.100D+01
 Coeff-En:   0.100D+01
 Coeff:      0.100D+01
 Gap=     0.340 Goal=   None    Shift=    0.000
 GapD=    0.340 DampG=1.000 DampE=0.250 DampFc=0.2500 IDamp=-1.
 Damping current iteration by 2.50D-01
 RMSDP=4.39D-02 MaxDP=4.36D+00              OVMax= 2.51D-01

 Cycle   2  Pass 1  IDiag  1:
 RMSU=  4.07D-03    CP:  8.92D-01
 E= -3010.00371461921     Delta-E=       -0.286815948320 Rises=F Damp=T
 DIIS: error= 2.25D-01 at cycle   2 NSaved=   2.
 NSaved= 2 IEnMin= 2 EnMin= -3010.00371461921     IErMin= 2 ErrMin= 2.25D-01
 ErrMax= 2.25D-01  0.00D+00 EMaxC= 1.00D-01 BMatC= 5.46D+00 BMatP= 1.19D+01
 IDIUse=3 WtCom= 0.00D+00 WtEn= 1.00D+00
 Coeff-Com: -0.183D+01 0.283D+01
 Coeff-En:   0.000D+00 0.100D+01
 Coeff:      0.000D+00 0.100D+01
 Gap=     0.291 Goal=   None    Shift=    0.000
 RMSDP=3.41D-02 MaxDP=3.33D+00 DE=-2.87D-01 OVMax= 7.51D-02

 Cycle   3  Pass 1  IDiag  1:
 RMSU=  4.34D-03    CP:  5.49D-01  3.00D+00
 E= -3010.38534824993     Delta-E=       -0.381633630719 Rises=F Damp=F
 DIIS: error= 6.58D-02 at cycle   3 NSaved=   3.
 NSaved= 3 IEnMin= 3 EnMin= -3010.38534824993     IErMin= 3 ErrMin= 6.58D-02
 ErrMax= 6.58D-02  0.00D+00 EMaxC= 1.00D-01 BMatC= 7.38D-01 BMatP= 5.46D+00
 IDIUse=3 WtCom= 3.42D-01 WtEn= 6.58D-01
 Coeff-Com:  0.266D+01-0.349D+01 0.183D+01
 Coeff-En:   0.302D-01 0.000D+00 0.970D+00
 Coeff:      0.929D+00-0.119D+01 0.126D+01
 Gap=     0.270 Goal=   None    Shift=    0.000
 RMSDP=8.06D-03 MaxDP=4.41D-01 DE=-3.82D-01 OVMax= 7.05D-02

 Cycle   4  Pass 1  IDiag  1:
 RMSU=  5.29D-03    CP:  5.71D-01  2.40D+00  1.96D+00
 E= -3010.48801994458     Delta-E=       -0.102671694645 Rises=F Damp=F
 DIIS: error= 3.83D-02 at cycle   4 NSaved=   4.
 NSaved= 4 IEnMin= 4 EnMin= -3010.48801994458     IErMin= 4 ErrMin= 3.83D-02
 ErrMax= 3.83D-02  0.00D+00 EMaxC= 1.00D-01 BMatC= 2.35D-01 BMatP= 7.38D-01
 IDIUse=3 WtCom= 6.17D-01 WtEn= 3.83D-01
 Coeff-Com:  0.157D+00-0.195D+00 0.451D+00 0.586D+00
 Coeff-En:   0.000D+00 0.000D+00 0.206D+00 0.794D+00
 Coeff:      0.971D-01-0.120D+00 0.358D+00 0.665D+00
 Gap=     0.269 Goal=   None    Shift=    0.000
 RMSDP=3.60D-03 MaxDP=2.95D-01 DE=-1.03D-01 OVMax= 4.94D-02

 Cycle   5  Pass 1  IDiag  1:
 RMSU=  1.68D-03    CP:  5.44D-01  2.76D+00  1.81D+00  8.12D-01
 E= -3010.53156714728     Delta-E=       -0.043547202702 Rises=F Damp=F
 DIIS: error= 9.57D-03 at cycle   5 NSaved=   5.
 NSaved= 5 IEnMin= 5 EnMin= -3010.53156714728     IErMin= 5 ErrMin= 9.57D-03
 ErrMax= 9.57D-03  0.00D+00 EMaxC= 1.00D-01 BMatC= 1.27D-02 BMatP= 2.35D-01
 IDIUse=3 WtCom= 9.04D-01 WtEn= 9.57D-02
 Coeff-Com: -0.121D+00 0.167D+00 0.123D+00 0.407D+00 0.423D+00
 Coeff-En:   0.000D+00 0.000D+00 0.000D+00 0.000D+00 0.100D+01
 Coeff:     -0.109D+00 0.151D+00 0.112D+00 0.368D+00 0.478D+00
 Gap=     0.270 Goal=   None    Shift=    0.000
 RMSDP=1.05D-03 MaxDP=5.13D-02 DE=-4.35D-02 OVMax= 3.82D-02

 Cycle   6  Pass 1  IDiag  1:
 RMSU=  5.71D-04    CP:  5.40D-01  2.73D+00  1.85D+00  8.68D-01  5.86D-01
 E= -3010.53707546040     Delta-E=       -0.005508313119 Rises=F Damp=F
 DIIS: error= 2.67D-03 at cycle   6 NSaved=   6.
 NSaved= 6 IEnMin= 6 EnMin= -3010.53707546040     IErMin= 6 ErrMin= 2.67D-03
 ErrMax= 2.67D-03  0.00D+00 EMaxC= 1.00D-01 BMatC= 9.42D-04 BMatP= 1.27D-02
 IDIUse=3 WtCom= 9.73D-01 WtEn= 2.67D-02
 Coeff-Com: -0.112D+00 0.150D+00 0.429D-03 0.167D+00 0.313D+00 0.480D+00
 Coeff-En:   0.000D+00 0.000D+00 0.000D+00 0.000D+00 0.717D-01 0.928D+00
 Coeff:     -0.109D+00 0.146D+00 0.418D-03 0.163D+00 0.307D+00 0.492D+00
 Gap=     0.252 Goal=   None    Shift=    0.000
 RMSDP=3.04D-04 MaxDP=1.49D-02 DE=-5.51D-03 OVMax= 9.32D-03

 Cycle   7  Pass 1  IDiag  1:
 RMSU=  2.27D-04    CP:  5.40D-01  2.74D+00  1.84D+00  8.51D-01  6.67D-01
                    CP:  8.37D-01
 E= -3010.53772766847     Delta-E=       -0.000652208069 Rises=F Damp=F
 DIIS: error= 2.38D-04 at cycle   7 NSaved=   7.
 NSaved= 7 IEnMin= 7 EnMin= -3010.53772766847     IErMin= 7 ErrMin= 2.38D-04
 ErrMax= 2.38D-04  0.00D+00 EMaxC= 1.00D-01 BMatC= 1.50D-05 BMatP= 9.42D-04
 IDIUse=3 WtCom= 9.98D-01 WtEn= 2.38D-03
 Coeff-Com: -0.339D-01 0.452D-01-0.119D-01 0.280D-01 0.599D-01 0.146D+00
 Coeff-Com:  0.767D+00
 Coeff-En:   0.000D+00 0.000D+00 0.000D+00 0.000D+00 0.000D+00 0.000D+00
 Coeff-En:   0.100D+01
 Coeff:     -0.338D-01 0.451D-01-0.118D-01 0.280D-01 0.598D-01 0.145D+00
 Coeff:      0.767D+00
 Gap=     0.253 Goal=   None    Shift=    0.000
 RMSDP=1.46D-04 MaxDP=1.10D-02 DE=-6.52D-04 OVMax= 2.71D-03

 Cycle   8  Pass 1  IDiag  1:
 RMSU=  8.90D-05    CP:  5.40D-01  2.73D+00  1.85D+00  8.64D-01  6.94D-01
                    CP:  9.20D-01  9.17D-01
 E= -3010.53774761475     Delta-E=       -0.000019946280 Rises=F Damp=F
 DIIS: error= 1.45D-04 at cycle   8 NSaved=   8.
 NSaved= 8 IEnMin= 8 EnMin= -3010.53774761475     IErMin= 8 ErrMin= 1.45D-04
 ErrMax= 1.45D-04  0.00D+00 EMaxC= 1.00D-01 BMatC= 2.81D-06 BMatP= 1.50D-05
 IDIUse=3 WtCom= 9.99D-01 WtEn= 1.45D-03
 Coeff-Com:  0.586D-02-0.809D-02-0.374D-02-0.142D-01-0.299D-01-0.428D-01
 Coeff-Com:  0.239D+00 0.854D+00
 Coeff-En:   0.000D+00 0.000D+00 0.000D+00 0.000D+00 0.000D+00 0.000D+00
 Coeff-En:   0.000D+00 0.100D+01
 Coeff:      0.586D-02-0.808D-02-0.374D-02-0.142D-01-0.298D-01-0.427D-01
 Coeff:      0.239D+00 0.854D+00
 Gap=     0.253 Goal=   None    Shift=    0.000
 RMSDP=6.53D-05 MaxDP=4.62D-03 DE=-1.99D-05 OVMax= 1.82D-03

 Cycle   9  Pass 1  IDiag  1:
 RMSU=  2.43D-05    CP:  5.40D-01  2.73D+00  1.85D+00  8.65D-01  6.97D-01
                    CP:  9.54D-01  1.13D+00  1.17D+00
 E= -3010.53775334813     Delta-E=       -0.000005733385 Rises=F Damp=F
 DIIS: error= 4.91D-05 at cycle   9 NSaved=   9.
 NSaved= 9 IEnMin= 9 EnMin= -3010.53775334813     IErMin= 9 ErrMin= 4.91D-05
 ErrMax= 4.91D-05  0.00D+00 EMaxC= 1.00D-01 BMatC= 2.24D-07 BMatP= 2.81D-06
 IDIUse=1 WtCom= 1.00D+00 WtEn= 0.00D+00
 Coeff-Com:  0.549D-02-0.737D-02 0.617D-03-0.695D-02-0.131D-01-0.274D-01
 Coeff-Com: -0.658D-01 0.171D+00 0.943D+00
 Coeff:      0.549D-02-0.737D-02 0.617D-03-0.695D-02-0.131D-01-0.274D-01
 Coeff:     -0.658D-01 0.171D+00 0.943D+00
 Gap=     0.253 Goal=   None    Shift=    0.000
 RMSDP=2.33D-05 MaxDP=1.68D-03 DE=-5.73D-06 OVMax= 1.04D-03

 Cycle  10  Pass 1  IDiag  1:
 RMSU=  9.53D-06    CP:  5.40D-01  2.73D+00  1.85D+00  8.65D-01  6.98D-01
                    CP:  9.67D-01  1.18D+00  1.28D+00  1.16D+00
 E= -3010.53775436255     Delta-E=       -0.000001014419 Rises=F Damp=F
 DIIS: error= 1.60D-05 at cycle  10 NSaved=  10.
 NSaved=10 IEnMin=10 EnMin= -3010.53775436255     IErMin=10 ErrMin= 1.60D-05
 ErrMax= 1.60D-05  0.00D+00 EMaxC= 1.00D-01 BMatC= 6.24D-08 BMatP= 2.24D-07
 IDIUse=1 WtCom= 1.00D+00 WtEn= 0.00D+00
 Coeff-Com:  0.280D-03-0.348D-03 0.381D-03-0.131D-03 0.154D-02 0.150D-02
 Coeff-Com: -0.512D-01-0.678D-01 0.288D+00 0.828D+00
 Coeff:      0.280D-03-0.348D-03 0.381D-03-0.131D-03 0.154D-02 0.150D-02
 Coeff:     -0.512D-01-0.678D-01 0.288D+00 0.828D+00
 Gap=     0.253 Goal=   None    Shift=    0.000
 RMSDP=8.75D-06 MaxDP=6.49D-04 DE=-1.01D-06 OVMax= 3.55D-04

 Cycle  11  Pass 1  IDiag  1:
 RMSU=  4.25D-06    CP:  5.40D-01  2.73D+00  1.85D+00  8.65D-01  6.98D-01
                    CP:  9.69D-01  1.20D+00  1.27D+00  1.26D+00  1.15D+00
 E= -3010.53775452893     Delta-E=       -0.000000166375 Rises=F Damp=F
 DIIS: error= 6.77D-06 at cycle  11 NSaved=  11.
 NSaved=11 IEnMin=11 EnMin= -3010.53775452893     IErMin=11 ErrMin= 6.77D-06
 ErrMax= 6.77D-06  0.00D+00 EMaxC= 1.00D-01 BMatC= 6.31D-09 BMatP= 6.24D-08
 IDIUse=1 WtCom= 1.00D+00 WtEn= 0.00D+00
 Coeff-Com: -0.374D-03 0.505D-03 0.703D-04 0.748D-03 0.160D-02 0.359D-02
 Coeff-Com:  0.606D-02-0.236D-01-0.133D+00 0.552D-01 0.109D+01
 Coeff:     -0.374D-03 0.505D-03 0.703D-04 0.748D-03 0.160D-02 0.359D-02
 Coeff:      0.606D-02-0.236D-01-0.133D+00 0.552D-01 0.109D+01
 Gap=     0.253 Goal=   None    Shift=    0.000
 RMSDP=5.84D-06 MaxDP=3.08D-04 DE=-1.66D-07 OVMax= 1.76D-04

 Cycle  12  Pass 1  IDiag  1:
 RMSU=  1.72D-06    CP:  5.40D-01  2.73D+00  1.85D+00  8.64D-01  6.97D-01
                    CP:  9.69D-01  1.20D+00  1.25D+00  1.28D+00  1.49D+00
                    CP:  1.43D+00
 E= -3010.53775456714     Delta-E=       -0.000000038210 Rises=F Damp=F
 DIIS: error= 2.50D-06 at cycle  12 NSaved=  12.
 NSaved=12 IEnMin=12 EnMin= -3010.53775456714     IErMin=12 ErrMin= 2.50D-06
 ErrMax= 2.50D-06  0.00D+00 EMaxC= 1.00D-01 BMatC= 1.90D-09 BMatP= 6.31D-09
 IDIUse=1 WtCom= 1.00D+00 WtEn= 0.00D+00
 Coeff-Com: -0.195D-03 0.258D-03-0.168D-04 0.374D-03 0.350D-03 0.102D-02
 Coeff-Com:  0.120D-01 0.257D-02-0.112D+00-0.116D+00 0.474D+00 0.738D+00
 Coeff:     -0.195D-03 0.258D-03-0.168D-04 0.374D-03 0.350D-03 0.102D-02
 Coeff:      0.120D-01 0.257D-02-0.112D+00-0.116D+00 0.474D+00 0.738D+00
 Gap=     0.253 Goal=   None    Shift=    0.000
 RMSDP=1.81D-06 MaxDP=1.02D-04 DE=-3.82D-08 OVMax= 8.36D-05

 Cycle  13  Pass 1  IDiag  1:
 RMSU=  5.58D-07    CP:  5.40D-01  2.73D+00  1.85D+00  8.64D-01  6.97D-01
                    CP:  9.69D-01  1.20D+00  1.25D+00  1.27D+00  1.56D+00
                    CP:  1.60D+00  1.08D+00
 E= -3010.53775457428     Delta-E=       -0.000000007140 Rises=F Damp=F
 DIIS: error= 7.70D-07 at cycle  13 NSaved=  13.
 NSaved=13 IEnMin=13 EnMin= -3010.53775457428     IErMin=13 ErrMin= 7.70D-07
 ErrMax= 7.70D-07  0.00D+00 EMaxC= 1.00D-01 BMatC= 3.46D-10 BMatP= 1.90D-09
 IDIUse=1 WtCom= 1.00D+00 WtEn= 0.00D+00
 Coeff-Com: -0.764D-05 0.989D-05-0.249D-04-0.595D-04-0.245D-03-0.714D-03
 Coeff-Com: -0.118D-02 0.281D-02 0.181D-01 0.794D-03-0.202D+00 0.108D+00
 Coeff-Com:  0.107D+01
 Coeff:     -0.764D-05 0.989D-05-0.249D-04-0.595D-04-0.245D-03-0.714D-03
 Coeff:     -0.118D-02 0.281D-02 0.181D-01 0.794D-03-0.202D+00 0.108D+00
 Coeff:      0.107D+01
 Gap=     0.253 Goal=   None    Shift=    0.000
 RMSDP=1.02D-06 MaxDP=7.37D-05 DE=-7.14D-09 OVMax= 5.04D-05

 Cycle  14  Pass 1  IDiag  1:
 RMSU=  2.86D-07    CP:  5.40D-01  2.73D+00  1.85D+00  8.64D-01  6.96D-01
                    CP:  9.69D-01  1.20D+00  1.25D+00  1.27D+00  1.61D+00
                    CP:  1.67D+00  1.45D+00  1.44D+00
 E= -3010.53775457613     Delta-E=       -0.000000001853 Rises=F Damp=F
 DIIS: error= 4.29D-07 at cycle  14 NSaved=  14.
 NSaved=14 IEnMin=14 EnMin= -3010.53775457613     IErMin=14 ErrMin= 4.29D-07
 ErrMax= 4.29D-07  0.00D+00 EMaxC= 1.00D-01 BMatC= 6.65D-11 BMatP= 3.46D-10
 IDIUse=1 WtCom= 1.00D+00 WtEn= 0.00D+00
 Coeff-Com:  0.206D-04-0.273D-04-0.103D-04-0.839D-04-0.133D-03-0.402D-03
 Coeff-Com: -0.252D-02 0.672D-03 0.271D-01 0.236D-01-0.178D+00-0.858D-01
 Coeff-Com:  0.348D+00 0.868D+00
 Coeff:      0.206D-04-0.273D-04-0.103D-04-0.839D-04-0.133D-03-0.402D-03
 Coeff:     -0.252D-02 0.672D-03 0.271D-01 0.236D-01-0.178D+00-0.858D-01
 Coeff:      0.348D+00 0.868D+00
 Gap=     0.253 Goal=   None    Shift=    0.000
 RMSDP=5.22D-07 MaxDP=3.97D-05 DE=-1.85D-09 OVMax= 2.41D-05

 Cycle  15  Pass 1  IDiag  1:
 RMSU=  1.25D-07    CP:  5.40D-01  2.73D+00  1.85D+00  8.64D-01  6.96D-01
                    CP:  9.69D-01  1.20D+00  1.25D+00  1.26D+00  1.64D+00
                    CP:  1.69D+00  1.62D+00  1.73D+00  1.22D+00
 E= -3010.53775457654     Delta-E=       -0.000000000410 Rises=F Damp=F
 DIIS: error= 2.46D-07 at cycle  15 NSaved=  15.
 NSaved=15 IEnMin=15 EnMin= -3010.53775457654     IErMin=15 ErrMin= 2.46D-07
 ErrMax= 2.46D-07  0.00D+00 EMaxC= 1.00D-01 BMatC= 1.36D-11 BMatP= 6.65D-11
 IDIUse=1 WtCom= 1.00D+00 WtEn= 0.00D+00
 Coeff-Com:  0.145D-04-0.192D-04 0.464D-05-0.128D-04 0.247D-04 0.930D-04
 Coeff-Com: -0.238D-03-0.247D-03 0.188D-02 0.685D-02 0.493D-02-0.387D-01
 Coeff-Com: -0.198D+00 0.252D+00 0.972D+00
 Coeff:      0.145D-04-0.192D-04 0.464D-05-0.128D-04 0.247D-04 0.930D-04
 Coeff:     -0.238D-03-0.247D-03 0.188D-02 0.685D-02 0.493D-02-0.387D-01
 Coeff:     -0.198D+00 0.252D+00 0.972D+00
 Gap=     0.253 Goal=   None    Shift=    0.000
 RMSDP=2.43D-07 MaxDP=2.01D-05 DE=-4.10D-10 OVMax= 1.18D-05

 Cycle  16  Pass 1  IDiag  1:
 RMSU=  5.96D-08    CP:  5.40D-01  2.73D+00  1.85D+00  8.64D-01  6.96D-01
                    CP:  9.68D-01  1.20D+00  1.25D+00  1.26D+00  1.65D+00
                    CP:  1.68D+00  1.69D+00  1.88D+00  1.48D+00  1.51D+00
 E= -3010.53775457658     Delta-E=       -0.000000000038 Rises=F Damp=F
 DIIS: error= 6.19D-08 at cycle  16 NSaved=  16.
 NSaved=16 IEnMin=16 EnMin= -3010.53775457658     IErMin=16 ErrMin= 6.19D-08
 ErrMax= 6.19D-08  0.00D+00 EMaxC= 1.00D-01 BMatC= 2.02D-12 BMatP= 1.36D-11
 IDIUse=1 WtCom= 1.00D+00 WtEn= 0.00D+00
 Coeff-Com:  0.312D-05-0.420D-05 0.304D-05 0.649D-05 0.276D-04 0.883D-04
 Coeff-Com:  0.250D-03-0.316D-03-0.342D-02-0.788D-03 0.249D-01-0.104D-02
 Coeff-Com: -0.104D+00-0.643D-01 0.223D+00 0.926D+00
 Coeff:      0.312D-05-0.420D-05 0.304D-05 0.649D-05 0.276D-04 0.883D-04
 Coeff:      0.250D-03-0.316D-03-0.342D-02-0.788D-03 0.249D-01-0.104D-02
 Coeff:     -0.104D+00-0.643D-01 0.223D+00 0.926D+00
 Gap=     0.253 Goal=   None    Shift=    0.000
 RMSDP=1.13D-07 MaxDP=9.96D-06 DE=-3.82D-11 OVMax= 4.65D-06

 Cycle  17  Pass 1  IDiag  1:
 RMSU=  1.93D-08    CP:  5.40D-01  2.73D+00  1.85D+00  8.64D-01  6.96D-01
                    CP:  9.68D-01  1.20D+00  1.25D+00  1.26D+00  1.65D+00
                    CP:  1.69D+00  1.73D+00  1.93D+00  1.56D+00  1.79D+00
                    CP:  1.05D+00
 E= -3010.53775457663     Delta-E=       -0.000000000054 Rises=F Damp=F
 DIIS: error= 4.82D-08 at cycle  17 NSaved=  17.
 NSaved=17 IEnMin=17 EnMin= -3010.53775457663     IErMin=17 ErrMin= 4.82D-08
 ErrMax= 4.82D-08  0.00D+00 EMaxC= 1.00D-01 BMatC= 3.43D-13 BMatP= 2.02D-12
 IDIUse=1 WtCom= 1.00D+00 WtEn= 0.00D+00
 Coeff-Com: -0.139D-05 0.184D-05 0.823D-07 0.378D-05 0.615D-05 0.164D-04
 Coeff-Com:  0.106D-03-0.468D-04-0.121D-02-0.946D-03 0.676D-02 0.487D-02
 Coeff-Com:  0.174D-02-0.562D-01-0.854D-01 0.300D+00 0.830D+00
 Coeff:     -0.139D-05 0.184D-05 0.823D-07 0.378D-05 0.615D-05 0.164D-04
 Coeff:      0.106D-03-0.468D-04-0.121D-02-0.946D-03 0.676D-02 0.487D-02
 Coeff:      0.174D-02-0.562D-01-0.854D-01 0.300D+00 0.830D+00
 Gap=     0.253 Goal=   None    Shift=    0.000
 RMSDP=2.56D-08 MaxDP=2.15D-06 DE=-5.37D-11 OVMax= 9.70D-07

 Cycle  18  Pass 1  IDiag  1:
 RMSU=  7.69D-09    CP:  5.40D-01  2.73D+00  1.85D+00  8.64D-01  6.96D-01
                    CP:  9.68D-01  1.20D+00  1.25D+00  1.26D+00  1.65D+00
                    CP:  1.68D+00  1.73D+00  1.94D+00  1.57D+00  1.87D+00
                    CP:  1.22D+00  1.12D+00
 E= -3010.53775457663     Delta-E=        0.000000000002 Rises=F Damp=F
 DIIS: error= 1.03D-08 at cycle  18 NSaved=  18.
 NSaved=18 IEnMin=17 EnMin= -3010.53775457663     IErMin=18 ErrMin= 1.03D-08
 ErrMax= 1.03D-08  0.00D+00 EMaxC= 1.00D-01 BMatC= 5.59D-14 BMatP= 3.43D-13
 IDIUse=1 WtCom= 1.00D+00 WtEn= 0.00D+00
 Coeff-Com: -0.106D-06 0.139D-06-0.359D-06-0.103D-05-0.473D-05-0.141D-04
 Coeff-Com: -0.199D-04 0.604D-04 0.320D-03-0.217D-03-0.309D-02 0.956D-03
 Coeff-Com:  0.213D-01-0.286D-02-0.667D-01-0.953D-01 0.222D+00 0.923D+00
 Coeff:     -0.106D-06 0.139D-06-0.359D-06-0.103D-05-0.473D-05-0.141D-04
 Coeff:     -0.199D-04 0.604D-04 0.320D-03-0.217D-03-0.309D-02 0.956D-03
 Coeff:      0.213D-01-0.286D-02-0.667D-01-0.953D-01 0.222D+00 0.923D+00
 Gap=     0.253 Goal=   None    Shift=    0.000
 RMSDP=1.10D-08 MaxDP=4.75D-07 DE= 1.82D-12 OVMax= 4.61D-07

 Cycle  19  Pass 1  IDiag  1:
 RMSU=  2.25D-09    CP:  5.40D-01  2.73D+00  1.85D+00  8.64D-01  6.96D-01
                    CP:  9.68D-01  1.20D+00  1.25D+00  1.26D+00  1.65D+00
                    CP:  1.68D+00  1.73D+00  1.94D+00  1.57D+00  1.90D+00
                    CP:  1.24D+00  1.33D+00  1.29D+00
 E= -3010.53775457663     Delta-E=       -0.000000000001 Rises=F Damp=F
 DIIS: error= 3.24D-09 at cycle  19 NSaved=  19.
 NSaved=19 IEnMin=17 EnMin= -3010.53775457663     IErMin=19 ErrMin= 3.24D-09
 ErrMax= 3.24D-09  0.00D+00 EMaxC= 1.00D-01 BMatC= 3.03D-15 BMatP= 5.59D-14
 IDIUse=1 WtCom= 1.00D+00 WtEn= 0.00D+00
 Coeff-Com:  0.328D-07-0.426D-07-0.238D-07-0.205D-06-0.292D-06-0.120D-05
 Coeff-Com: -0.958D-05-0.335D-05 0.106D-03 0.760D-04-0.541D-03-0.375D-03
 Coeff-Com:  0.954D-03 0.347D-02 0.216D-02-0.223D-01-0.466D-01 0.119D-01
 Coeff-Com:  0.105D+01
 Coeff:      0.328D-07-0.426D-07-0.238D-07-0.205D-06-0.292D-06-0.120D-05
 Coeff:     -0.958D-05-0.335D-05 0.106D-03 0.760D-04-0.541D-03-0.375D-03
 Coeff:      0.954D-03 0.347D-02 0.216D-02-0.223D-01-0.466D-01 0.119D-01
 Coeff:      0.105D+01
 Gap=     0.253 Goal=   None    Shift=    0.000
 RMSDP=2.95D-09 MaxDP=1.56D-07 DE=-9.09D-13 OVMax= 1.05D-07

 SCF Done:  E(RwB97XD) =  -3010.53775458     A.U. after   19 cycles
            NFock= 19  Conv=0.29D-08     -V/T= 2.0016
 KE= 3.005845502725D+03 PE=-8.631395887581D+03 EE= 1.876353713755D+03
 Leave Link  502 at Wed May  1 15:07:43 2024, MaxMem=  1207959552 cpu:            1071.9 elap:            1072.1
 (Enter /software/gaussian/g16-c01/sse4/g16/l601.exe)
 Copying SCF densities to generalized density rwf, IOpCl= 0 IROHF=0.

 **********************************************************************

            Population analysis using the SCF Density.

 **********************************************************************

 Alpha  occ. eigenvalues -- -483.30346 -62.85363 -56.65063 -56.64481 -56.64478
 Alpha  occ. eigenvalues --  -19.45522 -19.45511 -14.85050 -10.57447 -10.57336
 Alpha  occ. eigenvalues --  -10.56746 -10.56472 -10.56456 -10.52925  -9.01163
 Alpha  occ. eigenvalues --   -6.83861  -6.81956  -6.81940  -2.93760  -2.93255
 Alpha  occ. eigenvalues --   -2.93241  -2.91718  -2.91718  -1.49316  -1.32295
 Alpha  occ. eigenvalues --   -1.22197  -1.13501  -1.11437  -1.03629  -1.00698
 Alpha  occ. eigenvalues --   -0.95004  -0.90572  -0.84975  -0.80431  -0.80265
 Alpha  occ. eigenvalues --   -0.79637  -0.77839  -0.75755  -0.75555  -0.71800
 Alpha  occ. eigenvalues --   -0.68968  -0.67228  -0.63247  -0.59570  -0.56802
 Alpha  occ. eigenvalues --   -0.55855  -0.55392  -0.55222  -0.54410
 Alpha virt. eigenvalues --   -0.29133  -0.20918  -0.15114  -0.12851  -0.09189
 Alpha virt. eigenvalues --   -0.06339  -0.05973  -0.04529  -0.04425  -0.02758
 Alpha virt. eigenvalues --   -0.02139  -0.01790  -0.00760  -0.00321   0.00829
 Alpha virt. eigenvalues --    0.01529   0.02341   0.02723   0.03163   0.03596
 Alpha virt. eigenvalues --    0.04769   0.04976   0.05534   0.06036   0.06889
 Alpha virt. eigenvalues --    0.07256   0.07538   0.07787   0.09027   0.09586
 Alpha virt. eigenvalues --    0.10487   0.11187   0.11415   0.12118   0.12854
 Alpha virt. eigenvalues --    0.13151   0.13361   0.14016   0.15565   0.16037
 Alpha virt. eigenvalues --    0.16908   0.17011   0.18038   0.18428   0.19275
 Alpha virt. eigenvalues --    0.20162   0.21360   0.21685   0.22318   0.24702
 Alpha virt. eigenvalues --    0.25539   0.28008   0.28415   0.30411   0.32622
 Alpha virt. eigenvalues --    0.33308   0.33896   0.34780   0.35353   0.36437
 Alpha virt. eigenvalues --    0.37465   0.37875   0.39585   0.41174   0.42164
 Alpha virt. eigenvalues --    0.43016   0.43826   0.44584   0.46634   0.47561
 Alpha virt. eigenvalues --    0.48002   0.50713   0.51224   0.52613   0.53657
 Alpha virt. eigenvalues --    0.54803   0.55626   0.57209   0.57623   0.59090
 Alpha virt. eigenvalues --    0.61493   0.62847   0.64841   0.67314   0.69051
 Alpha virt. eigenvalues --    0.70564   0.72193   0.72379   0.73613   0.74094
 Alpha virt. eigenvalues --    0.75023   0.79402   0.80340   0.83770   0.85489
 Alpha virt. eigenvalues --    0.86766   0.88193   0.92176   0.93424   0.98856
 Alpha virt. eigenvalues --    0.99896   1.01217   1.05064   1.05590   1.06897
 Alpha virt. eigenvalues --    1.09561   1.11132   1.12210   1.12730   1.14576
 Alpha virt. eigenvalues --    1.22288   1.24804   1.27033   1.33177   1.36778
 Alpha virt. eigenvalues --    1.37138   1.38527   1.45570   1.54675   1.57384
 Alpha virt. eigenvalues --    1.58763   1.59142   1.60864   1.62764   1.66657
 Alpha virt. eigenvalues --    1.69433   1.70103   1.73751   1.75561   1.79284
 Alpha virt. eigenvalues --    1.81466   1.85600   1.87608   1.94267   1.96374
 Alpha virt. eigenvalues --    1.98330   2.03205   2.04141   2.07442   2.08494
 Alpha virt. eigenvalues --    2.10198   2.15015   2.20526   2.22840   2.29099
 Alpha virt. eigenvalues --    2.37868   2.41532   2.42981   2.43949   2.52707
 Alpha virt. eigenvalues --    2.56919   2.63255   2.66344   2.68480   2.71922
 Alpha virt. eigenvalues --    2.73775   2.76811   2.77586   2.81297   2.82125
 Alpha virt. eigenvalues --    2.93911   2.96758   3.00949   3.06143   3.09239
 Alpha virt. eigenvalues --    3.13224   3.14958   3.19136   3.23857   3.24643
 Alpha virt. eigenvalues --    3.27639   3.39392   3.47665   3.51478   3.54834
 Alpha virt. eigenvalues --    3.57183   3.70240   3.74403   3.82421   3.87481
 Alpha virt. eigenvalues --    4.09850   4.10075   4.17504   4.22748   4.43547
 Alpha virt. eigenvalues --    4.44636   4.57765   4.60174   4.93471   4.96157
 Alpha virt. eigenvalues --    5.04792   5.08967   5.63120   6.16055   6.65547
 Alpha virt. eigenvalues --    7.48524   7.50101   7.59844  23.21582  23.61562
 Alpha virt. eigenvalues --   23.70273  23.79631  23.96199  24.01668  35.32908
 Alpha virt. eigenvalues --   47.92078  49.85871  49.94680 289.81398 289.83065
 Alpha virt. eigenvalues --  289.954991020.92486
          Condensed to atoms (all electrons):
               1          2          3          4          5          6
     1  C    9.087369  -2.605619   0.321510  -1.716262  -0.597957   0.307358
     2  C   -2.605619  13.292225  -1.952172  -2.319178   0.699171  -0.015237
     3  C    0.321510  -1.952172  13.423400  -3.499704  -1.359904   0.022558
     4  C   -1.716262  -2.319178  -3.499704  14.946190   1.441395   0.012113
     5  C   -0.597957   0.699171  -1.359904   1.441395   7.445052   0.020165
     6  H    0.307358  -0.015237   0.022558   0.012113   0.020165   0.355526
     7  H    0.076160   0.218349   0.090643  -0.037601  -0.022333  -0.002128
     8  H    0.002687  -0.005327   0.062457   0.261818  -0.017049   0.000000
     9  H    0.024427  -0.010146   0.002301  -0.001670   0.309130  -0.002437
    10  N   -0.172969   0.373715  -0.939387   0.333313   0.018165  -0.000662
    11  O    0.006686  -0.061651  -0.265994   0.006455  -0.053734  -0.000022
    12  O    0.343985  -0.062012  -0.278667  -0.090492  -0.045165   0.000020
    13  C    1.470265  -2.079080   1.032489  -3.599009  -1.876351  -0.010333
    14  H   -0.008487  -0.010281   0.010666  -0.094420  -0.025767  -0.000064
    15  Br   0.046767  -0.005425   0.073233   0.052461   0.077713  -0.000399
               7          8          9         10         11         12
     1  C    0.076160   0.002687   0.024427  -0.172969   0.006686   0.343985
     2  C    0.218349  -0.005327  -0.010146   0.373715  -0.061651  -0.062012
     3  C    0.090643   0.062457   0.002301  -0.939387  -0.265994  -0.278667
     4  C   -0.037601   0.261818  -0.001670   0.333313   0.006455  -0.090492
     5  C   -0.022333  -0.017049   0.309130   0.018165  -0.053734  -0.045165
     6  H   -0.002128   0.000000  -0.002437  -0.000662  -0.000022   0.000020
     7  H    0.317096  -0.000003   0.000005  -0.027961  -0.001646   0.023927
     8  H   -0.000003   0.281913   0.000109  -0.022159   0.021315  -0.000750
     9  H    0.000005   0.000109   0.329799   0.000413   0.000007   0.000006
    10  N   -0.027961  -0.022159   0.000413   7.353392   0.207985   0.134630
    11  O   -0.001646   0.021315   0.000007   0.207985   7.793757   0.000513
    12  O    0.023927  -0.000750   0.000006   0.134630   0.000513   7.923487
    13  C    0.017205   0.027260   0.004648  -0.154439   0.290571   0.048040
    14  H   -0.000016  -0.003709  -0.005648  -0.000198  -0.000302  -0.000066
    15  Br  -0.000112   0.002023  -0.000412   0.002055   0.000497   0.002001
              13         14         15
     1  C    1.470265  -0.008487   0.046767
     2  C   -2.079080  -0.010281  -0.005425
     3  C    1.032489   0.010666   0.073233
     4  C   -3.599009  -0.094420   0.052461
     5  C   -1.876351  -0.025767   0.077713
     6  H   -0.010333  -0.000064  -0.000399
     7  H    0.017205  -0.000016  -0.000112
     8  H    0.027260  -0.003709   0.002023
     9  H    0.004648  -0.005648  -0.000412
    10  N   -0.154439  -0.000198   0.002055
    11  O    0.290571  -0.000302   0.000497
    12  O    0.048040  -0.000066   0.002001
    13  C   10.947649   0.429587  -0.068204
    14  H    0.429587   0.329586  -0.037056
    15  Br  -0.068204  -0.037056  34.647159
 Mulliken charges:
               1
     1  C   -0.585921
     2  C    0.542669
     3  C   -0.743429
     4  C    0.304592
     5  C   -0.012533
     6  H    0.313541
     7  H    0.348415
     8  H    0.389413
     9  H    0.349467
    10  N   -0.105893
    11  O    0.055562
    12  O    0.000544
    13  C   -0.480297
    14  H    0.416173
    15  Br   0.207698
 Sum of Mulliken charges =   1.00000
 Mulliken charges with hydrogens summed into heavy atoms:
               1
     1  C   -0.272380
     2  C    0.891083
     3  C   -0.743429
     4  C    0.694004
     5  C    0.336935
    10  N   -0.105893
    11  O    0.055562
    12  O    0.000544
    13  C   -0.064124
    15  Br   0.207698
 Electronic spatial extent (au):  <R**2>=           2797.8386
 Charge=              1.0000 electrons
 Dipole moment (field-independent basis, Debye):
    X=             -0.9879    Y=             -1.9680    Z=             -0.2028  Tot=              2.2114
 Quadrupole moment (field-independent basis, Debye-Ang):
   XX=            -71.5047   YY=            -51.4067   ZZ=            -62.2239
   XY=             -0.2400   XZ=              1.2667   YZ=              2.2942
 Traceless Quadrupole moment (field-independent basis, Debye-Ang):
   XX=             -9.7929   YY=             10.3050   ZZ=             -0.5121
   XY=             -0.2400   XZ=              1.2667   YZ=              2.2942
 Octapole moment (field-independent basis, Debye-Ang**2):
  XXX=           -301.0160  YYY=             79.3578  ZZZ=             76.1179  XYY=            -77.1220
  XXY=             22.6553  XXZ=             32.0437  XZZ=            -78.5788  YZZ=             13.9609
  YYZ=             23.4647  XYZ=             -3.6923
 Hexadecapole moment (field-independent basis, Debye-Ang**3):
 XXXX=          -2284.8746 YYYY=           -669.6207 ZZZZ=           -344.3221 XXXY=            -93.9938
 XXXZ=            -20.9632 YYYX=            -64.3851 YYYZ=           -149.6117 ZZZX=            -17.3101
 ZZZY=           -131.6324 XXYY=           -456.6444 XXZZ=           -370.0079 YYZZ=           -158.9696
 XXYZ=            -53.3829 YYXZ=             -0.8304 ZZXY=             -8.6192
 N-N= 7.386589165244D+02 E-N=-8.631395886991D+03  KE= 3.005845502725D+03
 No NMR shielding tensors so no spin-rotation constants.
 Leave Link  601 at Wed May  1 15:07:50 2024, MaxMem=  1207959552 cpu:               7.3 elap:               7.3
 (Enter /software/gaussian/g16-c01/sse4/g16/l9999.exe)
 Unable to Open any file for archive entry.
 1\1\GINC-BHX0009\SP\RwB97XD\6-311+G(d)\C6H5Br1N1O2(1+)\BWEIGHT\01-May-
 2024\0\\#P wB97XD/6-311+G* NoSymm #P Field=Y+48\\TitleMe\\1,1\C,0,0.02
 95,1.3397,0.0682\C,0,1.4348,1.2867,0.0064\C,0,2.1118,0.0511,-0.0054\C,
 0,1.4451,-1.1372,0.0312\C,0,-0.6879,0.1682,0.11\H,0,-0.4713,2.2984,0.0
 781\H,0,2.0273,2.1965,-0.0322\H,0,1.9897,-2.0764,0.0232\H,0,-1.7716,0.
 1804,0.1582\N,0,3.5864,0.051,-0.0675\O,0,4.1471,-1.0597,-0.0881\O,0,4.
 145,1.1639,-0.0901\C,0,-0.0236,-1.1458,0.0835\H,0,-0.4367,-1.8725,0.78
 89\Br,0,-0.5359,-1.8697,-1.7408\\Version=ES64L-G16RevC.01\HF=-3010.537
 7546\RMSD=2.948e-09\Dipole=-2.2952117,0.3738156,1.0663808\Quadrupole=-
 7.2808066,7.6615473,-0.3807407,-0.1784444,0.9417761,1.7056477\PG=C01 [
 X(C6H5Br1N1O2)]\\@
 The archive entry for this job was punched.


 PENOTUS DIED A HUNDRED YEARS OLD WANTING BUT TWO...
 AND HE USED TO SAY BEFORE HE DIED, HAVING SPENT HIS
 WHOLE LIFE IN VAINLY SEARCHING AFTER THE PHILOSOPHER'S
 STONE, THAT IF HE HAD A MORTAL ENEMY HE DID NOT DARE
 TO ENCOUNTER OPENLY, HE WOULD ADVISE HIM ABOVE ALL
 THINGS TO GIVE HIMSELF UP TO THE STUDY AND PRACTICE
 OF ALCHEMY.  --  NICOLAS LEMERY, M.D.
 "A COURSE OF CHYMISTRY", WALTER KETTILBY, LONDON, 1686
 Job cpu time:       0 days  0 hours 18 minutes 57.8 seconds.
 Elapsed time:       0 days  0 hours 18 minutes 57.9 seconds.
 File lengths (MBytes):  RWF=     40 Int=      0 D2E=      0 Chk=     32 Scr=      1
 Normal termination of Gaussian 16 at Wed May  1 15:07:51 2024.
