 Entering Gaussian System, Link 0=g16
 Initial command:
 /software/gaussian/g16-c01/sse4/g16/l1.exe "/local_scratch/24665249/Gau-12837.inp" -scrdir="/local_scratch/24665249/"
 Entering Link 1 = /software/gaussian/g16-c01/sse4/g16/l1.exe PID=     13079.
  
 Copyright (c) 1988-2019, Gaussian, Inc.  All Rights Reserved.
  
 This is part of the Gaussian(R) 16 program.  It is based on
 the Gaussian(R) 09 system (copyright 2009, Gaussian, Inc.),
 the Gaussian(R) 03 system (copyright 2003, Gaussian, Inc.),
 the Gaussian(R) 98 system (copyright 1998, Gaussian, Inc.),
 the Gaussian(R) 94 system (copyright 1995, Gaussian, Inc.),
 the Gaussian 92(TM) system (copyright 1992, Gaussian, Inc.),
 the Gaussian 90(TM) system (copyright 1990, Gaussian, Inc.),
 the Gaussian 88(TM) system (copyright 1988, Gaussian, Inc.),
 the Gaussian 86(TM) system (copyright 1986, Carnegie Mellon
 University), and the Gaussian 82(TM) system (copyright 1983,
 Carnegie Mellon University). Gaussian is a federally registered
 trademark of Gaussian, Inc.
  
 This software contains proprietary and confidential information,
 including trade secrets, belonging to Gaussian, Inc.
  
 This software is provided under written license and may be
 used, copied, transmitted, or stored only in accord with that
 written license.
  
 The following legend is applicable only to US Government
 contracts under FAR:
  
                    RESTRICTED RIGHTS LEGEND
  
 Use, reproduction and disclosure by the US Government is
 subject to restrictions as set forth in subparagraphs (a)
 and (c) of the Commercial Computer Software - Restricted
 Rights clause in FAR 52.227-19.
  
 Gaussian, Inc.
 340 Quinnipiac St., Bldg. 40, Wallingford CT 06492
  
  
 ---------------------------------------------------------------
 Warning -- This program may not be used in any manner that
 competes with the business of Gaussian, Inc. or will provide
 assistance to any competitor of Gaussian, Inc.  The licensee
 of this program is prohibited from giving any competitor of
 Gaussian, Inc. access to this program.  By using this program,
 the user acknowledges that Gaussian, Inc. is engaged in the
 business of creating and licensing software in the field of
 computational chemistry and represents and warrants to the
 licensee that it is not a competitor of Gaussian, Inc. and that
 it will not use this program in any manner prohibited above.
 ---------------------------------------------------------------
  

 Cite this work as:
 Gaussian 16, Revision C.01,
 M. J. Frisch, G. W. Trucks, H. B. Schlegel, G. E. Scuseria, 
 M. A. Robb, J. R. Cheeseman, G. Scalmani, V. Barone, 
 G. A. Petersson, H. Nakatsuji, X. Li, M. Caricato, A. V. Marenich, 
 J. Bloino, B. G. Janesko, R. Gomperts, B. Mennucci, H. P. Hratchian, 
 J. V. Ortiz, A. F. Izmaylov, J. L. Sonnenberg, D. Williams-Young, 
 F. Ding, F. Lipparini, F. Egidi, J. Goings, B. Peng, A. Petrone, 
 T. Henderson, D. Ranasinghe, V. G. Zakrzewski, J. Gao, N. Rega, 
 G. Zheng, W. Liang, M. Hada, M. Ehara, K. Toyota, R. Fukuda, 
 J. Hasegawa, M. Ishida, T. Nakajima, Y. Honda, O. Kitao, H. Nakai, 
 T. Vreven, K. Throssell, J. A. Montgomery, Jr., J. E. Peralta, 
 F. Ogliaro, M. J. Bearpark, J. J. Heyd, E. N. Brothers, K. N. Kudin, 
 V. N. Staroverov, T. A. Keith, R. Kobayashi, J. Normand, 
 K. Raghavachari, A. P. Rendell, J. C. Burant, S. S. Iyengar, 
 J. Tomasi, M. Cossi, J. M. Millam, M. Klene, C. Adamo, R. Cammi, 
 J. W. Ochterski, R. L. Martin, K. Morokuma, O. Farkas, 
 J. B. Foresman, and D. J. Fox, Gaussian, Inc., Wallingford CT, 2019.
 
 ******************************************
 Gaussian 16:  ES64L-G16RevC.01  3-Jul-2019
                 2-May-2024 
 ******************************************
 %chk=geometry.chk
 %mem=1GB
 %nprocshared=12
 Will use up to   12 processors via shared memory.
 ----------------------------------------
 #P wB97XD/6-311+G* NoSymm #P Field=X-136
 ----------------------------------------
 1/38=1,172=1/1;
 2/12=2,15=1,17=6,18=5,40=1/2;
 3/5=4,6=6,7=11,11=2,14=1,15=-136,25=1,30=1,74=-58/1,2,3;
 4//1;
 5/5=2,38=5/2;
 6/7=2,8=2,9=2,10=2,28=1/1;
 99/5=1,9=1/99;
 Leave Link    1 at Thu May  2 13:57:33 2024, MaxMem=   134217728 cpu:               3.4 elap:               3.4
 (Enter /software/gaussian/g16-c01/sse4/g16/l101.exe)
 -------
 TitleMe
 -------
 Symbolic Z-matrix:
 Charge =  1 Multiplicity = 1
 C                     0.5193    1.233    -0.0319 
 C                     1.9445    1.2692   -0.0367 
 C                     2.6204    0.0928   -0.025 
 C                    -0.196     0.0301    0.001 
 H                    -0.0207    2.1742   -0.0434 
 H                     2.4828    2.2089   -0.0361 
 H                    -1.2777    0.0399    0.0117 
 N                     4.0921    0.0959    0.0366 
 O                     4.6393   -1.0217    0.1446 
 O                     4.6649    1.1984   -0.0233 
 C                     0.4943   -1.1671    0.021 
 H                    -0.0325   -2.1149    0.0545 
 C                     1.9629   -1.2165   -0.0211 
 H                     2.4436   -1.9631    0.6151 
 Br                    2.173    -1.9491   -1.9062 
 
 ITRead=  0  0  0  0  0  0  0  0  0  0  0  0  0  0  0
 MicOpt= -1 -1 -1 -1 -1 -1 -1 -1 -1 -1 -1 -1 -1 -1 -1
 NAtoms=     15 NQM=       15 NQMF=       0 NMMI=      0 NMMIF=      0
                NMic=       0 NMicF=      0.
                    Isotopes and Nuclear Properties:
 (Nuclear quadrupole moments (NQMom) in fm**2, nuclear magnetic moments (NMagM)
  in nuclear magnetons)

  Atom         1           2           3           4           5           6           7           8           9          10
 IAtWgt=          12          12          12          12           1           1           1          14          16          16
 AtmWgt=  12.0000000  12.0000000  12.0000000  12.0000000   1.0078250   1.0078250   1.0078250  14.0030740  15.9949146  15.9949146
 NucSpn=           0           0           0           0           1           1           1           2           0           0
 AtZEff=  -0.0000000  -0.0000000  -0.0000000  -0.0000000  -0.0000000  -0.0000000  -0.0000000  -0.0000000  -0.0000000  -0.0000000
 NQMom=    0.0000000   0.0000000   0.0000000   0.0000000   0.0000000   0.0000000   0.0000000   2.0440000   0.0000000   0.0000000
 NMagM=    0.0000000   0.0000000   0.0000000   0.0000000   2.7928460   2.7928460   2.7928460   0.4037610   0.0000000   0.0000000
 AtZNuc=   6.0000000   6.0000000   6.0000000   6.0000000   1.0000000   1.0000000   1.0000000   7.0000000   8.0000000   8.0000000

  Atom        11          12          13          14          15
 IAtWgt=          12           1          12           1          79
 AtmWgt=  12.0000000   1.0078250  12.0000000   1.0078250  78.9183361
 NucSpn=           0           1           0           1           3
 AtZEff=  -0.0000000  -0.0000000  -0.0000000  -0.0000000  -0.0000000
 NQMom=    0.0000000   0.0000000   0.0000000   0.0000000  31.3000000
 NMagM=    0.0000000   2.7928460   0.0000000   2.7928460   2.1063990
 AtZNuc=   6.0000000   1.0000000   6.0000000   1.0000000  35.0000000
 Leave Link  101 at Thu May  2 13:57:35 2024, MaxMem=   134217728 cpu:               1.8 elap:               1.8
 (Enter /software/gaussian/g16-c01/sse4/g16/l202.exe)
                          Input orientation:                          
 ---------------------------------------------------------------------
 Center     Atomic      Atomic             Coordinates (Angstroms)
 Number     Number       Type             X           Y           Z
 ---------------------------------------------------------------------
      1          6           0        0.519300    1.233000   -0.031900
      2          6           0        1.944500    1.269200   -0.036700
      3          6           0        2.620400    0.092800   -0.025000
      4          6           0       -0.196000    0.030100    0.001000
      5          1           0       -0.020700    2.174200   -0.043400
      6          1           0        2.482800    2.208900   -0.036100
      7          1           0       -1.277700    0.039900    0.011700
      8          7           0        4.092100    0.095900    0.036600
      9          8           0        4.639300   -1.021700    0.144600
     10          8           0        4.664900    1.198400   -0.023300
     11          6           0        0.494300   -1.167100    0.021000
     12          1           0       -0.032500   -2.114900    0.054500
     13          6           0        1.962900   -1.216500   -0.021100
     14          1           0        2.443600   -1.963100    0.615100
     15         35           0        2.173000   -1.949100   -1.906200
 ---------------------------------------------------------------------
                    Distance matrix (angstroms):
                    1          2          3          4          5
     1  C    0.000000
     2  C    1.425668   0.000000
     3  C    2.390549   1.356796   0.000000
     4  C    1.399895   2.473566   2.817218   0.000000
     5  H    1.085168   2.163581   3.362733   2.151712   0.000000
     6  H    2.192654   1.082960   2.120598   3.453189   2.503751
     7  H    2.157452   3.449071   3.898632   1.081797   2.477564
     8  N    3.750012   2.448304   1.472992   4.288753   4.608780
     9  O    4.699917   3.541615   2.312322   4.950458   5.653735
    10  O    4.145753   2.721354   2.324292   4.999386   4.786171
    11  C    2.400813   2.835836   2.471794   1.382101   3.381369
    12  H    3.394169   3.920329   3.452266   2.151887   4.290233
    13  C    2.843264   2.485817   1.465124   2.493060   3.928360
    14  H    3.786370   3.334922   2.160489   3.364142   4.860416
    15  Br   4.046416   3.728900   2.812194   3.628609   5.028314
                    6          7          8          9         10
     6  H    0.000000
     7  H    4.341452   0.000000
     8  N    2.657047   5.370150   0.000000
     9  O    3.888434   6.012948   1.249048   0.000000
    10  O    2.404752   6.054572   1.243863   2.226587   0.000000
    11  C    3.918516   2.144043   3.813080   4.149391   4.794941
    12  H    5.003018   2.489080   4.679774   4.798846   5.748876
    13  C    3.464662   3.475788   2.501842   2.688591   3.623886
    14  H    4.222698   4.268978   2.700314   2.434893   3.916224
    15  Br   4.569706   4.420610   3.411663   3.338935   4.434144
                   11         12         13         14         15
    11  C    0.000000
    12  H    1.084880   0.000000
    13  C    1.470034   2.189625   0.000000
    14  H    2.187771   2.543302   1.092353   0.000000
    15  Br   2.672762   2.955683   2.033334   2.535818   0.000000
 Symmetry turned off by external request.
 Stoichiometry    C6H5BrNO2(1+)
 Framework group  C1[X(C6H5BrNO2)]
 Deg. of freedom    39
 Full point group                 C1      NOp   1
 Rotational constants (GHZ):           1.1632986           0.9594224           0.5957624
 Leave Link  202 at Thu May  2 13:57:36 2024, MaxMem=   134217728 cpu:               1.3 elap:               1.3
 (Enter /software/gaussian/g16-c01/sse4/g16/l301.exe)
 Standard basis: 6-311+G(d) (5D, 7F)
 Ernie: Thresh=  0.10000D-02 Tol=  0.10000D-05 Strict=F.
 The following finite field(s) will be applied:
 An electric field of             -0.0136  0.0000  0.0000
   261 basis functions,   443 primitive gaussians,   273 cartesian basis functions
    49 alpha electrons       49 beta electrons
       nuclear repulsion energy       772.8945969580 Hartrees.
 IExCor= 4639 DFT=T Ex+Corr=wB97XD ExCW=0 ScaHFX=  1.000000
 ScaDFX=  1.000000  1.000000  1.000000  1.000000 ScalE2=  1.000000  1.000000
 IRadAn=      5 IRanWt=     -1 IRanGd=            0 ICorTp=0 IEmpDi=121
 HFx  wShort=  0.000000 wLong=  0.200000 cFull=  0.222036 cShort=  0.000000 cLong=  0.777964
 DFx  wShort=  0.000000 wLong=  0.200000 cFull=  0.000000 cShort=  0.000000 cLong=  1.000000
 NAtoms=   15 NActive=   15 NUniq=   15 SFac= 1.00D+00 NAtFMM=   60 NAOKFM=F Big=F
 Integral buffers will be    131072 words long.
 Raffenetti 2 integral format.
 Two-electron integral symmetry is turned off.
 R6Disp:  Grimme-D2 Dispersion energy=       -0.0080346408 Hartrees.
 Nuclear repulsion after empirical dispersion term =      772.8865623173 Hartrees.
 Leave Link  301 at Thu May  2 13:57:38 2024, MaxMem=   134217728 cpu:               1.1 elap:               1.2
 (Enter /software/gaussian/g16-c01/sse4/g16/l302.exe)
 NPDir=0 NMtPBC=     1 NCelOv=     1 NCel=       1 NClECP=     1 NCelD=      1
         NCelK=      1 NCelE2=     1 NClLst=     1 CellRange=     0.0.
 One-electron integrals computed using PRISM.
 NBasis=   261 RedAO= T EigKep=  2.52D-06  NBF=   261
 NBsUse=   261 1.00D-06 EigRej= -1.00D+00 NBFU=   261
 Precomputing XC quadrature grid using
 IXCGrd= 4 IRadAn=           5 IRanWt=          -1 IRanGd=           0 AccXCQ= 0.00D+00.
 Generated NRdTot=       0 NPtTot=           0 NUsed=           0 NTot=          32
 NSgBfM=   273   273   273   273   273 MxSgAt=    15 MxSgA2=    15.
 Leave Link  302 at Thu May  2 13:57:59 2024, MaxMem=   134217728 cpu:              21.4 elap:              21.4
 (Enter /software/gaussian/g16-c01/sse4/g16/l303.exe)
 DipDrv:  MaxL=1.
 The nuclear repulsion energy is now       767.0577090403 hartrees.
 Leave Link  303 at Thu May  2 13:58:03 2024, MaxMem=   134217728 cpu:               3.3 elap:               3.3
 (Enter /software/gaussian/g16-c01/sse4/g16/l401.exe)
 ExpMin= 3.50D-02 ExpMax= 4.40D+05 ExpMxC= 1.51D+04 IAcc=3 IRadAn=         5 AccDes= 0.00D+00
 Harris functional with IExCor= 4639 and IRadAn=       5 diagonalized for initial guess.
 HarFok:  IExCor= 4639 AccDes= 0.00D+00 IRadAn=         5 IDoV= 1 UseB2=F ITyADJ=14
 ICtDFT=  3500011 ScaDFX=  1.000000  1.000000  1.000000  1.000000
 FoFCou: FMM=F IPFlag=           0 FMFlag=      100000 FMFlg1=           0
         NFxFlg=           0 DoJE=T BraDBF=F KetDBF=T FulRan=T
         wScrn=  0.000000 ICntrl=       500 IOpCl=  0 I1Cent=   200000004 NGrid=           0
         NMat0=    1 NMatS0=      1 NMatT0=    0 NMatD0=    1 NMtDS0=    0 NMtDT0=    0
 Symmetry not used in FoFCou.
 Harris En= -2970.73711440591    
 JPrj=0 DoOrth=F DoCkMO=F.
 Leave Link  401 at Thu May  2 13:58:34 2024, MaxMem=   134217728 cpu:              31.4 elap:              31.4
 (Enter /software/gaussian/g16-c01/sse4/g16/l502.exe)
 Two-electron integral symmetry not used.
 Closed shell SCF:
 Using DIIS extrapolation, IDIIS=  1040.
 NGot=   134217728 LenX=   134063053 LenY=   133988083
 Requested convergence on RMS density matrix=1.00D-08 within 128 cycles.
 Requested convergence on MAX density matrix=1.00D-06.
 Requested convergence on             energy=1.00D-06.
 No special actions if energy rises.
 Fock matrices will be formed incrementally for  20 cycles.

 Cycle   1  Pass 1  IDiag  1:
 FoFJK:  IHMeth= 1 ICntrl=       0 DoSepK=T KAlg= 0 I1Cent=           0 FoldK=F
 IRaf=         1 NMat=       1 IRICut=       1 DoRegI=T DoRafI=F ISym2E= 0 IDoP0=0 IntGTp=1.
 FoFCou: FMM=F IPFlag=           0 FMFlag=      100000 FMFlg1=           0
         NFxFlg=           0 DoJE=T BraDBF=F KetDBF=F FulRan=T
         wScrn=  0.000000 ICntrl=       500 IOpCl=  0 I1Cent=           0 NGrid=           0
         NMat0=    1 NMatS0=      1 NMatT0=    0 NMatD0=    1 NMtDS0=    0 NMtDT0=    0
 Symmetry not used in FoFCou.
 E= -3008.43408925926    
 DIIS: error= 2.90D-01 at cycle   1 NSaved=   1.
 NSaved= 1 IEnMin= 1 EnMin= -3008.43408925926     IErMin= 1 ErrMin= 2.90D-01
 ErrMax= 2.90D-01  0.00D+00 EMaxC= 1.00D-01 BMatC= 1.26D+01 BMatP= 1.26D+01
 IDIUse=3 WtCom= 0.00D+00 WtEn= 1.00D+00
 Coeff-Com:  0.100D+01
 Coeff-En:   0.100D+01
 Coeff:      0.100D+01
 Gap=     1.183 Goal=   None    Shift=    0.000
 GapD=    1.183 DampG=2.000 DampE=0.250 DampFc=0.5000 IDamp=-1.
 Damping current iteration by 5.00D-01
 RMSDP=3.88D-01 MaxDP=2.36D+01              OVMax= 9.64D-01

 Cycle   2  Pass 1  IDiag  1:
 RMSU=  7.97D-02    CP:  5.89D-01
 E= -3004.72935483010     Delta-E=        3.704734429163 Rises=F Damp=T
 DIIS: error= 1.47D-01 at cycle   2 NSaved=   2.
 NSaved= 2 IEnMin= 1 EnMin= -3008.43408925926     IErMin= 2 ErrMin= 1.47D-01
 ErrMax= 1.47D-01  0.00D+00 EMaxC= 1.00D-01 BMatC= 3.51D+00 BMatP= 1.26D+01
 IDIUse=3 WtCom= 0.00D+00 WtEn= 1.00D+00
 Coeff-Com:  0.496D-01 0.950D+00
 Coeff-En:   0.759D+00 0.241D+00
 Coeff:      0.759D+00 0.241D+00
 Gap=     0.068 Goal=   None    Shift=    0.000
 RMSDP=2.04D-01 MaxDP=1.15D+01 DE= 3.70D+00 OVMax= 9.25D-01

 Cycle   3  Pass 1  IDiag  1:
 RMSU=  2.69D-02    CP:  1.19D-01  1.04D+00
 E= -3008.95565081112     Delta-E=       -4.226295981022 Rises=F Damp=F
 DIIS: error= 1.43D-01 at cycle   3 NSaved=   3.
 NSaved= 3 IEnMin= 3 EnMin= -3008.95565081112     IErMin= 3 ErrMin= 1.43D-01
 ErrMax= 1.43D-01  0.00D+00 EMaxC= 1.00D-01 BMatC= 2.48D+00 BMatP= 3.51D+00
 IDIUse=3 WtCom= 0.00D+00 WtEn= 1.00D+00
 Coeff-Com:  0.341D+00-0.196D+00 0.855D+00
 Coeff-En:   0.441D+00 0.000D+00 0.559D+00
 Coeff:      0.441D+00 0.000D+00 0.559D+00
 Gap=     0.137 Goal=   None    Shift=    0.000
 RMSDP=3.35D-02 MaxDP=2.99D+00 DE=-4.23D+00 OVMax= 8.46D-01

 Cycle   4  Pass 1  IDiag  1:
 RMSU=  2.45D-02    CP:  1.40D-01  7.97D-01  7.23D-01
 E= -3009.92060402966     Delta-E=       -0.964953218537 Rises=F Damp=F
 DIIS: error= 5.15D-02 at cycle   4 NSaved=   4.
 NSaved= 4 IEnMin= 4 EnMin= -3009.92060402966     IErMin= 4 ErrMin= 5.15D-02
 ErrMax= 5.15D-02  0.00D+00 EMaxC= 1.00D-01 BMatC= 4.55D-01 BMatP= 2.48D+00
 IDIUse=3 WtCom= 4.85D-01 WtEn= 5.15D-01
 Coeff-Com:  0.566D-01 0.710D-01 0.221D+00 0.652D+00
 Coeff-En:   0.000D+00 0.000D+00 0.306D+00 0.694D+00
 Coeff:      0.275D-01 0.344D-01 0.265D+00 0.674D+00
 Gap=    -0.061 Goal=   None    Shift=    0.000
 RMSDP=2.86D-02 MaxDP=2.16D+00 DE=-9.65D-01 OVMax= 7.41D-01

 Cycle   5  Pass 1  IDiag  1:
 RMSU=  1.10D-02    CP:  1.02D-01  8.82D-01  1.06D+00  3.00D-01
 E= -3010.28636037381     Delta-E=       -0.365756344154 Rises=F Damp=F
 DIIS: error= 6.24D-02 at cycle   5 NSaved=   5.
 NSaved= 5 IEnMin= 5 EnMin= -3010.28636037381     IErMin= 4 ErrMin= 5.15D-02
 ErrMax= 6.24D-02  0.00D+00 EMaxC= 1.00D-01 BMatC= 3.77D-01 BMatP= 4.55D-01
 IDIUse=3 WtCom= 3.76D-01 WtEn= 6.24D-01
 Coeff-Com: -0.236D-01 0.586D-01 0.147D-01 0.483D+00 0.467D+00
 Coeff-En:   0.000D+00 0.000D+00 0.000D+00 0.311D+00 0.689D+00
 Coeff:     -0.888D-02 0.220D-01 0.552D-02 0.376D+00 0.606D+00
 Gap=     0.196 Goal=   None    Shift=    0.000
 RMSDP=1.43D-02 MaxDP=1.23D+00 DE=-3.66D-01 OVMax= 1.16D-01

 Cycle   6  Pass 1  IDiag  1:
 RMSU=  9.62D-03    CP:  1.15D-01  8.61D-01  1.04D+00  6.44D-01  9.18D-01
 E= -3010.52188079435     Delta-E=       -0.235520420535 Rises=F Damp=F
 DIIS: error= 1.14D-02 at cycle   6 NSaved=   6.
 NSaved= 6 IEnMin= 6 EnMin= -3010.52188079435     IErMin= 6 ErrMin= 1.14D-02
 ErrMax= 1.14D-02  0.00D+00 EMaxC= 1.00D-01 BMatC= 2.99D-02 BMatP= 3.77D-01
 IDIUse=3 WtCom= 8.86D-01 WtEn= 1.14D-01
 Coeff-Com:  0.633D-02-0.173D-01-0.167D-01 0.110D+00 0.228D+00 0.689D+00
 Coeff-En:   0.000D+00 0.000D+00 0.000D+00 0.000D+00 0.000D+00 0.100D+01
 Coeff:      0.561D-02-0.153D-01-0.148D-01 0.977D-01 0.202D+00 0.725D+00
 Gap=     0.197 Goal=   None    Shift=    0.000
 RMSDP=7.24D-03 MaxDP=6.96D-01 DE=-2.36D-01 OVMax= 8.22D-02

 Cycle   7  Pass 1  IDiag  1:
 RMSU=  3.52D-03    CP:  1.13D-01  7.94D-01  9.48D-01  7.31D-01  9.17D-01
                    CP:  1.04D+00
 E= -3010.54311533458     Delta-E=       -0.021234540226 Rises=F Damp=F
 DIIS: error= 9.60D-03 at cycle   7 NSaved=   7.
 NSaved= 7 IEnMin= 7 EnMin= -3010.54311533458     IErMin= 7 ErrMin= 9.60D-03
 ErrMax= 9.60D-03  0.00D+00 EMaxC= 1.00D-01 BMatC= 7.64D-03 BMatP= 2.99D-02
 IDIUse=3 WtCom= 9.04D-01 WtEn= 9.60D-02
 Coeff-Com:  0.364D-02-0.737D-02-0.258D-01 0.169D-01-0.874D-02 0.283D+00
 Coeff-Com:  0.738D+00
 Coeff-En:   0.000D+00 0.000D+00 0.000D+00 0.000D+00 0.000D+00 0.000D+00
 Coeff-En:   0.100D+01
 Coeff:      0.329D-02-0.666D-02-0.233D-01 0.153D-01-0.790D-02 0.256D+00
 Coeff:      0.763D+00
 Gap=     0.210 Goal=   None    Shift=    0.000
 RMSDP=4.07D-03 MaxDP=3.57D-01 DE=-2.12D-02 OVMax= 4.02D-02

 Cycle   8  Pass 1  IDiag  1:
 RMSU=  1.22D-03    CP:  1.17D-01  7.81D-01  9.14D-01  8.23D-01  9.08D-01
                    CP:  1.26D+00  1.32D+00
 E= -3010.55183970127     Delta-E=       -0.008724366696 Rises=F Damp=F
 DIIS: error= 3.43D-03 at cycle   8 NSaved=   8.
 NSaved= 8 IEnMin= 8 EnMin= -3010.55183970127     IErMin= 8 ErrMin= 3.43D-03
 ErrMax= 3.43D-03  0.00D+00 EMaxC= 1.00D-01 BMatC= 1.68D-03 BMatP= 7.64D-03
 IDIUse=3 WtCom= 9.66D-01 WtEn= 3.43D-02
 Coeff-Com:  0.172D-02-0.270D-02-0.941D-02-0.645D-02-0.638D-01-0.374D-01
 Coeff-Com:  0.471D+00 0.647D+00
 Coeff-En:   0.000D+00 0.000D+00 0.000D+00 0.000D+00 0.000D+00 0.000D+00
 Coeff-En:   0.000D+00 0.100D+01
 Coeff:      0.166D-02-0.261D-02-0.909D-02-0.623D-02-0.616D-01-0.361D-01
 Coeff:      0.455D+00 0.659D+00
 Gap=     0.215 Goal=   None    Shift=    0.000
 RMSDP=1.93D-03 MaxDP=1.71D-01 DE=-8.72D-03 OVMax= 3.91D-02

 Cycle   9  Pass 1  IDiag  1:
 RMSU=  6.87D-04    CP:  1.19D-01  7.82D-01  8.96D-01  8.62D-01  9.03D-01
                    CP:  1.34D+00  1.57D+00  1.08D+00
 E= -3010.55481981581     Delta-E=       -0.002980114542 Rises=F Damp=F
 DIIS: error= 3.32D-03 at cycle   9 NSaved=   9.
 NSaved= 9 IEnMin= 9 EnMin= -3010.55481981581     IErMin= 9 ErrMin= 3.32D-03
 ErrMax= 3.32D-03  0.00D+00 EMaxC= 1.00D-01 BMatC= 6.47D-04 BMatP= 1.68D-03
 IDIUse=3 WtCom= 9.67D-01 WtEn= 3.32D-02
 Coeff-Com:  0.122D-02-0.206D-02 0.384D-02-0.122D-01-0.481D-01-0.131D+00
 Coeff-Com:  0.910D-01 0.501D+00 0.596D+00
 Coeff-En:   0.000D+00 0.000D+00 0.000D+00 0.000D+00 0.000D+00 0.000D+00
 Coeff-En:   0.000D+00 0.000D+00 0.100D+01
 Coeff:      0.118D-02-0.199D-02 0.371D-02-0.118D-01-0.465D-01-0.126D+00
 Coeff:      0.880D-01 0.484D+00 0.610D+00
 Gap=     0.216 Goal=   None    Shift=    0.000
 RMSDP=1.61D-03 MaxDP=1.34D-01 DE=-2.98D-03 OVMax= 2.54D-02

 Cycle  10  Pass 1  IDiag  1:
 RMSU=  4.92D-04    CP:  1.19D-01  7.70D-01  8.80D-01  8.77D-01  8.74D-01
                    CP:  1.37D+00  1.75D+00  1.67D+00  8.35D-01
 E= -3010.55629933470     Delta-E=       -0.001479518887 Rises=F Damp=F
 DIIS: error= 7.87D-04 at cycle  10 NSaved=  10.
 NSaved=10 IEnMin=10 EnMin= -3010.55629933470     IErMin=10 ErrMin= 7.87D-04
 ErrMax= 7.87D-04  0.00D+00 EMaxC= 1.00D-01 BMatC= 7.78D-05 BMatP= 6.47D-04
 IDIUse=3 WtCom= 9.92D-01 WtEn= 7.87D-03
 Coeff-Com:  0.327D-03-0.851D-03 0.372D-02-0.739D-02 0.255D-02-0.163D-01
 Coeff-Com: -0.692D-01-0.451D-01 0.163D+00 0.969D+00
 Coeff-En:   0.000D+00 0.000D+00 0.000D+00 0.000D+00 0.000D+00 0.000D+00
 Coeff-En:   0.000D+00 0.000D+00 0.000D+00 0.100D+01
 Coeff:      0.324D-03-0.845D-03 0.369D-02-0.733D-02 0.253D-02-0.161D-01
 Coeff:     -0.686D-01-0.448D-01 0.162D+00 0.970D+00
 Gap=     0.214 Goal=   None    Shift=    0.000
 RMSDP=7.25D-04 MaxDP=7.08D-02 DE=-1.48D-03 OVMax= 2.35D-02

 Cycle  11  Pass 1  IDiag  1:
 RMSU=  1.51D-04    CP:  1.19D-01  7.66D-01  8.76D-01  8.71D-01  8.59D-01
                    CP:  1.37D+00  1.82D+00  1.98D+00  9.98D-01  1.69D+00
 E= -3010.55687185517     Delta-E=       -0.000572520470 Rises=F Damp=F
 DIIS: error= 3.37D-04 at cycle  11 NSaved=  11.
 NSaved=11 IEnMin=11 EnMin= -3010.55687185517     IErMin=11 ErrMin= 3.37D-04
 ErrMax= 3.37D-04  0.00D+00 EMaxC= 1.00D-01 BMatC= 3.37D-05 BMatP= 7.78D-05
 IDIUse=3 WtCom= 9.97D-01 WtEn= 3.37D-03
 Coeff-Com: -0.538D-03 0.882D-03-0.154D-02-0.207D-02 0.168D-01 0.493D-01
 Coeff-Com: -0.205D-01-0.157D+00-0.170D+00 0.188D+00 0.110D+01
 Coeff-En:   0.000D+00 0.000D+00 0.000D+00 0.000D+00 0.000D+00 0.000D+00
 Coeff-En:   0.000D+00 0.000D+00 0.000D+00 0.000D+00 0.100D+01
 Coeff:     -0.536D-03 0.879D-03-0.154D-02-0.207D-02 0.167D-01 0.491D-01
 Coeff:     -0.204D-01-0.156D+00-0.169D+00 0.187D+00 0.110D+01
 Gap=     0.214 Goal=   None    Shift=    0.000
 RMSDP=6.99D-04 MaxDP=6.18D-02 DE=-5.73D-04 OVMax= 1.92D-02

 Cycle  12  Pass 1  IDiag  1:
 RMSU=  1.08D-04    CP:  1.19D-01  7.66D-01  8.78D-01  8.56D-01  8.47D-01
                    CP:  1.35D+00  1.84D+00  2.24D+00  1.08D+00  2.42D+00
                    CP:  1.72D+00
 E= -3010.55711364805     Delta-E=       -0.000241792880 Rises=F Damp=F
 DIIS: error= 1.68D-04 at cycle  12 NSaved=  12.
 NSaved=12 IEnMin=12 EnMin= -3010.55711364805     IErMin=12 ErrMin= 1.68D-04
 ErrMax= 1.68D-04  0.00D+00 EMaxC= 1.00D-01 BMatC= 7.18D-06 BMatP= 3.37D-05
 IDIUse=3 WtCom= 9.98D-01 WtEn= 1.68D-03
 Coeff-Com: -0.263D-03 0.497D-03-0.120D-02-0.646D-03 0.243D-02 0.165D-01
 Coeff-Com:  0.128D-01-0.162D-01-0.690D-01-0.215D+00 0.122D+00 0.115D+01
 Coeff-En:   0.000D+00 0.000D+00 0.000D+00 0.000D+00 0.000D+00 0.000D+00
 Coeff-En:   0.000D+00 0.000D+00 0.000D+00 0.000D+00 0.000D+00 0.100D+01
 Coeff:     -0.263D-03 0.496D-03-0.120D-02-0.645D-03 0.242D-02 0.164D-01
 Coeff:      0.127D-01-0.162D-01-0.689D-01-0.215D+00 0.122D+00 0.115D+01
 Gap=     0.215 Goal=   None    Shift=    0.000
 RMSDP=4.72D-04 MaxDP=5.57D-02 DE=-2.42D-04 OVMax= 1.25D-02

 Cycle  13  Pass 1  IDiag  1:
 RMSU=  4.63D-05    CP:  1.19D-01  7.63D-01  8.78D-01  8.47D-01  8.39D-01
                    CP:  1.34D+00  1.86D+00  2.41D+00  1.10D+00  2.89D+00
                    CP:  2.28D+00  1.35D+00
 E= -3010.55718352711     Delta-E=       -0.000069879060 Rises=F Damp=F
 DIIS: error= 9.06D-05 at cycle  13 NSaved=  13.
 NSaved=13 IEnMin=13 EnMin= -3010.55718352711     IErMin=13 ErrMin= 9.06D-05
 ErrMax= 9.06D-05  0.00D+00 EMaxC= 1.00D-01 BMatC= 1.73D-06 BMatP= 7.18D-06
 IDIUse=1 WtCom= 1.00D+00 WtEn= 0.00D+00
 Coeff-Com: -0.533D-05 0.279D-04-0.941D-04-0.146D-03-0.291D-02-0.412D-02
 Coeff-Com:  0.897D-02 0.296D-01 0.109D-01-0.155D+00-0.238D+00 0.559D+00
 Coeff-Com:  0.792D+00
 Coeff:     -0.533D-05 0.279D-04-0.941D-04-0.146D-03-0.291D-02-0.412D-02
 Coeff:      0.897D-02 0.296D-01 0.109D-01-0.155D+00-0.238D+00 0.559D+00
 Coeff:      0.792D+00
 Gap=     0.215 Goal=   None    Shift=    0.000
 RMSDP=1.65D-04 MaxDP=1.28D-02 DE=-6.99D-05 OVMax= 5.84D-03

 Cycle  14  Pass 1  IDiag  1:
 RMSU=  3.54D-05    CP:  1.19D-01  7.63D-01  8.78D-01  8.44D-01  8.35D-01
                    CP:  1.34D+00  1.87D+00  2.48D+00  1.13D+00  3.00D+00
                    CP:  2.52D+00  1.71D+00  1.06D+00
 E= -3010.55719593842     Delta-E=       -0.000012411314 Rises=F Damp=F
 DIIS: error= 3.09D-05 at cycle  14 NSaved=  14.
 NSaved=14 IEnMin=14 EnMin= -3010.55719593842     IErMin=14 ErrMin= 3.09D-05
 ErrMax= 3.09D-05  0.00D+00 EMaxC= 1.00D-01 BMatC= 1.81D-07 BMatP= 1.73D-06
 IDIUse=1 WtCom= 1.00D+00 WtEn= 0.00D+00
 Coeff-Com:  0.536D-04-0.119D-03 0.109D-03-0.206D-03-0.113D-02-0.291D-02
 Coeff-Com:  0.132D-02 0.934D-02 0.108D-01-0.759D-02-0.507D-01-0.576D-01
 Coeff-Com:  0.162D+00 0.937D+00
 Coeff:      0.536D-04-0.119D-03 0.109D-03-0.206D-03-0.113D-02-0.291D-02
 Coeff:      0.132D-02 0.934D-02 0.108D-01-0.759D-02-0.507D-01-0.576D-01
 Coeff:      0.162D+00 0.937D+00
 Gap=     0.215 Goal=   None    Shift=    0.000
 RMSDP=3.44D-05 MaxDP=2.31D-03 DE=-1.24D-05 OVMax= 1.31D-03

 Cycle  15  Pass 1  IDiag  1:
 RMSU=  9.88D-06    CP:  1.19D-01  7.63D-01  8.78D-01  8.44D-01  8.35D-01
                    CP:  1.34D+00  1.87D+00  2.50D+00  1.14D+00  3.00D+00
                    CP:  2.57D+00  1.79D+00  1.24D+00  1.45D+00
 E= -3010.55719705084     Delta-E=       -0.000001112417 Rises=F Damp=F
 DIIS: error= 1.55D-05 at cycle  15 NSaved=  15.
 NSaved=15 IEnMin=15 EnMin= -3010.55719705084     IErMin=15 ErrMin= 1.55D-05
 ErrMax= 1.55D-05  0.00D+00 EMaxC= 1.00D-01 BMatC= 4.17D-08 BMatP= 1.81D-07
 IDIUse=1 WtCom= 1.00D+00 WtEn= 0.00D+00
 Coeff-Com:  0.115D-04-0.277D-04-0.172D-04 0.327D-04 0.349D-03 0.243D-03
 Coeff-Com: -0.348D-03-0.376D-02-0.360D-02 0.182D-01 0.502D-01-0.103D+00
 Coeff-Com: -0.149D+00 0.897D-01 0.110D+01
 Coeff:      0.115D-04-0.277D-04-0.172D-04 0.327D-04 0.349D-03 0.243D-03
 Coeff:     -0.348D-03-0.376D-02-0.360D-02 0.182D-01 0.502D-01-0.103D+00
 Coeff:     -0.149D+00 0.897D-01 0.110D+01
 Gap=     0.215 Goal=   None    Shift=    0.000
 RMSDP=1.85D-05 MaxDP=1.35D-03 DE=-1.11D-06 OVMax= 6.69D-04

 Cycle  16  Pass 1  IDiag  1:
 RMSU=  5.68D-06    CP:  1.19D-01  7.63D-01  8.78D-01  8.44D-01  8.35D-01
                    CP:  1.34D+00  1.87D+00  2.51D+00  1.14D+00  3.00D+00
                    CP:  2.59D+00  1.82D+00  1.30D+00  1.72D+00  1.28D+00
 E= -3010.55719730348     Delta-E=       -0.000000252638 Rises=F Damp=F
 DIIS: error= 5.14D-06 at cycle  16 NSaved=  16.
 NSaved=16 IEnMin=16 EnMin= -3010.55719730348     IErMin=16 ErrMin= 5.14D-06
 ErrMax= 5.14D-06  0.00D+00 EMaxC= 1.00D-01 BMatC= 1.04D-08 BMatP= 4.17D-08
 IDIUse=1 WtCom= 1.00D+00 WtEn= 0.00D+00
 Coeff-Com:  0.298D-05-0.645D-05-0.217D-04 0.409D-04 0.243D-03 0.641D-03
 Coeff-Com: -0.629D-04-0.271D-02-0.364D-02 0.512D-02 0.227D-01-0.348D-02
 Coeff-Com: -0.669D-01-0.166D+00 0.221D+00 0.993D+00
 Coeff:      0.298D-05-0.645D-05-0.217D-04 0.409D-04 0.243D-03 0.641D-03
 Coeff:     -0.629D-04-0.271D-02-0.364D-02 0.512D-02 0.227D-01-0.348D-02
 Coeff:     -0.669D-01-0.166D+00 0.221D+00 0.993D+00
 Gap=     0.215 Goal=   None    Shift=    0.000
 RMSDP=6.39D-06 MaxDP=5.14D-04 DE=-2.53D-07 OVMax= 1.36D-04

 Cycle  17  Pass 1  IDiag  1:
 RMSU=  2.56D-06    CP:  1.19D-01  7.63D-01  8.78D-01  8.44D-01  8.35D-01
                    CP:  1.34D+00  1.87D+00  2.51D+00  1.14D+00  3.00D+00
                    CP:  2.59D+00  1.81D+00  1.29D+00  1.72D+00  1.32D+00
                    CP:  1.37D+00
 E= -3010.55719733758     Delta-E=       -0.000000034104 Rises=F Damp=F
 DIIS: error= 1.95D-06 at cycle  17 NSaved=  17.
 NSaved=17 IEnMin=17 EnMin= -3010.55719733758     IErMin=17 ErrMin= 1.95D-06
 ErrMax= 1.95D-06  0.00D+00 EMaxC= 1.00D-01 BMatC= 1.61D-09 BMatP= 1.04D-08
 IDIUse=1 WtCom= 1.00D+00 WtEn= 0.00D+00
 Coeff-Com:  0.250D-05-0.410D-05 0.391D-05 0.383D-05-0.190D-04 0.369D-04
 Coeff-Com: -0.549D-04-0.982D-04-0.411D-03-0.200D-02-0.347D-02 0.166D-01
 Coeff-Com:  0.940D-02-0.284D-01-0.124D+00 0.126D+00 0.101D+01
 Coeff:      0.250D-05-0.410D-05 0.391D-05 0.383D-05-0.190D-04 0.369D-04
 Coeff:     -0.549D-04-0.982D-04-0.411D-03-0.200D-02-0.347D-02 0.166D-01
 Coeff:      0.940D-02-0.284D-01-0.124D+00 0.126D+00 0.101D+01
 Gap=     0.215 Goal=   None    Shift=    0.000
 RMSDP=3.67D-06 MaxDP=3.22D-04 DE=-3.41D-08 OVMax= 5.49D-05

 Cycle  18  Pass 1  IDiag  1:
 RMSU=  5.93D-07    CP:  1.19D-01  7.63D-01  8.77D-01  8.44D-01  8.35D-01
                    CP:  1.34D+00  1.87D+00  2.51D+00  1.14D+00  3.00D+00
                    CP:  2.58D+00  1.81D+00  1.28D+00  1.71D+00  1.29D+00
                    CP:  1.49D+00  1.44D+00
 E= -3010.55719734232     Delta-E=       -0.000000004739 Rises=F Damp=F
 DIIS: error= 1.23D-06 at cycle  18 NSaved=  18.
 NSaved=18 IEnMin=18 EnMin= -3010.55719734232     IErMin=18 ErrMin= 1.23D-06
 ErrMax= 1.23D-06  0.00D+00 EMaxC= 1.00D-01 BMatC= 2.24D-10 BMatP= 1.61D-09
 IDIUse=1 WtCom= 1.00D+00 WtEn= 0.00D+00
 Coeff-Com:  0.512D-06-0.836D-06 0.260D-05-0.126D-05-0.200D-04-0.358D-04
 Coeff-Com:  0.547D-04 0.269D-03 0.237D-03-0.103D-02-0.284D-02 0.439D-02
 Coeff-Com:  0.797D-02 0.146D-01-0.597D-01-0.131D+00 0.255D+00 0.912D+00
 Coeff:      0.512D-06-0.836D-06 0.260D-05-0.126D-05-0.200D-04-0.358D-04
 Coeff:      0.547D-04 0.269D-03 0.237D-03-0.103D-02-0.284D-02 0.439D-02
 Coeff:      0.797D-02 0.146D-01-0.597D-01-0.131D+00 0.255D+00 0.912D+00
 Gap=     0.215 Goal=   None    Shift=    0.000
 RMSDP=9.72D-07 MaxDP=8.01D-05 DE=-4.74D-09 OVMax= 2.80D-05

 Cycle  19  Pass 1  IDiag  1:
 RMSU=  3.14D-07    CP:  1.19D-01  7.63D-01  8.77D-01  8.44D-01  8.35D-01
                    CP:  1.34D+00  1.87D+00  2.51D+00  1.14D+00  3.00D+00
                    CP:  2.58D+00  1.81D+00  1.28D+00  1.71D+00  1.27D+00
                    CP:  1.57D+00  1.57D+00  1.34D+00
 E= -3010.55719734320     Delta-E=       -0.000000000877 Rises=F Damp=F
 DIIS: error= 3.13D-07 at cycle  19 NSaved=  19.
 NSaved=19 IEnMin=19 EnMin= -3010.55719734320     IErMin=19 ErrMin= 3.13D-07
 ErrMax= 3.13D-07  0.00D+00 EMaxC= 1.00D-01 BMatC= 3.14D-11 BMatP= 2.24D-10
 IDIUse=1 WtCom= 1.00D+00 WtEn= 0.00D+00
 Coeff-Com: -0.202D-06 0.370D-06-0.172D-06 0.237D-06-0.378D-05-0.123D-04
 Coeff-Com:  0.366D-04 0.727D-04 0.981D-04-0.441D-04-0.395D-03-0.118D-02
 Coeff-Com:  0.388D-03 0.912D-02 0.558D-02-0.495D-01-0.721D-01 0.265D+00
 Coeff-Com:  0.843D+00
 Coeff:     -0.202D-06 0.370D-06-0.172D-06 0.237D-06-0.378D-05-0.123D-04
 Coeff:      0.366D-04 0.727D-04 0.981D-04-0.441D-04-0.395D-03-0.118D-02
 Coeff:      0.388D-03 0.912D-02 0.558D-02-0.495D-01-0.721D-01 0.265D+00
 Coeff:      0.843D+00
 Gap=     0.215 Goal=   None    Shift=    0.000
 RMSDP=3.00D-07 MaxDP=2.71D-05 DE=-8.77D-10 OVMax= 9.35D-06

 Cycle  20  Pass 1  IDiag  1:
 RMSU=  1.19D-07    CP:  1.19D-01  7.63D-01  8.77D-01  8.44D-01  8.35D-01
                    CP:  1.34D+00  1.87D+00  2.51D+00  1.14D+00  3.00D+00
                    CP:  2.58D+00  1.81D+00  1.28D+00  1.70D+00  1.26D+00
                    CP:  1.57D+00  1.59D+00  1.55D+00  1.30D+00
 E= -3010.55719734339     Delta-E=       -0.000000000192 Rises=F Damp=F
 DIIS: error= 1.65D-07 at cycle  20 NSaved=  20.
 NSaved=20 IEnMin=20 EnMin= -3010.55719734339     IErMin=20 ErrMin= 1.65D-07
 ErrMax= 1.65D-07  0.00D+00 EMaxC= 1.00D-01 BMatC= 8.56D-12 BMatP= 3.14D-11
 IDIUse=1 WtCom= 1.00D+00 WtEn= 0.00D+00
 Coeff-Com: -0.141D-06 0.226D-06-0.514D-06-0.147D-05-0.178D-05-0.276D-05
 Coeff-Com:  0.419D-05-0.227D-05 0.332D-04 0.197D-03 0.142D-03-0.105D-02
 Coeff-Com: -0.649D-03 0.177D-02 0.856D-02-0.375D-02-0.695D-01-0.525D-01
 Coeff-Com:  0.235D+00 0.881D+00
 Coeff:     -0.141D-06 0.226D-06-0.514D-06-0.147D-05-0.178D-05-0.276D-05
 Coeff:      0.419D-05-0.227D-05 0.332D-04 0.197D-03 0.142D-03-0.105D-02
 Coeff:     -0.649D-03 0.177D-02 0.856D-02-0.375D-02-0.695D-01-0.525D-01
 Coeff:      0.235D+00 0.881D+00
 Gap=     0.215 Goal=   None    Shift=    0.000
 RMSDP=3.59D-07 MaxDP=3.39D-05 DE=-1.92D-10 OVMax= 6.93D-06

 Cycle  21  Pass 1  IDiag  1:
 Restarting incremental Fock formation.
 E= -3010.55719734342     Delta-E=       -0.000000000030 Rises=F Damp=F
 DIIS: error= 1.03D-07 at cycle  21 NSaved=  20.
 NSaved=20 IEnMin=20 EnMin= -3010.55719734342     IErMin=20 ErrMin= 1.03D-07
 ErrMax= 1.03D-07  0.00D+00 EMaxC= 1.00D-01 BMatC= 1.59D-12 BMatP= 8.56D-12
 IDIUse=1 WtCom= 1.00D+00 WtEn= 0.00D+00
 Coeff-Com: -0.172D-07-0.151D-06-0.301D-06 0.182D-05 0.355D-05-0.136D-04
 Coeff-Com: -0.269D-04-0.326D-04 0.325D-04 0.146D-03 0.169D-03-0.180D-03
 Coeff-Com: -0.226D-02-0.333D-03 0.124D-01 0.179D-01-0.740D-01-0.244D+00
 Coeff-Com:  0.990D-01 0.119D+01
 Coeff:     -0.172D-07-0.151D-06-0.301D-06 0.182D-05 0.355D-05-0.136D-04
 Coeff:     -0.269D-04-0.326D-04 0.325D-04 0.146D-03 0.169D-03-0.180D-03
 Coeff:     -0.226D-02-0.333D-03 0.124D-01 0.179D-01-0.740D-01-0.244D+00
 Coeff:      0.990D-01 0.119D+01
 Gap=     0.215 Goal=   None    Shift=    0.000
 RMSDP=1.73D-07 MaxDP=1.53D-05 DE=-3.00D-11 OVMax= 4.71D-06

 Cycle  22  Pass 1  IDiag  1:
 RMSU=  1.55D-07    CP:  1.00D+00
 E= -3010.55719734339     Delta-E=        0.000000000034 Rises=F Damp=F
 DIIS: error= 4.71D-08 at cycle  22 NSaved=  20.
 NSaved=20 IEnMin=19 EnMin= -3010.55719734342     IErMin=20 ErrMin= 4.71D-08
 ErrMax= 4.71D-08  0.00D+00 EMaxC= 1.00D-01 BMatC= 5.37D-13 BMatP= 1.59D-12
 IDIUse=1 WtCom= 1.00D+00 WtEn= 0.00D+00
 Coeff-Com:  0.440D-07-0.307D-06 0.344D-06 0.148D-05 0.213D-05-0.179D-05
 Coeff-Com: -0.134D-04-0.507D-04 0.410D-04 0.235D-03 0.459D-04-0.973D-03
 Coeff-Com: -0.104D-02 0.243D-02 0.132D-01-0.101D-01-0.677D-01-0.108D+00
 Coeff-Com:  0.186D+00 0.986D+00
 Coeff:      0.440D-07-0.307D-06 0.344D-06 0.148D-05 0.213D-05-0.179D-05
 Coeff:     -0.134D-04-0.507D-04 0.410D-04 0.235D-03 0.459D-04-0.973D-03
 Coeff:     -0.104D-02 0.243D-02 0.132D-01-0.101D-01-0.677D-01-0.108D+00
 Coeff:      0.186D+00 0.986D+00
 Gap=     0.215 Goal=   None    Shift=    0.000
 RMSDP=7.68D-08 MaxDP=8.53D-06 DE= 3.37D-11 OVMax= 1.71D-06

 Cycle  23  Pass 1  IDiag  1:
 RMSU=  4.02D-08    CP:  1.00D+00  1.30D+00
 E= -3010.55719734340     Delta-E=       -0.000000000011 Rises=F Damp=F
 DIIS: error= 1.37D-08 at cycle  23 NSaved=  20.
 NSaved=20 IEnMin=18 EnMin= -3010.55719734342     IErMin=20 ErrMin= 1.37D-08
 ErrMax= 1.37D-08  0.00D+00 EMaxC= 1.00D-01 BMatC= 8.25D-14 BMatP= 5.37D-13
 IDIUse=1 WtCom= 1.00D+00 WtEn= 0.00D+00
 Coeff-Com: -0.605D-07-0.130D-06 0.150D-06 0.358D-05 0.326D-05 0.727D-06
 Coeff-Com: -0.248D-04-0.808D-05 0.348D-04 0.276D-04 0.135D-04-0.191D-03
 Coeff-Com: -0.754D-03 0.320D-02 0.660D-02 0.106D-01-0.505D-01-0.116D+00
 Coeff-Com:  0.267D+00 0.881D+00
 Coeff:     -0.605D-07-0.130D-06 0.150D-06 0.358D-05 0.326D-05 0.727D-06
 Coeff:     -0.248D-04-0.808D-05 0.348D-04 0.276D-04 0.135D-04-0.191D-03
 Coeff:     -0.754D-03 0.320D-02 0.660D-02 0.106D-01-0.505D-01-0.116D+00
 Coeff:      0.267D+00 0.881D+00
 Gap=     0.215 Goal=   None    Shift=    0.000
 RMSDP=3.27D-08 MaxDP=4.16D-06 DE=-1.09D-11 OVMax= 4.86D-07

 Cycle  24  Pass 1  IDiag  1:
 RMSU=  1.84D-08    CP:  1.00D+00  1.31D+00  9.87D-01
 E= -3010.55719734337     Delta-E=        0.000000000030 Rises=F Damp=F
 DIIS: error= 6.44D-09 at cycle  24 NSaved=  20.
 NSaved=20 IEnMin=17 EnMin= -3010.55719734342     IErMin=20 ErrMin= 6.44D-09
 ErrMax= 6.44D-09  0.00D+00 EMaxC= 1.00D-01 BMatC= 5.12D-15 BMatP= 8.25D-14
 IDIUse=1 WtCom= 1.00D+00 WtEn= 0.00D+00
 Coeff-Com: -0.317D-07-0.819D-07-0.345D-07-0.283D-06 0.148D-05 0.125D-05
 Coeff-Com: -0.660D-05-0.162D-04 0.647D-05 0.115D-03 0.132D-04-0.575D-03
 Coeff-Com: -0.766D-03 0.224D-02 0.831D-02 0.130D-02-0.280D-01-0.801D-01
 Coeff-Com:  0.914D-01 0.101D+01
 Coeff:     -0.317D-07-0.819D-07-0.345D-07-0.283D-06 0.148D-05 0.125D-05
 Coeff:     -0.660D-05-0.162D-04 0.647D-05 0.115D-03 0.132D-04-0.575D-03
 Coeff:     -0.766D-03 0.224D-02 0.831D-02 0.130D-02-0.280D-01-0.801D-01
 Coeff:      0.914D-01 0.101D+01
 Gap=     0.215 Goal=   None    Shift=    0.000
 RMSDP=1.04D-08 MaxDP=8.20D-07 DE= 2.96D-11 OVMax= 2.67D-07

 Cycle  25  Pass 1  IDiag  1:
 RMSU=  8.32D-09    CP:  1.00D+00  1.33D+00  9.78D-01  1.09D+00
 E= -3010.55719734341     Delta-E=       -0.000000000041 Rises=F Damp=F
 DIIS: error= 3.30D-09 at cycle  25 NSaved=  20.
 NSaved=20 IEnMin=16 EnMin= -3010.55719734342     IErMin=20 ErrMin= 3.30D-09
 ErrMax= 3.30D-09  0.00D+00 EMaxC= 1.00D-01 BMatC= 1.09D-15 BMatP= 5.12D-15
 IDIUse=1 WtCom= 1.00D+00 WtEn= 0.00D+00
 Large coefficients: NSaved= 20 BigCof=    0.00 CofMax=   10.00 Det=-1.52D-15
 Inversion failed.  Reducing to 19 matrices.
 Large coefficients: NSaved= 19 BigCof=    0.00 CofMax=   10.00 Det=-1.53D-15
 Inversion failed.  Reducing to 18 matrices.
 Large coefficients: NSaved= 18 BigCof=    0.00 CofMax=   10.00 Det=-1.64D-15
 Inversion failed.  Reducing to 17 matrices.
 Large coefficients: NSaved= 17 BigCof=    0.00 CofMax=   10.00 Det=-1.71D-15
 Inversion failed.  Reducing to 16 matrices.
 Large coefficients: NSaved= 16 BigCof=    0.00 CofMax=   10.00 Det=-1.95D-15
 Inversion failed.  Reducing to 15 matrices.
 Coeff-Com:  0.717D-06 0.167D-05-0.307D-05 0.290D-05 0.348D-04-0.558D-04
 Coeff-Com: -0.410D-03-0.179D-03 0.178D-02 0.847D-03 0.679D-02-0.109D-01
 Coeff-Com: -0.906D-01-0.147D+00 0.124D+01
 Coeff:      0.717D-06 0.167D-05-0.307D-05 0.290D-05 0.348D-04-0.558D-04
 Coeff:     -0.410D-03-0.179D-03 0.178D-02 0.847D-03 0.679D-02-0.109D-01
 Coeff:     -0.906D-01-0.147D+00 0.124D+01
 Gap=     0.215 Goal=   None    Shift=    0.000
 RMSDP=3.87D-09 MaxDP=2.80D-07 DE=-4.14D-11 OVMax= 1.18D-07

 SCF Done:  E(RwB97XD) =  -3010.55719734     A.U. after   25 cycles
            NFock= 25  Conv=0.39D-08     -V/T= 2.0016
 KE= 3.005830258094D+03 PE=-8.693095529458D+03 EE= 1.909650364980D+03
 Leave Link  502 at Thu May  2 14:24:20 2024, MaxMem=   134217728 cpu:            1539.9 elap:            1545.5
 (Enter /software/gaussian/g16-c01/sse4/g16/l601.exe)
 Copying SCF densities to generalized density rwf, IOpCl= 0 IROHF=0.

 **********************************************************************

            Population analysis using the SCF Density.

 **********************************************************************

 Alpha  occ. eigenvalues -- -483.26457 -62.81462 -56.61167 -56.60586 -56.60569
 Alpha  occ. eigenvalues --  -19.37824 -19.37741 -14.77394 -10.54365 -10.53497
 Alpha  occ. eigenvalues --  -10.53212 -10.53160 -10.49740 -10.48238  -8.97254
 Alpha  occ. eigenvalues --   -6.79963  -6.78058  -6.78005  -2.89859  -2.89364
 Alpha  occ. eigenvalues --   -2.89321  -2.87798  -2.87797  -1.41527  -1.24386
 Alpha  occ. eigenvalues --   -1.17933  -1.08525  -1.07582  -1.00008  -0.94923
 Alpha  occ. eigenvalues --   -0.91070  -0.85939  -0.79829  -0.75692  -0.74312
 Alpha  occ. eigenvalues --   -0.73593  -0.72432  -0.70926  -0.68107  -0.67213
 Alpha  occ. eigenvalues --   -0.64723  -0.63136  -0.59284  -0.55045  -0.51317
 Alpha  occ. eigenvalues --   -0.50505  -0.48679  -0.47260  -0.47058
 Alpha virt. eigenvalues --   -0.25590  -0.14688  -0.10959  -0.10082  -0.07316
 Alpha virt. eigenvalues --   -0.06640  -0.04560  -0.03045  -0.01763  -0.00498
 Alpha virt. eigenvalues --    0.00493   0.01116   0.02249   0.03215   0.04540
 Alpha virt. eigenvalues --    0.05044   0.05682   0.06266   0.06535   0.06894
 Alpha virt. eigenvalues --    0.08019   0.09039   0.09309   0.09958   0.10436
 Alpha virt. eigenvalues --    0.11050   0.11755   0.12351   0.13312   0.13997
 Alpha virt. eigenvalues --    0.14610   0.15033   0.15824   0.16500   0.17070
 Alpha virt. eigenvalues --    0.18111   0.19368   0.19912   0.20870   0.21581
 Alpha virt. eigenvalues --    0.22205   0.23204   0.24261   0.24478   0.24832
 Alpha virt. eigenvalues --    0.25497   0.28655   0.29080   0.30617   0.31659
 Alpha virt. eigenvalues --    0.33045   0.35070   0.35667   0.36369   0.36929
 Alpha virt. eigenvalues --    0.38048   0.39092   0.41029   0.41551   0.42408
 Alpha virt. eigenvalues --    0.43390   0.43723   0.44560   0.46261   0.46656
 Alpha virt. eigenvalues --    0.47095   0.49738   0.50389   0.50673   0.52709
 Alpha virt. eigenvalues --    0.54194   0.55293   0.56836   0.57705   0.58744
 Alpha virt. eigenvalues --    0.60234   0.61193   0.62560   0.63239   0.63883
 Alpha virt. eigenvalues --    0.65815   0.67455   0.69834   0.70951   0.72489
 Alpha virt. eigenvalues --    0.73893   0.74996   0.76135   0.78312   0.79233
 Alpha virt. eigenvalues --    0.81531   0.82723   0.86004   0.88530   0.90121
 Alpha virt. eigenvalues --    0.92099   0.94636   0.98030   0.99346   1.05303
 Alpha virt. eigenvalues --    1.07114   1.08998   1.09116   1.10967   1.12724
 Alpha virt. eigenvalues --    1.16343   1.20408   1.20946   1.22108   1.25912
 Alpha virt. eigenvalues --    1.28668   1.31135   1.33477   1.38212   1.40882
 Alpha virt. eigenvalues --    1.41326   1.44004   1.47830   1.60017   1.61274
 Alpha virt. eigenvalues --    1.63640   1.64983   1.67690   1.69304   1.70325
 Alpha virt. eigenvalues --    1.74814   1.76220   1.78990   1.81686   1.84284
 Alpha virt. eigenvalues --    1.86794   1.90826   1.92932   2.00101   2.01392
 Alpha virt. eigenvalues --    2.04023   2.08008   2.08203   2.12834   2.13641
 Alpha virt. eigenvalues --    2.17617   2.19197   2.26570   2.29310   2.31362
 Alpha virt. eigenvalues --    2.37778   2.45540   2.48059   2.49944   2.57358
 Alpha virt. eigenvalues --    2.62496   2.67986   2.70274   2.73192   2.79271
 Alpha virt. eigenvalues --    2.80564   2.84221   2.84402   2.86357   2.89538
 Alpha virt. eigenvalues --    2.97916   3.03978   3.08738   3.11249   3.13697
 Alpha virt. eigenvalues --    3.18702   3.20051   3.22572   3.30048   3.32694
 Alpha virt. eigenvalues --    3.35519   3.44296   3.50233   3.55599   3.62245
 Alpha virt. eigenvalues --    3.64087   3.77248   3.82497   3.88177   3.92049
 Alpha virt. eigenvalues --    4.14914   4.15769   4.24338   4.28441   4.48306
 Alpha virt. eigenvalues --    4.53716   4.59362   4.67254   5.02362   5.05252
 Alpha virt. eigenvalues --    5.14095   5.18566   5.70463   6.23877   6.72913
 Alpha virt. eigenvalues --    7.53794   7.56109   7.66172  23.26412  23.65731
 Alpha virt. eigenvalues --   23.76744  23.82043  23.99296  24.07050  35.39757
 Alpha virt. eigenvalues --   47.98907  49.93715  50.02377 289.86527 289.88863
 Alpha virt. eigenvalues --  290.014771021.00059
          Condensed to atoms (all electrons):
               1          2          3          4          5          6
     1  C    9.155523  -3.314912   1.232876  -0.360761   0.294239   0.068735
     2  C   -3.314912  19.454586  -5.359086   0.297258   0.010407   0.151923
     3  C    1.232876  -5.359086  22.462603  -1.727161   0.029242   0.124462
     4  C   -0.360761   0.297258  -1.727161   6.963678  -0.000451  -0.011201
     5  H    0.294239   0.010407   0.029242  -0.000451   0.367260  -0.001684
     6  H    0.068735   0.151923   0.124462  -0.011201  -0.001684   0.296247
     7  H    0.043701  -0.043803   0.033414   0.292532  -0.003880  -0.000010
     8  N   -0.198881   0.100080  -1.896082   0.048617  -0.000430  -0.030552
     9  O   -0.024088   0.244600  -0.056768  -0.031726  -0.000043  -0.002766
    10  O    0.357264  -0.216295  -0.232920  -0.025700   0.000077   0.027377
    11  C    1.228457  -0.434059   3.164730  -0.777849  -0.030093   0.007738
    12  H   -0.013044   0.007392   0.031774   0.000221   0.000000  -0.000017
    13  C   -2.358060  -4.857494 -11.604956   1.642194   0.025999   0.002571
    14  H   -0.005288  -0.007465  -0.044403   0.004883  -0.000031   0.000014
    15  Br  -0.007061  -0.195444  -0.163109   0.002608  -0.000067  -0.000356
               7          8          9         10         11         12
     1  C    0.043701  -0.198881  -0.024088   0.357264   1.228457  -0.013044
     2  C   -0.043803   0.100080   0.244600  -0.216295  -0.434059   0.007392
     3  C    0.033414  -1.896082  -0.056768  -0.232920   3.164730   0.031774
     4  C    0.292532   0.048617  -0.031726  -0.025700  -0.777849   0.000221
     5  H   -0.003880  -0.000430  -0.000043   0.000077  -0.030093   0.000000
     6  H   -0.000010  -0.030552  -0.002766   0.027377   0.007738  -0.000017
     7  H    0.408756  -0.000112   0.000015  -0.000001   0.047889  -0.003159
     8  N   -0.000112   8.004019  -0.092113   0.085947  -0.576301   0.001151
     9  O    0.000015  -0.092113   7.909503   0.023518   0.389548   0.000072
    10  O   -0.000001   0.085947   0.023518   7.816373  -0.002492  -0.000024
    11  C    0.047889  -0.576301   0.389548  -0.002492   9.805388   0.282570
    12  H   -0.003159   0.001151   0.000072  -0.000024   0.282570   0.364099
    13  C   -0.036794   1.658784  -0.459574   0.031083  -6.993055   0.017112
    14  H   -0.000043  -0.024687   0.015351  -0.001922   0.076425  -0.005456
    15  Br  -0.000263   0.163501  -0.056623   0.002421   0.085636  -0.005114
              13         14         15
     1  C   -2.358060  -0.005288  -0.007061
     2  C   -4.857494  -0.007465  -0.195444
     3  C  -11.604956  -0.044403  -0.163109
     4  C    1.642194   0.004883   0.002608
     5  H    0.025999  -0.000031  -0.000067
     6  H    0.002571   0.000014  -0.000356
     7  H   -0.036794  -0.000043  -0.000263
     8  N    1.658784  -0.024687   0.163501
     9  O   -0.459574   0.015351  -0.056623
    10  O    0.031083  -0.001922   0.002421
    11  C   -6.993055   0.076425   0.085636
    12  H    0.017112  -0.005456  -0.005114
    13  C   28.726189   0.296279   0.325796
    14  H    0.296279   0.301751  -0.033693
    15  Br   0.325796  -0.033693  34.665904
 Mulliken charges:
               1
     1  C   -0.098700
     2  C    0.162313
     3  C    0.005382
     4  C   -0.317142
     5  H    0.309454
     6  H    0.367519
     7  H    0.261758
     8  N   -0.242940
     9  O    0.141094
    10  O    0.135294
    11  C   -0.274533
    12  H    0.322423
    13  C   -0.416074
    14  H    0.428286
    15  Br   0.215865
 Sum of Mulliken charges =   1.00000
 Mulliken charges with hydrogens summed into heavy atoms:
               1
     1  C    0.210754
     2  C    0.529832
     3  C    0.005382
     4  C   -0.055384
     8  N   -0.242940
     9  O    0.141094
    10  O    0.135294
    11  C    0.047891
    13  C    0.012212
    15  Br   0.215865
 Electronic spatial extent (au):  <R**2>=           3934.5627
 Charge=              1.0000 electrons
 Dipole moment (field-independent basis, Debye):
    X=              6.6898    Y=             -1.1067    Z=             -0.9503  Tot=              6.8470
 Quadrupole moment (field-independent basis, Debye-Ang):
   XX=            -52.8855   YY=            -50.9336   ZZ=            -61.7861
   XY=             -3.8822   XZ=             -3.6462   YZ=              2.9328
 Traceless Quadrupole moment (field-independent basis, Debye-Ang):
   XX=              2.3162   YY=              4.2682   ZZ=             -6.5844
   XY=             -3.8822   XZ=             -3.6462   YZ=              2.9328
 Octapole moment (field-independent basis, Debye-Ang**2):
  XXX=           -436.8856  YYY=             90.5700  ZZZ=             81.4978  XYY=           -127.4180
  XXY=             21.9850  XXZ=             21.7923  XZZ=           -127.4807  YZZ=             15.8155
  YYZ=             24.5142  XYZ=             10.3140
 Hexadecapole moment (field-independent basis, Debye-Ang**3):
 XXXX=          -3075.4518 YYYY=           -701.1219 ZZZZ=           -391.9973 XXXY=            174.7208
 XXXZ=            172.2573 YYYX=            178.5277 YYYZ=           -168.7784 ZZZX=            160.1502
 ZZZY=           -141.1686 XXYY=           -588.4508 XXZZ=           -507.9635 YYZZ=           -168.7218
 XXYZ=            -33.2624 YYXZ=             43.5907 ZZXY=             22.7193
 N-N= 7.670577090403D+02 E-N=-8.693095529240D+03  KE= 3.005830258094D+03
 No NMR shielding tensors so no spin-rotation constants.
 Leave Link  601 at Thu May  2 14:24:27 2024, MaxMem=   134217728 cpu:               7.4 elap:               7.4
 (Enter /software/gaussian/g16-c01/sse4/g16/l9999.exe)
 Unable to Open any file for archive entry.
 1\1\GINC-BHX0004\SP\RwB97XD\6-311+G(d)\C6H5Br1N1O2(1+)\BWEIGHT\02-May-
 2024\0\\#P wB97XD/6-311+G* NoSymm #P Field=X-136\\TitleMe\\1,1\C,0,0.5
 193,1.233,-0.0319\C,0,1.9445,1.2692,-0.0367\C,0,2.6204,0.0928,-0.025\C
 ,0,-0.196,0.0301,0.001\H,0,-0.0207,2.1742,-0.0434\H,0,2.4828,2.2089,-0
 .0361\H,0,-1.2777,0.0399,0.0117\N,0,4.0921,0.0959,0.0366\O,0,4.6393,-1
 .0217,0.1446\O,0,4.6649,1.1984,-0.0233\C,0,0.4943,-1.1671,0.021\H,0,-0
 .0325,-2.1149,0.0545\C,0,1.9629,-1.2165,-0.0211\H,0,2.4436,-1.9631,0.6
 151\Br,0,2.173,-1.9491,-1.9062\\Version=ES64L-G16RevC.01\HF=-3010.5571
 973\RMSD=3.866e-09\Dipole=-1.6972289,0.7926969,0.8753436\Quadrupole=1.
 7220484,3.1732744,-4.8953228,-2.8863361,-2.7108482,2.1804318\PG=C01 [X
 (C6H5Br1N1O2)]\\@
 The archive entry for this job was punched.


 EVERYTHING'S GOT A MORAL, IF ONLY YOU CAN FIND IT.

                                    -- LEWIS CARROL, ALICE IN WONDERLAND
 Job cpu time:       0 days  0 hours 26 minutes 52.0 seconds.
 Elapsed time:       0 days  0 hours 26 minutes 57.6 seconds.
 File lengths (MBytes):  RWF=     40 Int=      0 D2E=      0 Chk=     32 Scr=      1
 Normal termination of Gaussian 16 at Thu May  2 14:24:28 2024.
