 Entering Gaussian System, Link 0=g16
 Initial command:
 /software/gaussian/g16-c01/sse4/g16/l1.exe "/local_scratch/24665243/Gau-25743.inp" -scrdir="/local_scratch/24665243/"
 Entering Link 1 = /software/gaussian/g16-c01/sse4/g16/l1.exe PID=     25766.
  
 Copyright (c) 1988-2019, Gaussian, Inc.  All Rights Reserved.
  
 This is part of the Gaussian(R) 16 program.  It is based on
 the Gaussian(R) 09 system (copyright 2009, Gaussian, Inc.),
 the Gaussian(R) 03 system (copyright 2003, Gaussian, Inc.),
 the Gaussian(R) 98 system (copyright 1998, Gaussian, Inc.),
 the Gaussian(R) 94 system (copyright 1995, Gaussian, Inc.),
 the Gaussian 92(TM) system (copyright 1992, Gaussian, Inc.),
 the Gaussian 90(TM) system (copyright 1990, Gaussian, Inc.),
 the Gaussian 88(TM) system (copyright 1988, Gaussian, Inc.),
 the Gaussian 86(TM) system (copyright 1986, Carnegie Mellon
 University), and the Gaussian 82(TM) system (copyright 1983,
 Carnegie Mellon University). Gaussian is a federally registered
 trademark of Gaussian, Inc.
  
 This software contains proprietary and confidential information,
 including trade secrets, belonging to Gaussian, Inc.
  
 This software is provided under written license and may be
 used, copied, transmitted, or stored only in accord with that
 written license.
  
 The following legend is applicable only to US Government
 contracts under FAR:
  
                    RESTRICTED RIGHTS LEGEND
  
 Use, reproduction and disclosure by the US Government is
 subject to restrictions as set forth in subparagraphs (a)
 and (c) of the Commercial Computer Software - Restricted
 Rights clause in FAR 52.227-19.
  
 Gaussian, Inc.
 340 Quinnipiac St., Bldg. 40, Wallingford CT 06492
  
  
 ---------------------------------------------------------------
 Warning -- This program may not be used in any manner that
 competes with the business of Gaussian, Inc. or will provide
 assistance to any competitor of Gaussian, Inc.  The licensee
 of this program is prohibited from giving any competitor of
 Gaussian, Inc. access to this program.  By using this program,
 the user acknowledges that Gaussian, Inc. is engaged in the
 business of creating and licensing software in the field of
 computational chemistry and represents and warrants to the
 licensee that it is not a competitor of Gaussian, Inc. and that
 it will not use this program in any manner prohibited above.
 ---------------------------------------------------------------
  

 Cite this work as:
 Gaussian 16, Revision C.01,
 M. J. Frisch, G. W. Trucks, H. B. Schlegel, G. E. Scuseria, 
 M. A. Robb, J. R. Cheeseman, G. Scalmani, V. Barone, 
 G. A. Petersson, H. Nakatsuji, X. Li, M. Caricato, A. V. Marenich, 
 J. Bloino, B. G. Janesko, R. Gomperts, B. Mennucci, H. P. Hratchian, 
 J. V. Ortiz, A. F. Izmaylov, J. L. Sonnenberg, D. Williams-Young, 
 F. Ding, F. Lipparini, F. Egidi, J. Goings, B. Peng, A. Petrone, 
 T. Henderson, D. Ranasinghe, V. G. Zakrzewski, J. Gao, N. Rega, 
 G. Zheng, W. Liang, M. Hada, M. Ehara, K. Toyota, R. Fukuda, 
 J. Hasegawa, M. Ishida, T. Nakajima, Y. Honda, O. Kitao, H. Nakai, 
 T. Vreven, K. Throssell, J. A. Montgomery, Jr., J. E. Peralta, 
 F. Ogliaro, M. J. Bearpark, J. J. Heyd, E. N. Brothers, K. N. Kudin, 
 V. N. Staroverov, T. A. Keith, R. Kobayashi, J. Normand, 
 K. Raghavachari, A. P. Rendell, J. C. Burant, S. S. Iyengar, 
 J. Tomasi, M. Cossi, J. M. Millam, M. Klene, C. Adamo, R. Cammi, 
 J. W. Ochterski, R. L. Martin, K. Morokuma, O. Farkas, 
 J. B. Foresman, and D. J. Fox, Gaussian, Inc., Wallingford CT, 2019.
 
 ******************************************
 Gaussian 16:  ES64L-G16RevC.01  3-Jul-2019
                 2-May-2024 
 ******************************************
 %chk=geometry.chk
 %mem=1GB
 %nprocshared=12
 Will use up to   12 processors via shared memory.
 ----------------------------------------
 #P wB97XD/6-311+G* NoSymm #P Field=X-194
 ----------------------------------------
 1/38=1,172=1/1;
 2/12=2,15=1,17=6,18=5,40=1/2;
 3/5=4,6=6,7=11,11=2,14=1,15=-194,25=1,30=1,74=-58/1,2,3;
 4//1;
 5/5=2,38=5/2;
 6/7=2,8=2,9=2,10=2,28=1/1;
 99/5=1,9=1/99;
 Leave Link    1 at Thu May  2 13:57:31 2024, MaxMem=   134217728 cpu:               2.1 elap:               2.2
 (Enter /software/gaussian/g16-c01/sse4/g16/l101.exe)
 -------
 TitleMe
 -------
 Symbolic Z-matrix:
 Charge =  1 Multiplicity = 1
 C                     0.5193    1.233    -0.0319 
 C                     1.9445    1.2692   -0.0367 
 C                     2.6204    0.0928   -0.025 
 C                    -0.196     0.0301    0.001 
 H                    -0.0207    2.1742   -0.0434 
 H                     2.4828    2.2089   -0.0361 
 H                    -1.2777    0.0399    0.0117 
 N                     4.0921    0.0959    0.0366 
 O                     4.6393   -1.0217    0.1446 
 O                     4.6649    1.1984   -0.0233 
 C                     0.4943   -1.1671    0.021 
 H                    -0.0325   -2.1149    0.0545 
 C                     1.9629   -1.2165   -0.0211 
 H                     2.4436   -1.9631    0.6151 
 Br                    2.173    -1.9491   -1.9062 
 
 ITRead=  0  0  0  0  0  0  0  0  0  0  0  0  0  0  0
 MicOpt= -1 -1 -1 -1 -1 -1 -1 -1 -1 -1 -1 -1 -1 -1 -1
 NAtoms=     15 NQM=       15 NQMF=       0 NMMI=      0 NMMIF=      0
                NMic=       0 NMicF=      0.
                    Isotopes and Nuclear Properties:
 (Nuclear quadrupole moments (NQMom) in fm**2, nuclear magnetic moments (NMagM)
  in nuclear magnetons)

  Atom         1           2           3           4           5           6           7           8           9          10
 IAtWgt=          12          12          12          12           1           1           1          14          16          16
 AtmWgt=  12.0000000  12.0000000  12.0000000  12.0000000   1.0078250   1.0078250   1.0078250  14.0030740  15.9949146  15.9949146
 NucSpn=           0           0           0           0           1           1           1           2           0           0
 AtZEff=  -0.0000000  -0.0000000  -0.0000000  -0.0000000  -0.0000000  -0.0000000  -0.0000000  -0.0000000  -0.0000000  -0.0000000
 NQMom=    0.0000000   0.0000000   0.0000000   0.0000000   0.0000000   0.0000000   0.0000000   2.0440000   0.0000000   0.0000000
 NMagM=    0.0000000   0.0000000   0.0000000   0.0000000   2.7928460   2.7928460   2.7928460   0.4037610   0.0000000   0.0000000
 AtZNuc=   6.0000000   6.0000000   6.0000000   6.0000000   1.0000000   1.0000000   1.0000000   7.0000000   8.0000000   8.0000000

  Atom        11          12          13          14          15
 IAtWgt=          12           1          12           1          79
 AtmWgt=  12.0000000   1.0078250  12.0000000   1.0078250  78.9183361
 NucSpn=           0           1           0           1           3
 AtZEff=  -0.0000000  -0.0000000  -0.0000000  -0.0000000  -0.0000000
 NQMom=    0.0000000   0.0000000   0.0000000   0.0000000  31.3000000
 NMagM=    0.0000000   2.7928460   0.0000000   2.7928460   2.1063990
 AtZNuc=   6.0000000   1.0000000   6.0000000   1.0000000  35.0000000
 Leave Link  101 at Thu May  2 13:57:33 2024, MaxMem=   134217728 cpu:               1.3 elap:               1.4
 (Enter /software/gaussian/g16-c01/sse4/g16/l202.exe)
                          Input orientation:                          
 ---------------------------------------------------------------------
 Center     Atomic      Atomic             Coordinates (Angstroms)
 Number     Number       Type             X           Y           Z
 ---------------------------------------------------------------------
      1          6           0        0.519300    1.233000   -0.031900
      2          6           0        1.944500    1.269200   -0.036700
      3          6           0        2.620400    0.092800   -0.025000
      4          6           0       -0.196000    0.030100    0.001000
      5          1           0       -0.020700    2.174200   -0.043400
      6          1           0        2.482800    2.208900   -0.036100
      7          1           0       -1.277700    0.039900    0.011700
      8          7           0        4.092100    0.095900    0.036600
      9          8           0        4.639300   -1.021700    0.144600
     10          8           0        4.664900    1.198400   -0.023300
     11          6           0        0.494300   -1.167100    0.021000
     12          1           0       -0.032500   -2.114900    0.054500
     13          6           0        1.962900   -1.216500   -0.021100
     14          1           0        2.443600   -1.963100    0.615100
     15         35           0        2.173000   -1.949100   -1.906200
 ---------------------------------------------------------------------
                    Distance matrix (angstroms):
                    1          2          3          4          5
     1  C    0.000000
     2  C    1.425668   0.000000
     3  C    2.390549   1.356796   0.000000
     4  C    1.399895   2.473566   2.817218   0.000000
     5  H    1.085168   2.163581   3.362733   2.151712   0.000000
     6  H    2.192654   1.082960   2.120598   3.453189   2.503751
     7  H    2.157452   3.449071   3.898632   1.081797   2.477564
     8  N    3.750012   2.448304   1.472992   4.288753   4.608780
     9  O    4.699917   3.541615   2.312322   4.950458   5.653735
    10  O    4.145753   2.721354   2.324292   4.999386   4.786171
    11  C    2.400813   2.835836   2.471794   1.382101   3.381369
    12  H    3.394169   3.920329   3.452266   2.151887   4.290233
    13  C    2.843264   2.485817   1.465124   2.493060   3.928360
    14  H    3.786370   3.334922   2.160489   3.364142   4.860416
    15  Br   4.046416   3.728900   2.812194   3.628609   5.028314
                    6          7          8          9         10
     6  H    0.000000
     7  H    4.341452   0.000000
     8  N    2.657047   5.370150   0.000000
     9  O    3.888434   6.012948   1.249048   0.000000
    10  O    2.404752   6.054572   1.243863   2.226587   0.000000
    11  C    3.918516   2.144043   3.813080   4.149391   4.794941
    12  H    5.003018   2.489080   4.679774   4.798846   5.748876
    13  C    3.464662   3.475788   2.501842   2.688591   3.623886
    14  H    4.222698   4.268978   2.700314   2.434893   3.916224
    15  Br   4.569706   4.420610   3.411663   3.338935   4.434144
                   11         12         13         14         15
    11  C    0.000000
    12  H    1.084880   0.000000
    13  C    1.470034   2.189625   0.000000
    14  H    2.187771   2.543302   1.092353   0.000000
    15  Br   2.672762   2.955683   2.033334   2.535818   0.000000
 Symmetry turned off by external request.
 Stoichiometry    C6H5BrNO2(1+)
 Framework group  C1[X(C6H5BrNO2)]
 Deg. of freedom    39
 Full point group                 C1      NOp   1
 Rotational constants (GHZ):           1.1632986           0.9594224           0.5957624
 Leave Link  202 at Thu May  2 13:57:34 2024, MaxMem=   134217728 cpu:               1.3 elap:               1.3
 (Enter /software/gaussian/g16-c01/sse4/g16/l301.exe)
 Standard basis: 6-311+G(d) (5D, 7F)
 Ernie: Thresh=  0.10000D-02 Tol=  0.10000D-05 Strict=F.
 The following finite field(s) will be applied:
 An electric field of             -0.0194  0.0000  0.0000
   261 basis functions,   443 primitive gaussians,   273 cartesian basis functions
    49 alpha electrons       49 beta electrons
       nuclear repulsion energy       772.8945969580 Hartrees.
 IExCor= 4639 DFT=T Ex+Corr=wB97XD ExCW=0 ScaHFX=  1.000000
 ScaDFX=  1.000000  1.000000  1.000000  1.000000 ScalE2=  1.000000  1.000000
 IRadAn=      5 IRanWt=     -1 IRanGd=            0 ICorTp=0 IEmpDi=121
 HFx  wShort=  0.000000 wLong=  0.200000 cFull=  0.222036 cShort=  0.000000 cLong=  0.777964
 DFx  wShort=  0.000000 wLong=  0.200000 cFull=  0.000000 cShort=  0.000000 cLong=  1.000000
 NAtoms=   15 NActive=   15 NUniq=   15 SFac= 1.00D+00 NAtFMM=   60 NAOKFM=F Big=F
 Integral buffers will be    131072 words long.
 Raffenetti 2 integral format.
 Two-electron integral symmetry is turned off.
 R6Disp:  Grimme-D2 Dispersion energy=       -0.0080346408 Hartrees.
 Nuclear repulsion after empirical dispersion term =      772.8865623173 Hartrees.
 Leave Link  301 at Thu May  2 13:57:35 2024, MaxMem=   134217728 cpu:               0.9 elap:               0.9
 (Enter /software/gaussian/g16-c01/sse4/g16/l302.exe)
 NPDir=0 NMtPBC=     1 NCelOv=     1 NCel=       1 NClECP=     1 NCelD=      1
         NCelK=      1 NCelE2=     1 NClLst=     1 CellRange=     0.0.
 One-electron integrals computed using PRISM.
 NBasis=   261 RedAO= T EigKep=  2.52D-06  NBF=   261
 NBsUse=   261 1.00D-06 EigRej= -1.00D+00 NBFU=   261
 Precomputing XC quadrature grid using
 IXCGrd= 4 IRadAn=           5 IRanWt=          -1 IRanGd=           0 AccXCQ= 0.00D+00.
 Generated NRdTot=       0 NPtTot=           0 NUsed=           0 NTot=          32
 NSgBfM=   273   273   273   273   273 MxSgAt=    15 MxSgA2=    15.
 Leave Link  302 at Thu May  2 13:57:57 2024, MaxMem=   134217728 cpu:              22.2 elap:              22.2
 (Enter /software/gaussian/g16-c01/sse4/g16/l303.exe)
 DipDrv:  MaxL=1.
 The nuclear repulsion energy is now       764.5718745545 hartrees.
 Leave Link  303 at Thu May  2 13:58:00 2024, MaxMem=   134217728 cpu:               3.2 elap:               3.2
 (Enter /software/gaussian/g16-c01/sse4/g16/l401.exe)
 ExpMin= 3.50D-02 ExpMax= 4.40D+05 ExpMxC= 1.51D+04 IAcc=3 IRadAn=         5 AccDes= 0.00D+00
 Harris functional with IExCor= 4639 and IRadAn=       5 diagonalized for initial guess.
 HarFok:  IExCor= 4639 AccDes= 0.00D+00 IRadAn=         5 IDoV= 1 UseB2=F ITyADJ=14
 ICtDFT=  3500011 ScaDFX=  1.000000  1.000000  1.000000  1.000000
 FoFCou: FMM=F IPFlag=           0 FMFlag=      100000 FMFlg1=           0
         NFxFlg=           0 DoJE=T BraDBF=F KetDBF=T FulRan=T
         wScrn=  0.000000 ICntrl=       500 IOpCl=  0 I1Cent=   200000004 NGrid=           0
         NMat0=    1 NMatS0=      1 NMatT0=    0 NMatD0=    1 NMtDS0=    0 NMtDT0=    0
 Symmetry not used in FoFCou.
 Harris En= -2971.02417457162    
 JPrj=0 DoOrth=F DoCkMO=F.
 Leave Link  401 at Thu May  2 13:58:32 2024, MaxMem=   134217728 cpu:              31.6 elap:              31.6
 (Enter /software/gaussian/g16-c01/sse4/g16/l502.exe)
 Two-electron integral symmetry not used.
 Closed shell SCF:
 Using DIIS extrapolation, IDIIS=  1040.
 NGot=   134217728 LenX=   134063053 LenY=   133988083
 Requested convergence on RMS density matrix=1.00D-08 within 128 cycles.
 Requested convergence on MAX density matrix=1.00D-06.
 Requested convergence on             energy=1.00D-06.
 No special actions if energy rises.
 Fock matrices will be formed incrementally for  20 cycles.

 Cycle   1  Pass 1  IDiag  1:
 FoFJK:  IHMeth= 1 ICntrl=       0 DoSepK=T KAlg= 0 I1Cent=           0 FoldK=F
 IRaf=         1 NMat=       1 IRICut=       1 DoRegI=T DoRafI=F ISym2E= 0 IDoP0=0 IntGTp=1.
 FoFCou: FMM=F IPFlag=           0 FMFlag=      100000 FMFlg1=           0
         NFxFlg=           0 DoJE=T BraDBF=F KetDBF=F FulRan=T
         wScrn=  0.000000 ICntrl=       500 IOpCl=  0 I1Cent=           0 NGrid=           0
         NMat0=    1 NMatS0=      1 NMatT0=    0 NMatD0=    1 NMtDS0=    0 NMtDT0=    0
 Symmetry not used in FoFCou.
 E= -3001.28419897397    
 DIIS: error= 2.91D-01 at cycle   1 NSaved=   1.
 NSaved= 1 IEnMin= 1 EnMin= -3001.28419897397     IErMin= 1 ErrMin= 2.91D-01
 ErrMax= 2.91D-01  0.00D+00 EMaxC= 1.00D-01 BMatC= 1.46D+01 BMatP= 1.46D+01
 IDIUse=3 WtCom= 0.00D+00 WtEn= 1.00D+00
 Coeff-Com:  0.100D+01
 Coeff-En:   0.100D+01
 Coeff:      0.100D+01
 Gap=    -2.174 Goal=   None    Shift=    0.000
 GapD=   -2.174 DampG=0.250 DampE=0.250 DampFc=0.2500 IDamp=-1.
 Damping current iteration by 2.50D-01
 RMSDP=1.40D+01 MaxDP=1.34D+03              OVMax= 9.95D-01

 Cycle   2  Pass 1  IDiag  1:
 RMSU=  3.23D-01    CP:  7.66D-01
 E= -3002.60676210023     Delta-E=       -1.322563126257 Rises=F Damp=T
 DIIS: error= 2.19D-01 at cycle   2 NSaved=   2.
 NSaved= 2 IEnMin= 2 EnMin= -3002.60676210023     IErMin= 2 ErrMin= 2.19D-01
 ErrMax= 2.19D-01  0.00D+00 EMaxC= 1.00D-01 BMatC= 6.15D+00 BMatP= 1.46D+01
 IDIUse=3 WtCom= 0.00D+00 WtEn= 1.00D+00
 Coeff-Com: -0.352D+00 0.135D+01
 Coeff-En:   0.418D+00 0.582D+00
 Coeff:      0.418D+00 0.582D+00
 Gap=    -0.267 Goal=   None    Shift=    0.000
 RMSDP=1.13D+01 MaxDP=1.16D+03 DE=-1.32D+00 OVMax= 9.83D-01

 Cycle   3  Pass 1  IDiag  1:
 RMSU=  8.92D-02    CP:  6.48D-03  1.55D-01
 E= -2999.04174412667     Delta-E=        3.565017973563 Rises=F Damp=F
 DIIS: error= 1.27D-01 at cycle   3 NSaved=   3.
 NSaved= 3 IEnMin= 2 EnMin= -3002.60676210023     IErMin= 3 ErrMin= 1.27D-01
 ErrMax= 1.27D-01  0.00D+00 EMaxC= 1.00D-01 BMatC= 9.06D+00 BMatP= 6.15D+00
 IDIUse=2 WtCom= 0.00D+00 WtEn= 1.00D+00
 EnCoef did   100 forward-backward iterations
 Coeff-En:   0.535D+00 0.789D-02 0.457D+00
 Coeff:      0.535D+00 0.789D-02 0.457D+00
 Gap=    -0.054 Goal=   None    Shift=    0.000
 RMSDP=3.76D-02 MaxDP=1.56D+00 DE= 3.57D+00 OVMax= 6.76D-01

 Cycle   4  Pass 1  IDiag  1:
 RMSU=  3.37D-02    CP:  6.76D-03  1.41D-01  8.25D-01
 E= -3010.22288198752     Delta-E=      -11.181137860854 Rises=F Damp=F
 DIIS: error= 3.02D-02 at cycle   4 NSaved=   4.
 NSaved= 4 IEnMin= 4 EnMin= -3010.22288198752     IErMin= 4 ErrMin= 3.02D-02
 ErrMax= 3.02D-02  0.00D+00 EMaxC= 1.00D-01 BMatC= 4.15D-01 BMatP= 6.15D+00
 IDIUse=3 WtCom= 6.98D-01 WtEn= 3.02D-01
 Coeff-Com:  0.163D-01 0.109D+00 0.357D-02 0.871D+00
 Coeff-En:   0.000D+00 0.000D+00 0.000D+00 0.100D+01
 Coeff:      0.113D-01 0.763D-01 0.249D-02 0.910D+00
 Gap=     0.288 Goal=   None    Shift=    0.000
 RMSDP=5.71D-02 MaxDP=5.65D+00 DE=-1.12D+01 OVMax= 2.85D-01

 Cycle   5  Pass 1  IDiag  1:
 RMSU=  3.69D-02    CP:  5.61D-03  1.65D-01  3.92D-01  7.84D-01
 E= -3010.37295574804     Delta-E=       -0.150073760517 Rises=F Damp=F
 DIIS: error= 2.59D-02 at cycle   5 NSaved=   5.
 NSaved= 5 IEnMin= 5 EnMin= -3010.37295574804     IErMin= 5 ErrMin= 2.59D-02
 ErrMax= 2.59D-02  0.00D+00 EMaxC= 1.00D-01 BMatC= 2.38D-01 BMatP= 4.15D-01
 IDIUse=3 WtCom= 7.41D-01 WtEn= 2.59D-01
 Coeff-Com: -0.312D-02 0.364D-01-0.350D-02 0.433D+00 0.537D+00
 Coeff-En:   0.000D+00 0.000D+00 0.000D+00 0.338D+00 0.662D+00
 Coeff:     -0.231D-02 0.270D-01-0.259D-02 0.408D+00 0.570D+00
 Gap=     0.208 Goal=   None    Shift=    0.000
 RMSDP=1.92D-02 MaxDP=2.09D+00 DE=-1.50D-01 OVMax= 1.44D-01

 Cycle   6  Pass 1  IDiag  1:
 RMSU=  7.80D-03    CP:  4.92D-03  1.31D-01  3.86D-01  7.96D-01  7.47D-01
 E= -3010.55272867976     Delta-E=       -0.179772931720 Rises=F Damp=F
 DIIS: error= 1.97D-02 at cycle   6 NSaved=   6.
 NSaved= 6 IEnMin= 6 EnMin= -3010.55272867976     IErMin= 6 ErrMin= 1.97D-02
 ErrMax= 1.97D-02  0.00D+00 EMaxC= 1.00D-01 BMatC= 2.95D-02 BMatP= 2.38D-01
 IDIUse=3 WtCom= 8.03D-01 WtEn= 1.97D-01
 Coeff-Com: -0.443D-02 0.142D-01-0.435D-03 0.195D+00 0.314D+00 0.482D+00
 Coeff-En:   0.000D+00 0.000D+00 0.000D+00 0.000D+00 0.000D+00 0.100D+01
 Coeff:     -0.355D-02 0.114D-01-0.349D-03 0.156D+00 0.252D+00 0.584D+00
 Gap=     0.204 Goal=   None    Shift=    0.000
 RMSDP=4.73D-03 MaxDP=5.30D-01 DE=-1.80D-01 OVMax= 1.14D-01

 Cycle   7  Pass 1  IDiag  1:
 RMSU=  2.88D-03    CP:  5.09D-03  1.38D-01  3.82D-01  8.20D-01  7.66D-01
                    CP:  7.86D-01
 E= -3010.56097849650     Delta-E=       -0.008249816741 Rises=F Damp=F
 DIIS: error= 1.74D-02 at cycle   7 NSaved=   7.
 NSaved= 7 IEnMin= 7 EnMin= -3010.56097849650     IErMin= 7 ErrMin= 1.74D-02
 ErrMax= 1.74D-02  0.00D+00 EMaxC= 1.00D-01 BMatC= 1.77D-02 BMatP= 2.95D-02
 IDIUse=3 WtCom= 8.26D-01 WtEn= 1.74D-01
 Coeff-Com: -0.339D-02 0.320D-02 0.131D-02 0.357D-01 0.783D-01 0.433D+00
 Coeff-Com:  0.452D+00
 Coeff-En:   0.000D+00 0.000D+00 0.000D+00 0.000D+00 0.000D+00 0.401D+00
 Coeff-En:   0.599D+00
 Coeff:     -0.280D-02 0.264D-02 0.108D-02 0.295D-01 0.647D-01 0.427D+00
 Coeff:      0.478D+00
 Gap=     0.196 Goal=   None    Shift=    0.000
 RMSDP=4.69D-03 MaxDP=6.46D-01 DE=-8.25D-03 OVMax= 5.84D-02

 Cycle   8  Pass 1  IDiag  1:
 RMSU=  1.46D-03    CP:  4.87D-03  1.31D-01  3.74D-01  7.99D-01  7.68D-01
                    CP:  9.78D-01  5.03D-01
 E= -3010.57349158017     Delta-E=       -0.012513083668 Rises=F Damp=F
 DIIS: error= 2.17D-03 at cycle   8 NSaved=   8.
 NSaved= 8 IEnMin= 8 EnMin= -3010.57349158017     IErMin= 8 ErrMin= 2.17D-03
 ErrMax= 2.17D-03  0.00D+00 EMaxC= 1.00D-01 BMatC= 6.69D-04 BMatP= 1.77D-02
 IDIUse=3 WtCom= 9.78D-01 WtEn= 2.17D-02
 Coeff-Com: -0.234D-02 0.296D-02 0.956D-03-0.809D-02-0.115D-01 0.137D+00
 Coeff-Com:  0.242D+00 0.639D+00
 Coeff-En:   0.000D+00 0.000D+00 0.000D+00 0.000D+00 0.000D+00 0.000D+00
 Coeff-En:   0.000D+00 0.100D+01
 Coeff:     -0.229D-02 0.289D-02 0.935D-03-0.791D-02-0.113D-01 0.134D+00
 Coeff:      0.237D+00 0.646D+00
 Gap=     0.195 Goal=   None    Shift=    0.000
 RMSDP=8.24D-04 MaxDP=7.87D-02 DE=-1.25D-02 OVMax= 8.95D-03

 Cycle   9  Pass 1  IDiag  1:
 RMSU=  3.70D-04    CP:  4.85D-03  1.30D-01  3.74D-01  7.94D-01  7.56D-01
                    CP:  9.87D-01  5.68D-01  1.03D+00
 E= -3010.57411573118     Delta-E=       -0.000624151015 Rises=F Damp=F
 DIIS: error= 7.40D-04 at cycle   9 NSaved=   9.
 NSaved= 9 IEnMin= 9 EnMin= -3010.57411573118     IErMin= 9 ErrMin= 7.40D-04
 ErrMax= 7.40D-04  0.00D+00 EMaxC= 1.00D-01 BMatC= 9.37D-05 BMatP= 6.69D-04
 IDIUse=3 WtCom= 9.93D-01 WtEn= 7.40D-03
 Coeff-Com: -0.243D-02 0.350D-02-0.155D-03-0.798D-02-0.145D-01 0.140D-01
 Coeff-Com:  0.503D-01 0.272D+00 0.685D+00
 Coeff-En:   0.000D+00 0.000D+00 0.000D+00 0.000D+00 0.000D+00 0.000D+00
 Coeff-En:   0.000D+00 0.000D+00 0.100D+01
 Coeff:     -0.241D-02 0.348D-02-0.154D-03-0.792D-02-0.144D-01 0.139D-01
 Coeff:      0.500D-01 0.270D+00 0.688D+00
 Gap=     0.195 Goal=   None    Shift=    0.000
 RMSDP=5.57D-04 MaxDP=6.96D-02 DE=-6.24D-04 OVMax= 6.03D-03

 Cycle  10  Pass 1  IDiag  1:
 RMSU=  1.47D-04    CP:  4.82D-03  1.29D-01  3.74D-01  7.94D-01  7.55D-01
                    CP:  9.99D-01  5.59D-01  1.25D+00  1.06D+00
 E= -3010.57427390420     Delta-E=       -0.000158173018 Rises=F Damp=F
 DIIS: error= 2.98D-04 at cycle  10 NSaved=  10.
 NSaved=10 IEnMin=10 EnMin= -3010.57427390420     IErMin=10 ErrMin= 2.98D-04
 ErrMax= 2.98D-04  0.00D+00 EMaxC= 1.00D-01 BMatC= 1.99D-05 BMatP= 9.37D-05
 IDIUse=3 WtCom= 9.97D-01 WtEn= 2.98D-03
 Coeff-Com: -0.808D-03 0.109D-02 0.256D-03-0.128D-03-0.353D-03-0.203D-01
 Coeff-Com: -0.391D-01-0.126D+00 0.231D-01 0.116D+01
 Coeff-En:   0.000D+00 0.000D+00 0.000D+00 0.000D+00 0.000D+00 0.000D+00
 Coeff-En:   0.000D+00 0.000D+00 0.000D+00 0.100D+01
 Coeff:     -0.805D-03 0.109D-02 0.255D-03-0.128D-03-0.352D-03-0.202D-01
 Coeff:     -0.390D-01-0.126D+00 0.231D-01 0.116D+01
 Gap=     0.196 Goal=   None    Shift=    0.000
 RMSDP=6.76D-04 MaxDP=7.49D-02 DE=-1.58D-04 OVMax= 8.12D-03

 Cycle  11  Pass 1  IDiag  1:
 RMSU=  1.13D-04    CP:  4.80D-03  1.28D-01  3.76D-01  7.94D-01  7.48D-01
                    CP:  1.01D+00  5.42D-01  1.42D+00  1.39D+00  1.96D+00
 E= -3010.57436673795     Delta-E=       -0.000092833750 Rises=F Damp=F
 DIIS: error= 1.55D-04 at cycle  11 NSaved=  11.
 NSaved=11 IEnMin=11 EnMin= -3010.57436673795     IErMin=11 ErrMin= 1.55D-04
 ErrMax= 1.55D-04  0.00D+00 EMaxC= 1.00D-01 BMatC= 5.96D-06 BMatP= 1.99D-05
 IDIUse=3 WtCom= 9.98D-01 WtEn= 1.55D-03
 Coeff-Com: -0.241D-03 0.277D-03 0.204D-03 0.113D-02 0.235D-02-0.572D-02
 Coeff-Com: -0.126D-01-0.823D-01-0.169D+00 0.244D+00 0.102D+01
 Coeff-En:   0.000D+00 0.000D+00 0.000D+00 0.000D+00 0.000D+00 0.000D+00
 Coeff-En:   0.000D+00 0.000D+00 0.000D+00 0.000D+00 0.100D+01
 Coeff:     -0.241D-03 0.276D-03 0.203D-03 0.113D-02 0.234D-02-0.571D-02
 Coeff:     -0.126D-01-0.822D-01-0.168D+00 0.243D+00 0.102D+01
 Gap=     0.197 Goal=   None    Shift=    0.000
 RMSDP=2.86D-04 MaxDP=2.64D-02 DE=-9.28D-05 OVMax= 5.36D-03

 Cycle  12  Pass 1  IDiag  1:
 RMSU=  6.33D-05    CP:  4.79D-03  1.28D-01  3.77D-01  7.94D-01  7.46D-01
                    CP:  1.01D+00  5.36D-01  1.50D+00  1.55D+00  2.62D+00
                    CP:  1.45D+00
 E= -3010.57439667384     Delta-E=       -0.000029935891 Rises=F Damp=F
 DIIS: error= 8.54D-05 at cycle  12 NSaved=  12.
 NSaved=12 IEnMin=12 EnMin= -3010.57439667384     IErMin=12 ErrMin= 8.54D-05
 ErrMax= 8.54D-05  0.00D+00 EMaxC= 1.00D-01 BMatC= 1.40D-06 BMatP= 5.96D-06
 IDIUse=1 WtCom= 1.00D+00 WtEn= 0.00D+00
 Coeff-Com:  0.267D-04-0.121D-04 0.117D-03 0.363D-03 0.122D-02 0.272D-02
 Coeff-Com:  0.465D-02-0.131D-01-0.718D-01-0.160D+00 0.367D+00 0.869D+00
 Coeff:      0.267D-04-0.121D-04 0.117D-03 0.363D-03 0.122D-02 0.272D-02
 Coeff:      0.465D-02-0.131D-01-0.718D-01-0.160D+00 0.367D+00 0.869D+00
 Gap=     0.197 Goal=   None    Shift=    0.000
 RMSDP=1.88D-04 MaxDP=1.99D-02 DE=-2.99D-05 OVMax= 3.13D-03

 Cycle  13  Pass 1  IDiag  1:
 RMSU=  2.14D-05    CP:  4.78D-03  1.28D-01  3.78D-01  7.93D-01  7.44D-01
                    CP:  1.01D+00  5.31D-01  1.53D+00  1.63D+00  3.00D+00
                    CP:  1.94D+00  1.41D+00
 E= -3010.57440564474     Delta-E=       -0.000008970902 Rises=F Damp=F
 DIIS: error= 3.87D-05 at cycle  13 NSaved=  13.
 NSaved=13 IEnMin=13 EnMin= -3010.57440564474     IErMin=13 ErrMin= 3.87D-05
 ErrMax= 3.87D-05  0.00D+00 EMaxC= 1.00D-01 BMatC= 3.10D-07 BMatP= 1.40D-06
 IDIUse=1 WtCom= 1.00D+00 WtEn= 0.00D+00
 Coeff-Com:  0.191D-04-0.242D-04-0.433D-04-0.232D-03-0.235D-04 0.257D-02
 Coeff-Com:  0.550D-02 0.151D-01 0.271D-01-0.105D+00-0.159D+00 0.246D+00
 Coeff-Com:  0.969D+00
 Coeff:      0.191D-04-0.242D-04-0.433D-04-0.232D-03-0.235D-04 0.257D-02
 Coeff:      0.550D-02 0.151D-01 0.271D-01-0.105D+00-0.159D+00 0.246D+00
 Coeff:      0.969D+00
 Gap=     0.197 Goal=   None    Shift=    0.000
 RMSDP=7.46D-05 MaxDP=4.91D-03 DE=-8.97D-06 OVMax= 1.81D-03

 Cycle  14  Pass 1  IDiag  1:
 RMSU=  3.03D-05    CP:  4.78D-03  1.28D-01  3.78D-01  7.93D-01  7.43D-01
                    CP:  1.01D+00  5.29D-01  1.54D+00  1.65D+00  3.00D+00
                    CP:  2.25D+00  1.85D+00  1.51D+00
 E= -3010.57440872520     Delta-E=       -0.000003080460 Rises=F Damp=F
 DIIS: error= 2.32D-05 at cycle  14 NSaved=  14.
 NSaved=14 IEnMin=14 EnMin= -3010.57440872520     IErMin=14 ErrMin= 2.32D-05
 ErrMax= 2.32D-05  0.00D+00 EMaxC= 1.00D-01 BMatC= 1.25D-07 BMatP= 3.10D-07
 IDIUse=1 WtCom= 1.00D+00 WtEn= 0.00D+00
 Coeff-Com:  0.443D-04-0.614D-04-0.388D-04-0.111D-03-0.319D-03-0.339D-03
 Coeff-Com:  0.839D-03 0.105D-01 0.281D-01-0.499D-03-0.123D+00-0.657D-01
 Coeff-Com:  0.227D+00 0.924D+00
 Coeff:      0.443D-04-0.614D-04-0.388D-04-0.111D-03-0.319D-03-0.339D-03
 Coeff:      0.839D-03 0.105D-01 0.281D-01-0.499D-03-0.123D+00-0.657D-01
 Coeff:      0.227D+00 0.924D+00
 Gap=     0.197 Goal=   None    Shift=    0.000
 RMSDP=2.91D-05 MaxDP=1.94D-03 DE=-3.08D-06 OVMax= 8.60D-04

 Cycle  15  Pass 1  IDiag  1:
 RMSU=  7.71D-06    CP:  4.78D-03  1.28D-01  3.78D-01  7.93D-01  7.43D-01
                    CP:  1.01D+00  5.27D-01  1.55D+00  1.66D+00  3.00D+00
                    CP:  2.39D+00  2.03D+00  1.89D+00  1.33D+00
 E= -3010.57440968182     Delta-E=       -0.000000956615 Rises=F Damp=F
 DIIS: error= 1.38D-05 at cycle  15 NSaved=  15.
 NSaved=15 IEnMin=15 EnMin= -3010.57440968182     IErMin=15 ErrMin= 1.38D-05
 ErrMax= 1.38D-05  0.00D+00 EMaxC= 1.00D-01 BMatC= 6.71D-08 BMatP= 1.25D-07
 IDIUse=1 WtCom= 1.00D+00 WtEn= 0.00D+00
 Coeff-Com:  0.436D-04-0.584D-04-0.198D-04 0.374D-04-0.188D-03-0.141D-02
 Coeff-Com: -0.164D-02-0.624D-03-0.319D-03 0.339D-01 0.192D-01-0.551D-01
 Coeff-Com: -0.337D+00 0.235D+00 0.111D+01
 Coeff:      0.436D-04-0.584D-04-0.198D-04 0.374D-04-0.188D-03-0.141D-02
 Coeff:     -0.164D-02-0.624D-03-0.319D-03 0.339D-01 0.192D-01-0.551D-01
 Coeff:     -0.337D+00 0.235D+00 0.111D+01
 Gap=     0.197 Goal=   None    Shift=    0.000
 RMSDP=2.42D-05 MaxDP=1.70D-03 DE=-9.57D-07 OVMax= 8.09D-04

 Cycle  16  Pass 1  IDiag  1:
 RMSU=  5.00D-06    CP:  4.78D-03  1.28D-01  3.78D-01  7.93D-01  7.43D-01
                    CP:  1.01D+00  5.26D-01  1.55D+00  1.66D+00  3.00D+00
                    CP:  2.51D+00  2.19D+00  2.10D+00  1.63D+00  1.84D+00
 E= -3010.57441022957     Delta-E=       -0.000000547749 Rises=F Damp=F
 DIIS: error= 7.92D-06 at cycle  16 NSaved=  16.
 NSaved=16 IEnMin=16 EnMin= -3010.57441022957     IErMin=16 ErrMin= 7.92D-06
 ErrMax= 7.92D-06  0.00D+00 EMaxC= 1.00D-01 BMatC= 1.96D-08 BMatP= 6.71D-08
 IDIUse=1 WtCom= 1.00D+00 WtEn= 0.00D+00
 Coeff-Com:  0.891D-05-0.127D-04-0.722D-05 0.961D-05 0.289D-04 0.431D-03
 Coeff-Com:  0.532D-03-0.215D-02-0.106D-01-0.218D-01 0.381D-01 0.861D-01
 Coeff-Com: -0.571D-01-0.498D+00-0.526D-01 0.152D+01
 Coeff:      0.891D-05-0.127D-04-0.722D-05 0.961D-05 0.289D-04 0.431D-03
 Coeff:      0.532D-03-0.215D-02-0.106D-01-0.218D-01 0.381D-01 0.861D-01
 Coeff:     -0.571D-01-0.498D+00-0.526D-01 0.152D+01
 Gap=     0.197 Goal=   None    Shift=    0.000
 RMSDP=2.61D-05 MaxDP=1.59D-03 DE=-5.48D-07 OVMax= 8.56D-04

 Cycle  17  Pass 1  IDiag  1:
 RMSU=  3.92D-06    CP:  4.78D-03  1.28D-01  3.78D-01  7.93D-01  7.44D-01
                    CP:  1.01D+00  5.24D-01  1.56D+00  1.67D+00  3.00D+00
                    CP:  2.61D+00  2.33D+00  2.34D+00  1.96D+00  2.47D+00
                    CP:  1.55D+00
 E= -3010.57441049867     Delta-E=       -0.000000269103 Rises=F Damp=F
 DIIS: error= 3.77D-06 at cycle  17 NSaved=  17.
 NSaved=17 IEnMin=17 EnMin= -3010.57441049867     IErMin=17 ErrMin= 3.77D-06
 ErrMax= 3.77D-06  0.00D+00 EMaxC= 1.00D-01 BMatC= 2.03D-09 BMatP= 1.96D-08
 IDIUse=1 WtCom= 1.00D+00 WtEn= 0.00D+00
 Coeff-Com: -0.112D-05 0.157D-05 0.225D-06-0.814D-05 0.102D-04 0.382D-03
 Coeff-Com:  0.448D-03-0.290D-03-0.241D-02-0.121D-01 0.200D-02 0.281D-01
 Coeff-Com:  0.422D-01-0.148D+00-0.166D+00 0.344D+00 0.912D+00
 Coeff:     -0.112D-05 0.157D-05 0.225D-06-0.814D-05 0.102D-04 0.382D-03
 Coeff:      0.448D-03-0.290D-03-0.241D-02-0.121D-01 0.200D-02 0.281D-01
 Coeff:      0.422D-01-0.148D+00-0.166D+00 0.344D+00 0.912D+00
 Gap=     0.197 Goal=   None    Shift=    0.000
 RMSDP=8.18D-06 MaxDP=7.54D-04 DE=-2.69D-07 OVMax= 2.34D-04

 Cycle  18  Pass 1  IDiag  1:
 RMSU=  1.22D-06    CP:  4.78D-03  1.28D-01  3.78D-01  7.93D-01  7.44D-01
                    CP:  1.01D+00  5.23D-01  1.56D+00  1.68D+00  3.00D+00
                    CP:  2.63D+00  2.37D+00  2.39D+00  2.04D+00  2.61D+00
                    CP:  1.57D+00  1.36D+00
 E= -3010.57441051950     Delta-E=       -0.000000020826 Rises=F Damp=F
 DIIS: error= 1.94D-06 at cycle  18 NSaved=  18.
 NSaved=18 IEnMin=18 EnMin= -3010.57441051950     IErMin=18 ErrMin= 1.94D-06
 ErrMax= 1.94D-06  0.00D+00 EMaxC= 1.00D-01 BMatC= 7.75D-10 BMatP= 2.03D-09
 IDIUse=1 WtCom= 1.00D+00 WtEn= 0.00D+00
 Coeff-Com: -0.103D-05 0.170D-05 0.914D-06-0.186D-05-0.245D-05 0.589D-04
 Coeff-Com: -0.434D-05 0.129D-03 0.556D-03-0.173D-03-0.686D-02-0.685D-02
 Coeff-Com:  0.141D-01 0.379D-01-0.812D-02-0.123D+00 0.251D+00 0.842D+00
 Coeff:     -0.103D-05 0.170D-05 0.914D-06-0.186D-05-0.245D-05 0.589D-04
 Coeff:     -0.434D-05 0.129D-03 0.556D-03-0.173D-03-0.686D-02-0.685D-02
 Coeff:      0.141D-01 0.379D-01-0.812D-02-0.123D+00 0.251D+00 0.842D+00
 Gap=     0.197 Goal=   None    Shift=    0.000
 RMSDP=2.82D-06 MaxDP=3.16D-04 DE=-2.08D-08 OVMax= 5.96D-05

 Cycle  19  Pass 1  IDiag  1:
 RMSU=  5.49D-07    CP:  4.78D-03  1.28D-01  3.78D-01  7.93D-01  7.44D-01
                    CP:  1.01D+00  5.23D-01  1.56D+00  1.68D+00  3.00D+00
                    CP:  2.64D+00  2.38D+00  2.40D+00  2.06D+00  2.58D+00
                    CP:  1.51D+00  1.54D+00  1.38D+00
 E= -3010.57441052194     Delta-E=       -0.000000002441 Rises=F Damp=F
 DIIS: error= 1.42D-06 at cycle  19 NSaved=  19.
 NSaved=19 IEnMin=19 EnMin= -3010.57441052194     IErMin=19 ErrMin= 1.42D-06
 ErrMax= 1.42D-06  0.00D+00 EMaxC= 1.00D-01 BMatC= 1.93D-10 BMatP= 7.75D-10
 IDIUse=1 WtCom= 1.00D+00 WtEn= 0.00D+00
 Coeff-Com: -0.122D-05 0.160D-05 0.102D-05 0.475D-05 0.203D-05-0.511D-04
 Coeff-Com: -0.139D-03-0.494D-04 0.145D-03 0.269D-02-0.184D-03-0.653D-02
 Coeff-Com: -0.133D-01 0.316D-01 0.411D-01-0.780D-01-0.116D+00 0.200D+00
 Coeff-Com:  0.939D+00
 Coeff:     -0.122D-05 0.160D-05 0.102D-05 0.475D-05 0.203D-05-0.511D-04
 Coeff:     -0.139D-03-0.494D-04 0.145D-03 0.269D-02-0.184D-03-0.653D-02
 Coeff:     -0.133D-01 0.316D-01 0.411D-01-0.780D-01-0.116D+00 0.200D+00
 Coeff:      0.939D+00
 Gap=     0.197 Goal=   None    Shift=    0.000
 RMSDP=1.02D-06 MaxDP=8.45D-05 DE=-2.44D-09 OVMax= 3.20D-05

 Cycle  20  Pass 1  IDiag  1:
 RMSU=  3.09D-07    CP:  4.78D-03  1.28D-01  3.78D-01  7.93D-01  7.44D-01
                    CP:  1.01D+00  5.23D-01  1.56D+00  1.68D+00  3.00D+00
                    CP:  2.63D+00  2.38D+00  2.40D+00  2.06D+00  2.60D+00
                    CP:  1.52D+00  1.63D+00  1.55D+00  1.70D+00
 E= -3010.57441052290     Delta-E=       -0.000000000965 Rises=F Damp=F
 DIIS: error= 9.91D-07 at cycle  20 NSaved=  20.
 NSaved=20 IEnMin=20 EnMin= -3010.57441052290     IErMin=20 ErrMin= 9.91D-07
 ErrMax= 9.91D-07  0.00D+00 EMaxC= 1.00D-01 BMatC= 6.71D-11 BMatP= 1.93D-10
 IDIUse=1 WtCom= 1.00D+00 WtEn= 0.00D+00
 Coeff-Com: -0.240D-06 0.264D-06 0.775D-07 0.445D-06 0.562D-05 0.810D-05
 Coeff-Com: -0.228D-04-0.172D-03-0.503D-03-0.242D-03 0.293D-02 0.382D-02
 Coeff-Com: -0.351D-02-0.264D-01-0.838D-02 0.832D-01-0.584D-01-0.363D+00
 Coeff-Com: -0.112D+00 0.148D+01
 Coeff:     -0.240D-06 0.264D-06 0.775D-07 0.445D-06 0.562D-05 0.810D-05
 Coeff:     -0.228D-04-0.172D-03-0.503D-03-0.242D-03 0.293D-02 0.382D-02
 Coeff:     -0.351D-02-0.264D-01-0.838D-02 0.832D-01-0.584D-01-0.363D+00
 Coeff:     -0.112D+00 0.148D+01
 Gap=     0.197 Goal=   None    Shift=    0.000
 RMSDP=1.22D-06 MaxDP=1.17D-04 DE=-9.65D-10 OVMax= 3.37D-05

 Cycle  21  Pass 1  IDiag  1:
 Restarting incremental Fock formation.
 E= -3010.57441052346     Delta-E=       -0.000000000560 Rises=F Damp=F
 DIIS: error= 2.81D-07 at cycle  21 NSaved=  20.
 NSaved=20 IEnMin=20 EnMin= -3010.57441052346     IErMin=20 ErrMin= 2.81D-07
 ErrMax= 2.81D-07  0.00D+00 EMaxC= 1.00D-01 BMatC= 6.96D-12 BMatP= 6.71D-11
 IDIUse=1 WtCom= 1.00D+00 WtEn= 0.00D+00
 Coeff-Com:  0.579D-07-0.900D-07-0.560D-06 0.640D-06 0.128D-04 0.147D-04
 Coeff-Com: -0.962D-05-0.104D-03-0.473D-03 0.581D-03 0.142D-02 0.238D-02
 Coeff-Com: -0.106D-01-0.992D-02 0.250D-01 0.201D-01-0.413D-01-0.198D+00
 Coeff-Com:  0.103D+00 0.111D+01
 Coeff:      0.579D-07-0.900D-07-0.560D-06 0.640D-06 0.128D-04 0.147D-04
 Coeff:     -0.962D-05-0.104D-03-0.473D-03 0.581D-03 0.142D-02 0.238D-02
 Coeff:     -0.106D-01-0.992D-02 0.250D-01 0.201D-01-0.413D-01-0.198D+00
 Coeff:      0.103D+00 0.111D+01
 Gap=     0.197 Goal=   None    Shift=    0.000
 RMSDP=4.33D-07 MaxDP=3.73D-05 DE=-5.60D-10 OVMax= 1.25D-05

 Cycle  22  Pass 1  IDiag  1:
 RMSU=  4.32D-07    CP:  1.00D+00
 E= -3010.57441052354     Delta-E=       -0.000000000083 Rises=F Damp=F
 DIIS: error= 9.05D-08 at cycle  22 NSaved=  20.
 NSaved=20 IEnMin=20 EnMin= -3010.57441052354     IErMin=20 ErrMin= 9.05D-08
 ErrMax= 9.05D-08  0.00D+00 EMaxC= 1.00D-01 BMatC= 1.09D-12 BMatP= 6.96D-12
 IDIUse=1 WtCom= 1.00D+00 WtEn= 0.00D+00
 Coeff-Com:  0.208D-08 0.529D-07-0.269D-06 0.280D-06 0.111D-05 0.308D-04
 Coeff-Com:  0.323D-04-0.268D-04-0.188D-03-0.296D-03 0.811D-03 0.254D-02
 Coeff-Com: -0.409D-04-0.940D-02 0.345D-02 0.424D-01-0.127D-02-0.151D+00
 Coeff-Com:  0.904D-01 0.102D+01
 Coeff:      0.208D-08 0.529D-07-0.269D-06 0.280D-06 0.111D-05 0.308D-04
 Coeff:      0.323D-04-0.268D-04-0.188D-03-0.296D-03 0.811D-03 0.254D-02
 Coeff:     -0.409D-04-0.940D-02 0.345D-02 0.424D-01-0.127D-02-0.151D+00
 Coeff:      0.904D-01 0.102D+01
 Gap=     0.197 Goal=   None    Shift=    0.000
 RMSDP=1.85D-07 MaxDP=1.43D-05 DE=-8.32D-11 OVMax= 3.61D-06

 Cycle  23  Pass 1  IDiag  1:
 RMSU=  9.64D-08    CP:  1.00D+00  1.36D+00
 E= -3010.57441052353     Delta-E=        0.000000000018 Rises=F Damp=F
 DIIS: error= 2.88D-08 at cycle  23 NSaved=  20.
 NSaved=20 IEnMin=19 EnMin= -3010.57441052354     IErMin=20 ErrMin= 2.88D-08
 ErrMax= 2.88D-08  0.00D+00 EMaxC= 1.00D-01 BMatC= 3.05D-13 BMatP= 1.09D-12
 IDIUse=1 WtCom= 1.00D+00 WtEn= 0.00D+00
 Coeff-Com: -0.289D-07-0.346D-06-0.186D-05-0.336D-05 0.133D-04 0.321D-04
 Coeff-Com:  0.103D-03-0.190D-03-0.431D-03-0.807D-04 0.273D-02 0.143D-02
 Coeff-Com: -0.740D-02-0.178D-02 0.249D-01 0.375D-01-0.756D-01-0.177D+00
 Coeff-Com:  0.347D+00 0.848D+00
 Coeff:     -0.289D-07-0.346D-06-0.186D-05-0.336D-05 0.133D-04 0.321D-04
 Coeff:      0.103D-03-0.190D-03-0.431D-03-0.807D-04 0.273D-02 0.143D-02
 Coeff:     -0.740D-02-0.178D-02 0.249D-01 0.375D-01-0.756D-01-0.177D+00
 Coeff:      0.347D+00 0.848D+00
 Gap=     0.197 Goal=   None    Shift=    0.000
 RMSDP=6.11D-08 MaxDP=5.13D-06 DE= 1.77D-11 OVMax= 1.27D-06

 Cycle  24  Pass 1  IDiag  1:
 RMSU=  2.39D-08    CP:  1.00D+00  1.45D+00  1.29D+00
 E= -3010.57441052358     Delta-E=       -0.000000000052 Rises=F Damp=F
 DIIS: error= 1.78D-08 at cycle  24 NSaved=  20.
 NSaved=20 IEnMin=20 EnMin= -3010.57441052358     IErMin=20 ErrMin= 1.78D-08
 ErrMax= 1.78D-08  0.00D+00 EMaxC= 1.00D-01 BMatC= 5.36D-14 BMatP= 3.05D-13
 IDIUse=1 WtCom= 1.00D+00 WtEn= 0.00D+00
 Coeff-Com:  0.229D-07-0.198D-06-0.541D-06-0.374D-05-0.455D-05 0.419D-06
 Coeff-Com:  0.336D-04 0.777D-04-0.224D-03-0.443D-03 0.107D-03 0.212D-02
 Coeff-Com: -0.190D-02-0.120D-01 0.174D-02 0.400D-01-0.211D-01-0.296D+00
 Coeff-Com:  0.506D-01 0.124D+01
 Coeff:      0.229D-07-0.198D-06-0.541D-06-0.374D-05-0.455D-05 0.419D-06
 Coeff:      0.336D-04 0.777D-04-0.224D-03-0.443D-03 0.107D-03 0.212D-02
 Coeff:     -0.190D-02-0.120D-01 0.174D-02 0.400D-01-0.211D-01-0.296D+00
 Coeff:      0.506D-01 0.124D+01
 Gap=     0.197 Goal=   None    Shift=    0.000
 RMSDP=4.54D-08 MaxDP=3.02D-06 DE=-5.18D-11 OVMax= 9.50D-07

 Cycle  25  Pass 1  IDiag  1:
 RMSU=  1.45D-08    CP:  1.00D+00  1.52D+00  1.59D+00  1.45D+00
 E= -3010.57441052354     Delta-E=        0.000000000035 Rises=F Damp=F
 DIIS: error= 8.83D-09 at cycle  25 NSaved=  20.
 NSaved=20 IEnMin=19 EnMin= -3010.57441052358     IErMin=20 ErrMin= 8.83D-09
 ErrMax= 8.83D-09  0.00D+00 EMaxC= 1.00D-01 BMatC= 8.46D-15 BMatP= 5.36D-14
 IDIUse=1 WtCom= 1.00D+00 WtEn= 0.00D+00
 Large coefficients: NSaved= 20 BigCof=    0.00 CofMax=   10.00 Det=-9.17D-15
 Inversion failed.  Reducing to 19 matrices.
 Large coefficients: NSaved= 19 BigCof=    0.00 CofMax=   10.00 Det=-9.30D-15
 Inversion failed.  Reducing to 18 matrices.
 Large coefficients: NSaved= 18 BigCof=    0.00 CofMax=   10.00 Det=-9.35D-15
 Inversion failed.  Reducing to 17 matrices.
 Large coefficients: NSaved= 17 BigCof=    0.00 CofMax=   10.00 Det=-9.50D-15
 Inversion failed.  Reducing to 16 matrices.
 Large coefficients: NSaved= 16 BigCof=    0.00 CofMax=   10.00 Det=-9.51D-15
 Inversion failed.  Reducing to 15 matrices.
 Coeff-Com: -0.368D-05-0.402D-05-0.239D-04-0.523D-05 0.860D-04 0.880D-04
 Coeff-Com: -0.989D-04-0.980D-03-0.941D-03 0.123D-02 0.148D-01-0.357D-02
 Coeff-Com: -0.970D-01-0.990D-01 0.119D+01
 Coeff:     -0.368D-05-0.402D-05-0.239D-04-0.523D-05 0.860D-04 0.880D-04
 Coeff:     -0.989D-04-0.980D-03-0.941D-03 0.123D-02 0.148D-01-0.357D-02
 Coeff:     -0.970D-01-0.990D-01 0.119D+01
 Gap=     0.197 Goal=   None    Shift=    0.000
 RMSDP=1.47D-08 MaxDP=1.46D-06 DE= 3.46D-11 OVMax= 3.43D-07

 Cycle  26  Pass 1  IDiag  1:
 RMSU=  6.48D-09    CP:  1.00D+00  1.51D+00  1.61D+00  1.67D+00  1.57D+00
 E= -3010.57441052352     Delta-E=        0.000000000026 Rises=F Damp=F
 DIIS: error= 5.59D-09 at cycle  26 NSaved=  16.
 NSaved=16 IEnMin=14 EnMin= -3010.57441052358     IErMin=16 ErrMin= 5.59D-09
 ErrMax= 5.59D-09  0.00D+00 EMaxC= 1.00D-01 BMatC= 4.01D-15 BMatP= 8.46D-15
 IDIUse=1 WtCom= 1.00D+00 WtEn= 0.00D+00
 Large coefficients: NSaved= 16 BigCof=    0.00 CofMax=   10.00 Det=-5.01D-15
 Inversion failed.  Reducing to 15 matrices.
 Coeff-Com: -0.143D-05 0.165D-04-0.263D-05-0.151D-04-0.109D-03 0.473D-03
 Coeff-Com:  0.904D-03-0.205D-02-0.647D-02 0.137D-01 0.406D-01-0.734D-01
 Coeff-Com: -0.281D+00 0.459D+00 0.848D+00
 Coeff:     -0.143D-05 0.165D-04-0.263D-05-0.151D-04-0.109D-03 0.473D-03
 Coeff:      0.904D-03-0.205D-02-0.647D-02 0.137D-01 0.406D-01-0.734D-01
 Coeff:     -0.281D+00 0.459D+00 0.848D+00
 Gap=     0.197 Goal=   None    Shift=    0.000
 RMSDP=8.02D-09 MaxDP=5.80D-07 DE= 2.64D-11 OVMax= 2.68D-07

 SCF Done:  E(RwB97XD) =  -3010.57441052     A.U. after   26 cycles
            NFock= 26  Conv=0.80D-08     -V/T= 2.0016
 KE= 3.005819176634D+03 PE=-8.690318673322D+03 EE= 1.909353211610D+03
 Leave Link  502 at Thu May  2 14:25:28 2024, MaxMem=   134217728 cpu:            1614.7 elap:            1616.3
 (Enter /software/gaussian/g16-c01/sse4/g16/l601.exe)
 Copying SCF densities to generalized density rwf, IOpCl= 0 IROHF=0.

 **********************************************************************

            Population analysis using the SCF Density.

 **********************************************************************

 Alpha  occ. eigenvalues -- -483.24561 -62.79557 -56.59266 -56.58683 -56.58662
 Alpha  occ. eigenvalues --  -19.34372 -19.34222 -14.73972 -10.52381 -10.51946
 Alpha  occ. eigenvalues --  -10.51628 -10.51176 -10.48542 -10.46195  -8.95343
 Alpha  occ. eigenvalues --   -6.78060  -6.76148  -6.76083  -2.87954  -2.87460
 Alpha  occ. eigenvalues --   -2.87408  -2.85878  -2.85877  -1.38058  -1.20871
 Alpha  occ. eigenvalues --   -1.16153  -1.06776  -1.05651  -0.98087  -0.92732
 Alpha  occ. eigenvalues --   -0.89325  -0.84057  -0.78168  -0.73882  -0.72405
 Alpha  occ. eigenvalues --   -0.70658  -0.70034  -0.68678  -0.65549  -0.64275
 Alpha  occ. eigenvalues --   -0.62984  -0.61125  -0.57639  -0.53076  -0.49296
 Alpha  occ. eigenvalues --   -0.48453  -0.45115  -0.43573  -0.43455
 Alpha virt. eigenvalues --   -0.23771  -0.12706  -0.12182  -0.08817  -0.07719
 Alpha virt. eigenvalues --   -0.05044  -0.04816  -0.02975  -0.00966  -0.00099
 Alpha virt. eigenvalues --    0.01117   0.01845   0.03504   0.04196   0.05460
 Alpha virt. eigenvalues --    0.05540   0.07185   0.07415   0.07480   0.08699
 Alpha virt. eigenvalues --    0.09301   0.10137   0.10884   0.11689   0.12058
 Alpha virt. eigenvalues --    0.13242   0.13725   0.13920   0.14952   0.16083
 Alpha virt. eigenvalues --    0.16403   0.16842   0.17848   0.18590   0.19090
 Alpha virt. eigenvalues --    0.21038   0.21547   0.21979   0.23257   0.24202
 Alpha virt. eigenvalues --    0.25249   0.25770   0.26992   0.27419   0.28282
 Alpha virt. eigenvalues --    0.29742   0.32105   0.32578   0.33524   0.35261
 Alpha virt. eigenvalues --    0.36283   0.37655   0.38498   0.38623   0.40575
 Alpha virt. eigenvalues --    0.40789   0.41537   0.43047   0.43659   0.44550
 Alpha virt. eigenvalues --    0.45304   0.46755   0.47933   0.48159   0.49121
 Alpha virt. eigenvalues --    0.49841   0.51454   0.52355   0.53424   0.55446
 Alpha virt. eigenvalues --    0.56700   0.57261   0.58737   0.59995   0.60527
 Alpha virt. eigenvalues --    0.61847   0.63068   0.64732   0.66061   0.66215
 Alpha virt. eigenvalues --    0.67912   0.69868   0.71850   0.71952   0.74446
 Alpha virt. eigenvalues --    0.75075   0.76277   0.78019   0.79917   0.81160
 Alpha virt. eigenvalues --    0.83825   0.85531   0.88585   0.90718   0.91966
 Alpha virt. eigenvalues --    0.94110   0.96996   1.00086   1.02605   1.07727
 Alpha virt. eigenvalues --    1.09398   1.11008   1.11427   1.13605   1.15649
 Alpha virt. eigenvalues --    1.19412   1.23218   1.24457   1.25615   1.29490
 Alpha virt. eigenvalues --    1.31626   1.34317   1.36250   1.40188   1.42764
 Alpha virt. eigenvalues --    1.43179   1.46064   1.49707   1.61963   1.63133
 Alpha virt. eigenvalues --    1.65961   1.66779   1.70132   1.71705   1.72197
 Alpha virt. eigenvalues --    1.77923   1.78206   1.80684   1.84454   1.86283
 Alpha virt. eigenvalues --    1.87916   1.93274   1.95300   2.02173   2.03451
 Alpha virt. eigenvalues --    2.06471   2.09982   2.10421   2.15160   2.15569
 Alpha virt. eigenvalues --    2.19525   2.21039   2.28247   2.30699   2.33868
 Alpha virt. eigenvalues --    2.39449   2.47828   2.50768   2.52392   2.58942
 Alpha virt. eigenvalues --    2.64293   2.69839   2.72023   2.74971   2.81285
 Alpha virt. eigenvalues --    2.84024   2.87355   2.87664   2.88430   2.93032
 Alpha virt. eigenvalues --    2.99782   3.06275   3.11585   3.13720   3.15568
 Alpha virt. eigenvalues --    3.20140   3.21379   3.24796   3.32700   3.35304
 Alpha virt. eigenvalues --    3.39091   3.46740   3.51777   3.57769   3.65026
 Alpha virt. eigenvalues --    3.67199   3.80709   3.85887   3.90047   3.93960
 Alpha virt. eigenvalues --    4.16866   4.17721   4.26297   4.30392   4.50266
 Alpha virt. eigenvalues --    4.57291   4.61188   4.70385   5.06012   5.08940
 Alpha virt. eigenvalues --    5.17760   5.22243   5.73973   6.27496   6.74860
 Alpha virt. eigenvalues --    7.55751   7.58062   7.68113  23.28088  23.67482
 Alpha virt. eigenvalues --   23.78676  23.83676  24.00691  24.09010  35.43176
 Alpha virt. eigenvalues --   48.00818  49.97217  50.05880 289.88429 289.90763
 Alpha virt. eigenvalues --  290.033751021.01958
          Condensed to atoms (all electrons):
               1          2          3          4          5          6
     1  C    9.968344  -3.769368   1.486943  -0.599381   0.288349   0.076517
     2  C   -3.769368  20.699384  -6.124991   0.232626   0.028416   0.134778
     3  C    1.486943  -6.124991  24.790380  -1.901850   0.033191   0.125223
     4  C   -0.599381   0.232626  -1.901850   7.380281  -0.014569  -0.009229
     5  H    0.288349   0.028416   0.033191  -0.014569   0.384246  -0.001678
     6  H    0.076517   0.134778   0.125223  -0.009229  -0.001678   0.289937
     7  H    0.057595  -0.055823   0.040219   0.278222  -0.004483  -0.000009
     8  N   -0.254911   0.156422  -2.025550   0.063140  -0.000435  -0.031567
     9  O   -0.026170   0.233305  -0.030472  -0.040760  -0.000046  -0.002879
    10  O    0.397157  -0.233465  -0.225558  -0.028407   0.000117   0.030241
    11  C    1.537299  -0.345513   3.415508  -1.146465  -0.033364   0.007395
    12  H   -0.015188   0.000741   0.046753  -0.007833  -0.000004  -0.000016
    13  C   -3.030406  -4.903758 -13.460805   2.088634   0.026871   0.006582
    14  H   -0.005808  -0.012568  -0.056234   0.004480  -0.000031   0.000003
    15  Br  -0.014774  -0.186511  -0.155534   0.000480  -0.000079  -0.000298
               7          8          9         10         11         12
     1  C    0.057595  -0.254911  -0.026170   0.397157   1.537299  -0.015188
     2  C   -0.055823   0.156422   0.233305  -0.233465  -0.345513   0.000741
     3  C    0.040219  -2.025550  -0.030472  -0.225558   3.415508   0.046753
     4  C    0.278222   0.063140  -0.040760  -0.028407  -1.146465  -0.007833
     5  H   -0.004483  -0.000435  -0.000046   0.000117  -0.033364  -0.000004
     6  H   -0.000009  -0.031567  -0.002879   0.030241   0.007395  -0.000016
     7  H    0.444702  -0.000171   0.000021  -0.000003   0.061470  -0.003616
     8  N   -0.000171   8.191510  -0.163208   0.030272  -0.696533   0.001431
     9  O    0.000021  -0.163208   7.924721   0.029913   0.448161   0.000061
    10  O   -0.000003   0.030272   0.029913   7.824766  -0.005681  -0.000023
    11  C    0.061470  -0.696533   0.448161  -0.005681  11.052850   0.255787
    12  H   -0.003616   0.001431   0.000061  -0.000023   0.255787   0.384762
    13  C   -0.048036   1.833241  -0.497364   0.017235  -8.442913   0.042255
    14  H   -0.000045  -0.024799   0.017545  -0.002068   0.101846  -0.005732
    15  Br  -0.000165   0.164011  -0.056526   0.001767   0.105174  -0.007004
              13         14         15
     1  C   -3.030406  -0.005808  -0.014774
     2  C   -4.903758  -0.012568  -0.186511
     3  C  -13.460805  -0.056234  -0.155534
     4  C    2.088634   0.004480   0.000480
     5  H    0.026871  -0.000031  -0.000079
     6  H    0.006582   0.000003  -0.000298
     7  H   -0.048036  -0.000045  -0.000165
     8  N    1.833241  -0.024799   0.164011
     9  O   -0.497364   0.017545  -0.056526
    10  O    0.017235  -0.002068   0.001767
    11  C   -8.442913   0.101846   0.105174
    12  H    0.042255  -0.005732  -0.007004
    13  C   32.219616   0.285092   0.300043
    14  H    0.285092   0.294098  -0.031301
    15  Br   0.300043  -0.031301  34.649291
 Mulliken charges:
               1
     1  C   -0.096198
     2  C    0.146325
     3  C    0.042777
     4  C   -0.299369
     5  H    0.293497
     6  H    0.375000
     7  H    0.230123
     8  N   -0.242853
     9  O    0.163698
    10  O    0.163737
    11  C   -0.315021
    12  H    0.307625
    13  C   -0.436288
    14  H    0.435521
    15  Br   0.231426
 Sum of Mulliken charges =   1.00000
 Mulliken charges with hydrogens summed into heavy atoms:
               1
     1  C    0.197299
     2  C    0.521325
     3  C    0.042777
     4  C   -0.069247
     8  N   -0.242853
     9  O    0.163698
    10  O    0.163737
    11  C   -0.007396
    13  C   -0.000766
    15  Br   0.231426
 Electronic spatial extent (au):  <R**2>=           3929.6638
 Charge=              1.0000 electrons
 Dipole moment (field-independent basis, Debye):
    X=              8.4038    Y=             -1.1884    Z=             -1.0359  Tot=              8.5504
 Quadrupole moment (field-independent basis, Debye-Ang):
   XX=            -46.4786   YY=            -50.8790   ZZ=            -61.6584
   XY=             -4.2332   XZ=             -4.1095   YZ=              3.1364
 Traceless Quadrupole moment (field-independent basis, Debye-Ang):
   XX=              6.5268   YY=              2.1263   ZZ=             -8.6531
   XY=             -4.2332   XZ=             -4.1095   YZ=              3.1364
 Octapole moment (field-independent basis, Debye-Ang**2):
  XXX=           -404.2795  YYY=             89.9794  ZZZ=             80.9352  XYY=           -123.4778
  XXY=             21.1268  XXZ=             20.2809  XZZ=           -125.3522  YZZ=             15.2815
  YYZ=             24.0441  XYZ=             11.3081
 Hexadecapole moment (field-independent basis, Debye-Ang**3):
 XXXX=          -2917.5091 YYYY=           -701.2699 ZZZZ=           -390.9321 XXXY=            173.4813
 XXXZ=            167.7642 YYYX=            175.9023 YYYZ=           -167.5103 ZZZX=            157.1149
 ZZZY=           -139.9016 XXYY=           -573.4866 XXZZ=           -500.5638 YYZZ=           -167.7380
 XXYZ=            -29.9878 YYXZ=             41.1569 ZZXY=             20.1698
 N-N= 7.645718745545D+02 E-N=-8.690318673150D+03  KE= 3.005819176634D+03
 No NMR shielding tensors so no spin-rotation constants.
 Leave Link  601 at Thu May  2 14:25:36 2024, MaxMem=   134217728 cpu:               7.6 elap:               7.6
 (Enter /software/gaussian/g16-c01/sse4/g16/l9999.exe)
 Unable to Open any file for archive entry.
 1\1\GINC-BHX0002\SP\RwB97XD\6-311+G(d)\C6H5Br1N1O2(1+)\BWEIGHT\02-May-
 2024\0\\#P wB97XD/6-311+G* NoSymm #P Field=X-194\\TitleMe\\1,1\C,0,0.5
 193,1.233,-0.0319\C,0,1.9445,1.2692,-0.0367\C,0,2.6204,0.0928,-0.025\C
 ,0,-0.196,0.0301,0.001\H,0,-0.0207,2.1742,-0.0434\H,0,2.4828,2.2089,-0
 .0361\H,0,-1.2777,0.0399,0.0117\N,0,4.0921,0.0959,0.0366\O,0,4.6393,-1
 .0217,0.1446\O,0,4.6649,1.1984,-0.0233\C,0,0.4943,-1.1671,0.021\H,0,-0
 .0325,-2.1149,0.0545\C,0,1.9629,-1.2165,-0.0211\H,0,2.4436,-1.9631,0.6
 151\Br,0,2.173,-1.9491,-1.9062\\Version=ES64L-G16RevC.01\HF=-3010.5744
 105\RMSD=8.016e-09\Dipole=-1.0228943,0.760589,0.8416637\Quadrupole=4.8
 524973,1.5808735,-6.4333707,-3.1472589,-3.055284,2.3318045\PG=C01 [X(C
 6H5Br1N1O2)]\\@
 The archive entry for this job was punched.


 THE REAL VOYAGE OF DISCOVERY CONSISTS NOT IN SEEKING NEW LANDSCAPES 
 BUT IN HAVING NEW EYES.
                                                    -- MARCEL PROUST
 Job cpu time:       0 days  0 hours 28 minutes  5.9 seconds.
 Elapsed time:       0 days  0 hours 28 minutes  7.6 seconds.
 File lengths (MBytes):  RWF=     40 Int=      0 D2E=      0 Chk=     32 Scr=      1
 Normal termination of Gaussian 16 at Thu May  2 14:25:37 2024.
