 Entering Gaussian System, Link 0=g16
 Initial command:
 /software/gaussian/g16-c01/sse4/g16/l1.exe "/local_scratch/24665353/Gau-10230.inp" -scrdir="/local_scratch/24665353/"
 Entering Link 1 = /software/gaussian/g16-c01/sse4/g16/l1.exe PID=     10249.
  
 Copyright (c) 1988-2019, Gaussian, Inc.  All Rights Reserved.
  
 This is part of the Gaussian(R) 16 program.  It is based on
 the Gaussian(R) 09 system (copyright 2009, Gaussian, Inc.),
 the Gaussian(R) 03 system (copyright 2003, Gaussian, Inc.),
 the Gaussian(R) 98 system (copyright 1998, Gaussian, Inc.),
 the Gaussian(R) 94 system (copyright 1995, Gaussian, Inc.),
 the Gaussian 92(TM) system (copyright 1992, Gaussian, Inc.),
 the Gaussian 90(TM) system (copyright 1990, Gaussian, Inc.),
 the Gaussian 88(TM) system (copyright 1988, Gaussian, Inc.),
 the Gaussian 86(TM) system (copyright 1986, Carnegie Mellon
 University), and the Gaussian 82(TM) system (copyright 1983,
 Carnegie Mellon University). Gaussian is a federally registered
 trademark of Gaussian, Inc.
  
 This software contains proprietary and confidential information,
 including trade secrets, belonging to Gaussian, Inc.
  
 This software is provided under written license and may be
 used, copied, transmitted, or stored only in accord with that
 written license.
  
 The following legend is applicable only to US Government
 contracts under FAR:
  
                    RESTRICTED RIGHTS LEGEND
  
 Use, reproduction and disclosure by the US Government is
 subject to restrictions as set forth in subparagraphs (a)
 and (c) of the Commercial Computer Software - Restricted
 Rights clause in FAR 52.227-19.
  
 Gaussian, Inc.
 340 Quinnipiac St., Bldg. 40, Wallingford CT 06492
  
  
 ---------------------------------------------------------------
 Warning -- This program may not be used in any manner that
 competes with the business of Gaussian, Inc. or will provide
 assistance to any competitor of Gaussian, Inc.  The licensee
 of this program is prohibited from giving any competitor of
 Gaussian, Inc. access to this program.  By using this program,
 the user acknowledges that Gaussian, Inc. is engaged in the
 business of creating and licensing software in the field of
 computational chemistry and represents and warrants to the
 licensee that it is not a competitor of Gaussian, Inc. and that
 it will not use this program in any manner prohibited above.
 ---------------------------------------------------------------
  

 Cite this work as:
 Gaussian 16, Revision C.01,
 M. J. Frisch, G. W. Trucks, H. B. Schlegel, G. E. Scuseria, 
 M. A. Robb, J. R. Cheeseman, G. Scalmani, V. Barone, 
 G. A. Petersson, H. Nakatsuji, X. Li, M. Caricato, A. V. Marenich, 
 J. Bloino, B. G. Janesko, R. Gomperts, B. Mennucci, H. P. Hratchian, 
 J. V. Ortiz, A. F. Izmaylov, J. L. Sonnenberg, D. Williams-Young, 
 F. Ding, F. Lipparini, F. Egidi, J. Goings, B. Peng, A. Petrone, 
 T. Henderson, D. Ranasinghe, V. G. Zakrzewski, J. Gao, N. Rega, 
 G. Zheng, W. Liang, M. Hada, M. Ehara, K. Toyota, R. Fukuda, 
 J. Hasegawa, M. Ishida, T. Nakajima, Y. Honda, O. Kitao, H. Nakai, 
 T. Vreven, K. Throssell, J. A. Montgomery, Jr., J. E. Peralta, 
 F. Ogliaro, M. J. Bearpark, J. J. Heyd, E. N. Brothers, K. N. Kudin, 
 V. N. Staroverov, T. A. Keith, R. Kobayashi, J. Normand, 
 K. Raghavachari, A. P. Rendell, J. C. Burant, S. S. Iyengar, 
 J. Tomasi, M. Cossi, J. M. Millam, M. Klene, C. Adamo, R. Cammi, 
 J. W. Ochterski, R. L. Martin, K. Morokuma, O. Farkas, 
 J. B. Foresman, and D. J. Fox, Gaussian, Inc., Wallingford CT, 2019.
 
 ******************************************
 Gaussian 16:  ES64L-G16RevC.01  3-Jul-2019
                 2-May-2024 
 ******************************************
 %chk=geometry.chk
 %mem=1GB
 %nprocshared=12
 Will use up to   12 processors via shared memory.
 ----------------------------------------
 #P wB97XD/6-311+G* NoSymm #P Field=Z-291
 ----------------------------------------
 1/38=1,172=1/1;
 2/12=2,15=1,17=6,18=5,40=1/2;
 3/5=4,6=6,7=11,11=2,14=3,15=-291,25=1,30=1,74=-58/1,2,3;
 4//1;
 5/5=2,38=5/2;
 6/7=2,8=2,9=2,10=2,28=1/1;
 99/5=1,9=1/99;
 Leave Link    1 at Thu May  2 13:58:19 2024, MaxMem=   134217728 cpu:               2.5 elap:               2.5
 (Enter /software/gaussian/g16-c01/sse4/g16/l101.exe)
 -------
 TitleMe
 -------
 Symbolic Z-matrix:
 Charge =  1 Multiplicity = 1
 C                     0.5193    1.233    -0.0319 
 C                     1.9445    1.2692   -0.0367 
 C                     2.6204    0.0928   -0.025 
 C                    -0.196     0.0301    0.001 
 H                    -0.0207    2.1742   -0.0434 
 H                     2.4828    2.2089   -0.0361 
 H                    -1.2777    0.0399    0.0117 
 N                     4.0921    0.0959    0.0366 
 O                     4.6393   -1.0217    0.1446 
 O                     4.6649    1.1984   -0.0233 
 C                     0.4943   -1.1671    0.021 
 H                    -0.0325   -2.1149    0.0545 
 C                     1.9629   -1.2165   -0.0211 
 H                     2.4436   -1.9631    0.6151 
 Br                    2.173    -1.9491   -1.9062 
 
 ITRead=  0  0  0  0  0  0  0  0  0  0  0  0  0  0  0
 MicOpt= -1 -1 -1 -1 -1 -1 -1 -1 -1 -1 -1 -1 -1 -1 -1
 NAtoms=     15 NQM=       15 NQMF=       0 NMMI=      0 NMMIF=      0
                NMic=       0 NMicF=      0.
                    Isotopes and Nuclear Properties:
 (Nuclear quadrupole moments (NQMom) in fm**2, nuclear magnetic moments (NMagM)
  in nuclear magnetons)

  Atom         1           2           3           4           5           6           7           8           9          10
 IAtWgt=          12          12          12          12           1           1           1          14          16          16
 AtmWgt=  12.0000000  12.0000000  12.0000000  12.0000000   1.0078250   1.0078250   1.0078250  14.0030740  15.9949146  15.9949146
 NucSpn=           0           0           0           0           1           1           1           2           0           0
 AtZEff=  -0.0000000  -0.0000000  -0.0000000  -0.0000000  -0.0000000  -0.0000000  -0.0000000  -0.0000000  -0.0000000  -0.0000000
 NQMom=    0.0000000   0.0000000   0.0000000   0.0000000   0.0000000   0.0000000   0.0000000   2.0440000   0.0000000   0.0000000
 NMagM=    0.0000000   0.0000000   0.0000000   0.0000000   2.7928460   2.7928460   2.7928460   0.4037610   0.0000000   0.0000000
 AtZNuc=   6.0000000   6.0000000   6.0000000   6.0000000   1.0000000   1.0000000   1.0000000   7.0000000   8.0000000   8.0000000

  Atom        11          12          13          14          15
 IAtWgt=          12           1          12           1          79
 AtmWgt=  12.0000000   1.0078250  12.0000000   1.0078250  78.9183361
 NucSpn=           0           1           0           1           3
 AtZEff=  -0.0000000  -0.0000000  -0.0000000  -0.0000000  -0.0000000
 NQMom=    0.0000000   0.0000000   0.0000000   0.0000000  31.3000000
 NMagM=    0.0000000   2.7928460   0.0000000   2.7928460   2.1063990
 AtZNuc=   6.0000000   1.0000000   6.0000000   1.0000000  35.0000000
 Leave Link  101 at Thu May  2 13:58:21 2024, MaxMem=   134217728 cpu:               1.6 elap:               1.6
 (Enter /software/gaussian/g16-c01/sse4/g16/l202.exe)
                          Input orientation:                          
 ---------------------------------------------------------------------
 Center     Atomic      Atomic             Coordinates (Angstroms)
 Number     Number       Type             X           Y           Z
 ---------------------------------------------------------------------
      1          6           0        0.519300    1.233000   -0.031900
      2          6           0        1.944500    1.269200   -0.036700
      3          6           0        2.620400    0.092800   -0.025000
      4          6           0       -0.196000    0.030100    0.001000
      5          1           0       -0.020700    2.174200   -0.043400
      6          1           0        2.482800    2.208900   -0.036100
      7          1           0       -1.277700    0.039900    0.011700
      8          7           0        4.092100    0.095900    0.036600
      9          8           0        4.639300   -1.021700    0.144600
     10          8           0        4.664900    1.198400   -0.023300
     11          6           0        0.494300   -1.167100    0.021000
     12          1           0       -0.032500   -2.114900    0.054500
     13          6           0        1.962900   -1.216500   -0.021100
     14          1           0        2.443600   -1.963100    0.615100
     15         35           0        2.173000   -1.949100   -1.906200
 ---------------------------------------------------------------------
                    Distance matrix (angstroms):
                    1          2          3          4          5
     1  C    0.000000
     2  C    1.425668   0.000000
     3  C    2.390549   1.356796   0.000000
     4  C    1.399895   2.473566   2.817218   0.000000
     5  H    1.085168   2.163581   3.362733   2.151712   0.000000
     6  H    2.192654   1.082960   2.120598   3.453189   2.503751
     7  H    2.157452   3.449071   3.898632   1.081797   2.477564
     8  N    3.750012   2.448304   1.472992   4.288753   4.608780
     9  O    4.699917   3.541615   2.312322   4.950458   5.653735
    10  O    4.145753   2.721354   2.324292   4.999386   4.786171
    11  C    2.400813   2.835836   2.471794   1.382101   3.381369
    12  H    3.394169   3.920329   3.452266   2.151887   4.290233
    13  C    2.843264   2.485817   1.465124   2.493060   3.928360
    14  H    3.786370   3.334922   2.160489   3.364142   4.860416
    15  Br   4.046416   3.728900   2.812194   3.628609   5.028314
                    6          7          8          9         10
     6  H    0.000000
     7  H    4.341452   0.000000
     8  N    2.657047   5.370150   0.000000
     9  O    3.888434   6.012948   1.249048   0.000000
    10  O    2.404752   6.054572   1.243863   2.226587   0.000000
    11  C    3.918516   2.144043   3.813080   4.149391   4.794941
    12  H    5.003018   2.489080   4.679774   4.798846   5.748876
    13  C    3.464662   3.475788   2.501842   2.688591   3.623886
    14  H    4.222698   4.268978   2.700314   2.434893   3.916224
    15  Br   4.569706   4.420610   3.411663   3.338935   4.434144
                   11         12         13         14         15
    11  C    0.000000
    12  H    1.084880   0.000000
    13  C    1.470034   2.189625   0.000000
    14  H    2.187771   2.543302   1.092353   0.000000
    15  Br   2.672762   2.955683   2.033334   2.535818   0.000000
 Symmetry turned off by external request.
 Stoichiometry    C6H5BrNO2(1+)
 Framework group  C1[X(C6H5BrNO2)]
 Deg. of freedom    39
 Full point group                 C1      NOp   1
 Rotational constants (GHZ):           1.1632986           0.9594224           0.5957624
 Leave Link  202 at Thu May  2 13:58:22 2024, MaxMem=   134217728 cpu:               1.2 elap:               1.2
 (Enter /software/gaussian/g16-c01/sse4/g16/l301.exe)
 Standard basis: 6-311+G(d) (5D, 7F)
 Ernie: Thresh=  0.10000D-02 Tol=  0.10000D-05 Strict=F.
 The following finite field(s) will be applied:
 An electric field of              0.0000  0.0000 -0.0291
   261 basis functions,   443 primitive gaussians,   273 cartesian basis functions
    49 alpha electrons       49 beta electrons
       nuclear repulsion energy       772.8945969580 Hartrees.
 IExCor= 4639 DFT=T Ex+Corr=wB97XD ExCW=0 ScaHFX=  1.000000
 ScaDFX=  1.000000  1.000000  1.000000  1.000000 ScalE2=  1.000000  1.000000
 IRadAn=      5 IRanWt=     -1 IRanGd=            0 ICorTp=0 IEmpDi=121
 HFx  wShort=  0.000000 wLong=  0.200000 cFull=  0.222036 cShort=  0.000000 cLong=  0.777964
 DFx  wShort=  0.000000 wLong=  0.200000 cFull=  0.000000 cShort=  0.000000 cLong=  1.000000
 NAtoms=   15 NActive=   15 NUniq=   15 SFac= 1.00D+00 NAtFMM=   60 NAOKFM=F Big=F
 Integral buffers will be    131072 words long.
 Raffenetti 2 integral format.
 Two-electron integral symmetry is turned off.
 R6Disp:  Grimme-D2 Dispersion energy=       -0.0080346408 Hartrees.
 Nuclear repulsion after empirical dispersion term =      772.8865623173 Hartrees.
 Leave Link  301 at Thu May  2 13:58:24 2024, MaxMem=   134217728 cpu:               1.1 elap:               1.1
 (Enter /software/gaussian/g16-c01/sse4/g16/l302.exe)
 NPDir=0 NMtPBC=     1 NCelOv=     1 NCel=       1 NClECP=     1 NCelD=      1
         NCelK=      1 NCelE2=     1 NClLst=     1 CellRange=     0.0.
 One-electron integrals computed using PRISM.
 NBasis=   261 RedAO= T EigKep=  2.52D-06  NBF=   261
 NBsUse=   261 1.00D-06 EigRej= -1.00D+00 NBFU=   261
 Precomputing XC quadrature grid using
 IXCGrd= 4 IRadAn=           5 IRanWt=          -1 IRanGd=           0 AccXCQ= 0.00D+00.
 Generated NRdTot=       0 NPtTot=           0 NUsed=           0 NTot=          32
 NSgBfM=   273   273   273   273   273 MxSgAt=    15 MxSgA2=    15.
 Leave Link  302 at Thu May  2 13:58:46 2024, MaxMem=   134217728 cpu:              21.7 elap:              21.7
 (Enter /software/gaussian/g16-c01/sse4/g16/l303.exe)
 DipDrv:  MaxL=1.
 The nuclear repulsion energy is now       776.4854392921 hartrees.
 Leave Link  303 at Thu May  2 13:58:49 2024, MaxMem=   134217728 cpu:               3.3 elap:               3.3
 (Enter /software/gaussian/g16-c01/sse4/g16/l401.exe)
 ExpMin= 3.50D-02 ExpMax= 4.40D+05 ExpMxC= 1.51D+04 IAcc=3 IRadAn=         5 AccDes= 0.00D+00
 Harris functional with IExCor= 4639 and IRadAn=       5 diagonalized for initial guess.
 HarFok:  IExCor= 4639 AccDes= 0.00D+00 IRadAn=         5 IDoV= 1 UseB2=F ITyADJ=14
 ICtDFT=  3500011 ScaDFX=  1.000000  1.000000  1.000000  1.000000
 FoFCou: FMM=F IPFlag=           0 FMFlag=      100000 FMFlg1=           0
         NFxFlg=           0 DoJE=T BraDBF=F KetDBF=T FulRan=T
         wScrn=  0.000000 ICntrl=       500 IOpCl=  0 I1Cent=   200000004 NGrid=           0
         NMat0=    1 NMatS0=      1 NMatT0=    0 NMatD0=    1 NMtDS0=    0 NMtDT0=    0
 Symmetry not used in FoFCou.
 Harris En= -2970.83096288599    
 JPrj=0 DoOrth=F DoCkMO=F.
 Leave Link  401 at Thu May  2 13:59:20 2024, MaxMem=   134217728 cpu:              31.1 elap:              31.1
 (Enter /software/gaussian/g16-c01/sse4/g16/l502.exe)
 Two-electron integral symmetry not used.
 Closed shell SCF:
 Using DIIS extrapolation, IDIIS=  1040.
 NGot=   134217728 LenX=   134063053 LenY=   133988083
 Requested convergence on RMS density matrix=1.00D-08 within 128 cycles.
 Requested convergence on MAX density matrix=1.00D-06.
 Requested convergence on             energy=1.00D-06.
 No special actions if energy rises.
 Fock matrices will be formed incrementally for  20 cycles.

 Cycle   1  Pass 1  IDiag  1:
 FoFJK:  IHMeth= 1 ICntrl=       0 DoSepK=T KAlg= 0 I1Cent=           0 FoldK=F
 IRaf=         1 NMat=       1 IRICut=       1 DoRegI=T DoRafI=F ISym2E= 0 IDoP0=0 IntGTp=1.
 FoFCou: FMM=F IPFlag=           0 FMFlag=      100000 FMFlg1=           0
         NFxFlg=           0 DoJE=T BraDBF=F KetDBF=F FulRan=T
         wScrn=  0.000000 ICntrl=       500 IOpCl=  0 I1Cent=           0 NGrid=           0
         NMat0=    1 NMatS0=      1 NMatT0=    0 NMatD0=    1 NMtDS0=    0 NMtDT0=    0
 Symmetry not used in FoFCou.
 E= -3008.10237423812    
 DIIS: error= 2.93D-01 at cycle   1 NSaved=   1.
 NSaved= 1 IEnMin= 1 EnMin= -3008.10237423812     IErMin= 1 ErrMin= 2.93D-01
 ErrMax= 2.93D-01  0.00D+00 EMaxC= 1.00D-01 BMatC= 1.26D+01 BMatP= 1.26D+01
 IDIUse=3 WtCom= 0.00D+00 WtEn= 1.00D+00
 Coeff-Com:  0.100D+01
 Coeff-En:   0.100D+01
 Coeff:      0.100D+01
 Gap=     0.378 Goal=   None    Shift=    0.000
 GapD=    0.378 DampG=1.000 DampE=0.250 DampFc=0.2500 IDamp=-1.
 Damping current iteration by 2.50D-01
 RMSDP=3.50D+00 MaxDP=3.70D+02              OVMax= 8.70D-01

 Cycle   2  Pass 1  IDiag  1:
 RMSU=  2.58D-02    CP:  7.54D-01
 E= -3008.72402506741     Delta-E=       -0.621650829291 Rises=F Damp=T
 DIIS: error= 2.20D-01 at cycle   2 NSaved=   2.
 NSaved= 2 IEnMin= 2 EnMin= -3008.72402506741     IErMin= 2 ErrMin= 2.20D-01
 ErrMax= 2.20D-01  0.00D+00 EMaxC= 1.00D-01 BMatC= 5.65D+00 BMatP= 1.26D+01
 IDIUse=3 WtCom= 0.00D+00 WtEn= 1.00D+00
 Coeff-Com: -0.133D+01 0.233D+01
 Coeff-En:   0.156D+00 0.844D+00
 Coeff:      0.156D+00 0.844D+00
 Gap=     0.536 Goal=   None    Shift=    0.000
 RMSDP=2.62D+00 MaxDP=2.77D+02 DE=-6.22D-01 OVMax= 6.99D-01

 Cycle   3  Pass 1  IDiag  1:
 RMSU=  2.24D-02    CP:  1.49D-02  2.79D+00
 E= -3010.05660838842     Delta-E=       -1.332583321009 Rises=F Damp=F
 DIIS: error= 8.35D-02 at cycle   3 NSaved=   3.
 NSaved= 3 IEnMin= 3 EnMin= -3010.05660838842     IErMin= 3 ErrMin= 8.35D-02
 ErrMax= 8.35D-02  0.00D+00 EMaxC= 1.00D-01 BMatC= 1.48D+00 BMatP= 5.65D+00
 IDIUse=3 WtCom= 1.65D-01 WtEn= 8.35D-01
 Coeff-Com:  0.107D+00 0.153D+00 0.740D+00
 Coeff-En:   0.958D-01 0.000D+00 0.904D+00
 Coeff:      0.977D-01 0.253D-01 0.877D+00
 Gap=     0.208 Goal=   None    Shift=    0.000
 RMSDP=3.48D-02 MaxDP=2.09D+00 DE=-1.33D+00 OVMax= 3.11D-01

 Cycle   4  Pass 1  IDiag  1:
 RMSU=  3.27D-02    CP:  1.52D-02  2.37D+00  7.58D-01
 E= -3010.16576858946     Delta-E=       -0.109160201041 Rises=F Damp=F
 DIIS: error= 5.94D-02 at cycle   4 NSaved=   4.
 NSaved= 4 IEnMin= 4 EnMin= -3010.16576858946     IErMin= 4 ErrMin= 5.94D-02
 ErrMax= 5.94D-02  0.00D+00 EMaxC= 1.00D-01 BMatC= 9.12D-01 BMatP= 1.48D+00
 IDIUse=3 WtCom= 4.06D-01 WtEn= 5.94D-01
 Coeff-Com:  0.802D-01-0.604D-01 0.473D+00 0.507D+00
 Coeff-En:   0.000D+00 0.000D+00 0.437D+00 0.563D+00
 Coeff:      0.326D-01-0.245D-01 0.452D+00 0.540D+00
 Gap=     0.295 Goal=   None    Shift=    0.000
 RMSDP=1.97D-02 MaxDP=1.83D+00 DE=-1.09D-01 OVMax= 2.25D-01

 Cycle   5  Pass 1  IDiag  1:
 RMSU=  9.40D-03    CP:  1.31D-02  2.17D+00  8.08D-01  5.49D-01
 E= -3010.47519545444     Delta-E=       -0.309426864984 Rises=F Damp=F
 DIIS: error= 3.85D-02 at cycle   5 NSaved=   5.
 NSaved= 5 IEnMin= 5 EnMin= -3010.47519545444     IErMin= 5 ErrMin= 3.85D-02
 ErrMax= 3.85D-02  0.00D+00 EMaxC= 1.00D-01 BMatC= 1.09D-01 BMatP= 9.12D-01
 IDIUse=3 WtCom= 6.15D-01 WtEn= 3.85D-01
 Coeff-Com:  0.459D-01-0.517D-01 0.274D+00 0.347D+00 0.385D+00
 Coeff-En:   0.000D+00 0.000D+00 0.000D+00 0.152D+00 0.848D+00
 Coeff:      0.282D-01-0.318D-01 0.168D+00 0.272D+00 0.563D+00
 Gap=     0.284 Goal=   None    Shift=    0.000
 RMSDP=8.28D-03 MaxDP=7.00D-01 DE=-3.09D-01 OVMax= 1.82D-01

 Cycle   6  Pass 1  IDiag  1:
 RMSU=  5.27D-03    CP:  1.34D-02  1.95D+00  7.92D-01  6.04D-01  7.52D-01
 E= -3010.52887029969     Delta-E=       -0.053674845250 Rises=F Damp=F
 DIIS: error= 2.33D-02 at cycle   6 NSaved=   6.
 NSaved= 6 IEnMin= 6 EnMin= -3010.52887029969     IErMin= 6 ErrMin= 2.33D-02
 ErrMax= 2.33D-02  0.00D+00 EMaxC= 1.00D-01 BMatC= 3.69D-02 BMatP= 1.09D-01
 IDIUse=3 WtCom= 7.67D-01 WtEn= 2.33D-01
 Coeff-Com:  0.391D-02-0.549D-02 0.346D-01 0.672D-01 0.368D+00 0.532D+00
 Coeff-En:   0.000D+00 0.000D+00 0.000D+00 0.000D+00 0.282D+00 0.718D+00
 Coeff:      0.300D-02-0.421D-02 0.265D-01 0.516D-01 0.348D+00 0.575D+00
 Gap=     0.241 Goal=   None    Shift=    0.000
 RMSDP=3.65D-03 MaxDP=3.66D-01 DE=-5.37D-02 OVMax= 8.19D-02

 Cycle   7  Pass 1  IDiag  1:
 RMSU=  1.65D-03    CP:  1.39D-02  2.00D+00  8.23D-01  5.79D-01  9.08D-01
                    CP:  7.59D-01
 E= -3010.55217757205     Delta-E=       -0.023307272355 Rises=F Damp=F
 DIIS: error= 3.96D-03 at cycle   7 NSaved=   7.
 NSaved= 7 IEnMin= 7 EnMin= -3010.55217757205     IErMin= 7 ErrMin= 3.96D-03
 ErrMax= 3.96D-03  0.00D+00 EMaxC= 1.00D-01 BMatC= 1.48D-03 BMatP= 3.69D-02
 IDIUse=3 WtCom= 9.60D-01 WtEn= 3.96D-02
 Coeff-Com:  0.155D-03-0.403D-03-0.112D-01-0.633D-02 0.130D+00 0.313D+00
 Coeff-Com:  0.575D+00
 Coeff-En:   0.000D+00 0.000D+00 0.000D+00 0.000D+00 0.000D+00 0.000D+00
 Coeff-En:   0.100D+01
 Coeff:      0.148D-03-0.387D-03-0.108D-01-0.608D-02 0.125D+00 0.300D+00
 Coeff:      0.592D+00
 Gap=     0.240 Goal=   None    Shift=    0.000
 RMSDP=1.17D-03 MaxDP=1.40D-01 DE=-2.33D-02 OVMax= 1.27D-02

 Cycle   8  Pass 1  IDiag  1:
 RMSU=  6.10D-04    CP:  1.39D-02  1.98D+00  8.16D-01  5.78D-01  9.39D-01
                    CP:  8.92D-01  9.29D-01
 E= -3010.55318578207     Delta-E=       -0.001008210020 Rises=F Damp=F
 DIIS: error= 7.37D-04 at cycle   8 NSaved=   8.
 NSaved= 8 IEnMin= 8 EnMin= -3010.55318578207     IErMin= 8 ErrMin= 7.37D-04
 ErrMax= 7.37D-04  0.00D+00 EMaxC= 1.00D-01 BMatC= 9.57D-05 BMatP= 1.48D-03
 IDIUse=3 WtCom= 9.93D-01 WtEn= 7.37D-03
 Coeff-Com: -0.119D-02 0.130D-02-0.771D-02-0.814D-02 0.110D-01 0.574D-01
 Coeff-Com:  0.274D+00 0.674D+00
 Coeff-En:   0.000D+00 0.000D+00 0.000D+00 0.000D+00 0.000D+00 0.000D+00
 Coeff-En:   0.000D+00 0.100D+01
 Coeff:     -0.119D-02 0.129D-02-0.765D-02-0.808D-02 0.109D-01 0.570D-01
 Coeff:      0.272D+00 0.676D+00
 Gap=     0.238 Goal=   None    Shift=    0.000
 RMSDP=4.36D-04 MaxDP=4.47D-02 DE=-1.01D-03 OVMax= 2.56D-03

 Cycle   9  Pass 1  IDiag  1:
 RMSU=  9.94D-05    CP:  1.40D-02  1.98D+00  8.18D-01  5.78D-01  9.50D-01
                    CP:  9.00D-01  1.02D+00  1.09D+00
 E= -3010.55325551547     Delta-E=       -0.000069733399 Rises=F Damp=F
 DIIS: error= 1.50D-04 at cycle   9 NSaved=   9.
 NSaved= 9 IEnMin= 9 EnMin= -3010.55325551547     IErMin= 9 ErrMin= 1.50D-04
 ErrMax= 1.50D-04  0.00D+00 EMaxC= 1.00D-01 BMatC= 5.08D-06 BMatP= 9.57D-05
 IDIUse=3 WtCom= 9.99D-01 WtEn= 1.50D-03
 Coeff-Com: -0.691D-03 0.877D-03-0.153D-02-0.187D-02-0.584D-02-0.483D-02
 Coeff-Com:  0.522D-01 0.254D+00 0.708D+00
 Coeff-En:   0.000D+00 0.000D+00 0.000D+00 0.000D+00 0.000D+00 0.000D+00
 Coeff-En:   0.000D+00 0.000D+00 0.100D+01
 Coeff:     -0.690D-03 0.876D-03-0.152D-02-0.187D-02-0.583D-02-0.482D-02
 Coeff:      0.521D-01 0.253D+00 0.708D+00
 Gap=     0.238 Goal=   None    Shift=    0.000
 RMSDP=9.45D-05 MaxDP=9.85D-03 DE=-6.97D-05 OVMax= 1.06D-03

 Cycle  10  Pass 1  IDiag  1:
 RMSU=  6.82D-05    CP:  1.40D-02  1.98D+00  8.17D-01  5.78D-01  9.48D-01
                    CP:  8.99D-01  1.02D+00  1.07D+00  8.63D-01
 E= -3010.55326211410     Delta-E=       -0.000006598639 Rises=F Damp=F
 DIIS: error= 8.20D-05 at cycle  10 NSaved=  10.
 NSaved=10 IEnMin=10 EnMin= -3010.55326211410     IErMin=10 ErrMin= 8.20D-05
 ErrMax= 8.20D-05  0.00D+00 EMaxC= 1.00D-01 BMatC= 1.11D-06 BMatP= 5.08D-06
 IDIUse=1 WtCom= 1.00D+00 WtEn= 0.00D+00
 Coeff-Com: -0.534D-03 0.758D-03 0.337D-03 0.262D-03-0.441D-02-0.107D-01
 Coeff-Com: -0.247D-01-0.137D-01 0.289D+00 0.764D+00
 Coeff:     -0.534D-03 0.758D-03 0.337D-03 0.262D-03-0.441D-02-0.107D-01
 Coeff:     -0.247D-01-0.137D-01 0.289D+00 0.764D+00
 Gap=     0.238 Goal=   None    Shift=    0.000
 RMSDP=5.59D-05 MaxDP=4.77D-03 DE=-6.60D-06 OVMax= 6.23D-04

 Cycle  11  Pass 1  IDiag  1:
 RMSU=  2.00D-05    CP:  1.40D-02  1.98D+00  8.17D-01  5.78D-01  9.46D-01
                    CP:  8.99D-01  1.02D+00  1.03D+00  8.87D-01  1.36D+00
 E= -3010.55326405552     Delta-E=       -0.000001941416 Rises=F Damp=F
 DIIS: error= 2.32D-05 at cycle  11 NSaved=  11.
 NSaved=11 IEnMin=11 EnMin= -3010.55326405552     IErMin=11 ErrMin= 2.32D-05
 ErrMax= 2.32D-05  0.00D+00 EMaxC= 1.00D-01 BMatC= 1.82D-07 BMatP= 1.11D-06
 IDIUse=1 WtCom= 1.00D+00 WtEn= 0.00D+00
 Coeff-Com: -0.318D-03 0.443D-03 0.187D-03 0.378D-03-0.354D-03-0.199D-02
 Coeff-Com: -0.164D-01-0.407D-01-0.200D-01 0.217D+00 0.862D+00
 Coeff:     -0.318D-03 0.443D-03 0.187D-03 0.378D-03-0.354D-03-0.199D-02
 Coeff:     -0.164D-01-0.407D-01-0.200D-01 0.217D+00 0.862D+00
 Gap=     0.238 Goal=   None    Shift=    0.000
 RMSDP=3.35D-05 MaxDP=3.19D-03 DE=-1.94D-06 OVMax= 4.43D-04

 Cycle  12  Pass 1  IDiag  1:
 RMSU=  9.21D-06    CP:  1.40D-02  1.98D+00  8.17D-01  5.78D-01  9.45D-01
                    CP:  8.99D-01  1.01D+00  1.02D+00  9.14D-01  1.56D+00
                    CP:  1.31D+00
 E= -3010.55326452261     Delta-E=       -0.000000467090 Rises=F Damp=F
 DIIS: error= 1.03D-05 at cycle  12 NSaved=  12.
 NSaved=12 IEnMin=12 EnMin= -3010.55326452261     IErMin=12 ErrMin= 1.03D-05
 ErrMax= 1.03D-05  0.00D+00 EMaxC= 1.00D-01 BMatC= 4.81D-08 BMatP= 1.82D-07
 IDIUse=1 WtCom= 1.00D+00 WtEn= 0.00D+00
 Coeff-Com: -0.131D-03 0.171D-03-0.651D-04 0.128D-03 0.764D-03 0.134D-02
 Coeff-Com: -0.884D-03-0.897D-02-0.684D-01-0.945D-01 0.295D+00 0.876D+00
 Coeff:     -0.131D-03 0.171D-03-0.651D-04 0.128D-03 0.764D-03 0.134D-02
 Coeff:     -0.884D-03-0.897D-02-0.684D-01-0.945D-01 0.295D+00 0.876D+00
 Gap=     0.238 Goal=   None    Shift=    0.000
 RMSDP=2.25D-05 MaxDP=2.49D-03 DE=-4.67D-07 OVMax= 3.12D-04

 Cycle  13  Pass 1  IDiag  1:
 RMSU=  3.29D-06    CP:  1.40D-02  1.98D+00  8.17D-01  5.78D-01  9.44D-01
                    CP:  8.98D-01  1.01D+00  1.01D+00  8.95D-01  1.68D+00
                    CP:  1.61D+00  1.40D+00
 E= -3010.55326467600     Delta-E=       -0.000000153389 Rises=F Damp=F
 DIIS: error= 7.93D-06 at cycle  13 NSaved=  13.
 NSaved=13 IEnMin=13 EnMin= -3010.55326467600     IErMin=13 ErrMin= 7.93D-06
 ErrMax= 7.93D-06  0.00D+00 EMaxC= 1.00D-01 BMatC= 7.76D-09 BMatP= 4.81D-08
 IDIUse=1 WtCom= 1.00D+00 WtEn= 0.00D+00
 Coeff-Com: -0.117D-04 0.138D-04-0.361D-04-0.275D-04 0.186D-03 0.503D-03
 Coeff-Com:  0.372D-02 0.885D-02-0.222D-03-0.486D-01-0.164D+00 0.114D+00
 Coeff-Com:  0.109D+01
 Coeff:     -0.117D-04 0.138D-04-0.361D-04-0.275D-04 0.186D-03 0.503D-03
 Coeff:      0.372D-02 0.885D-02-0.222D-03-0.486D-01-0.164D+00 0.114D+00
 Coeff:      0.109D+01
 Gap=     0.238 Goal=   None    Shift=    0.000
 RMSDP=1.08D-05 MaxDP=1.07D-03 DE=-1.53D-07 OVMax= 2.00D-04

 Cycle  14  Pass 1  IDiag  1:
 RMSU=  1.80D-06    CP:  1.40D-02  1.98D+00  8.17D-01  5.78D-01  9.44D-01
                    CP:  8.97D-01  1.01D+00  1.00D+00  8.92D-01  1.72D+00
                    CP:  1.75D+00  1.81D+00  1.66D+00
 E= -3010.55326471730     Delta-E=       -0.000000041302 Rises=F Damp=F
 DIIS: error= 2.58D-06 at cycle  14 NSaved=  14.
 NSaved=14 IEnMin=14 EnMin= -3010.55326471730     IErMin=14 ErrMin= 2.58D-06
 ErrMax= 2.58D-06  0.00D+00 EMaxC= 1.00D-01 BMatC= 1.29D-09 BMatP= 7.76D-09
 IDIUse=1 WtCom= 1.00D+00 WtEn= 0.00D+00
 Coeff-Com:  0.192D-04-0.248D-04 0.393D-05-0.346D-04-0.100D-03-0.119D-03
 Coeff-Com:  0.145D-02 0.465D-02 0.136D-01 0.395D-02-0.116D+00-0.136D+00
 Coeff-Com:  0.367D+00 0.862D+00
 Coeff:      0.192D-04-0.248D-04 0.393D-05-0.346D-04-0.100D-03-0.119D-03
 Coeff:      0.145D-02 0.465D-02 0.136D-01 0.395D-02-0.116D+00-0.136D+00
 Coeff:      0.367D+00 0.862D+00
 Gap=     0.238 Goal=   None    Shift=    0.000
 RMSDP=3.05D-06 MaxDP=2.62D-04 DE=-4.13D-08 OVMax= 9.33D-05

 Cycle  15  Pass 1  IDiag  1:
 RMSU=  8.59D-07    CP:  1.40D-02  1.98D+00  8.17D-01  5.78D-01  9.44D-01
                    CP:  8.97D-01  1.01D+00  1.00D+00  8.90D-01  1.72D+00
                    CP:  1.81D+00  1.97D+00  1.98D+00  1.50D+00
 E= -3010.55326472515     Delta-E=       -0.000000007848 Rises=F Damp=F
 DIIS: error= 1.88D-06 at cycle  15 NSaved=  15.
 NSaved=15 IEnMin=15 EnMin= -3010.55326472515     IErMin=15 ErrMin= 1.88D-06
 ErrMax= 1.88D-06  0.00D+00 EMaxC= 1.00D-01 BMatC= 2.83D-10 BMatP= 1.29D-09
 IDIUse=1 WtCom= 1.00D+00 WtEn= 0.00D+00
 Coeff-Com:  0.152D-04-0.205D-04 0.602D-05-0.151D-05-0.445D-04-0.713D-04
 Coeff-Com: -0.574D-03-0.151D-02-0.410D-04 0.847D-02 0.253D-01-0.295D-01
 Coeff-Com: -0.167D+00 0.567D-01 0.111D+01
 Coeff:      0.152D-04-0.205D-04 0.602D-05-0.151D-05-0.445D-04-0.713D-04
 Coeff:     -0.574D-03-0.151D-02-0.410D-04 0.847D-02 0.253D-01-0.295D-01
 Coeff:     -0.167D+00 0.567D-01 0.111D+01
 Gap=     0.238 Goal=   None    Shift=    0.000
 RMSDP=2.80D-06 MaxDP=2.32D-04 DE=-7.85D-09 OVMax= 4.80D-05

 Cycle  16  Pass 1  IDiag  1:
 RMSU=  3.49D-07    CP:  1.40D-02  1.98D+00  8.17D-01  5.78D-01  9.44D-01
                    CP:  8.97D-01  1.01D+00  1.00D+00  8.92D-01  1.73D+00
                    CP:  1.82D+00  2.02D+00  2.14D+00  1.95D+00  1.44D+00
 E= -3010.55326472677     Delta-E=       -0.000000001620 Rises=F Damp=F
 DIIS: error= 7.36D-07 at cycle  16 NSaved=  16.
 NSaved=16 IEnMin=16 EnMin= -3010.55326472677     IErMin=16 ErrMin= 7.36D-07
 ErrMax= 7.36D-07  0.00D+00 EMaxC= 1.00D-01 BMatC= 7.85D-11 BMatP= 2.83D-10
 IDIUse=1 WtCom= 1.00D+00 WtEn= 0.00D+00
 Coeff-Com:  0.632D-05-0.883D-05-0.122D-06 0.251D-05 0.165D-04 0.352D-04
 Coeff-Com: -0.307D-03-0.111D-02-0.312D-02-0.105D-02 0.264D-01 0.249D-01
 Coeff-Com: -0.820D-01-0.180D+00 0.882D-01 0.113D+01
 Coeff:      0.632D-05-0.883D-05-0.122D-06 0.251D-05 0.165D-04 0.352D-04
 Coeff:     -0.307D-03-0.111D-02-0.312D-02-0.105D-02 0.264D-01 0.249D-01
 Coeff:     -0.820D-01-0.180D+00 0.882D-01 0.113D+01
 Gap=     0.238 Goal=   None    Shift=    0.000
 RMSDP=1.39D-06 MaxDP=1.03D-04 DE=-1.62D-09 OVMax= 2.40D-05

 Cycle  17  Pass 1  IDiag  1:
 RMSU=  1.60D-07    CP:  1.40D-02  1.98D+00  8.17D-01  5.78D-01  9.44D-01
                    CP:  8.98D-01  1.01D+00  1.00D+00  8.93D-01  1.73D+00
                    CP:  1.83D+00  2.04D+00  2.21D+00  2.16D+00  1.79D+00
                    CP:  1.40D+00
 E= -3010.55326472710     Delta-E=       -0.000000000327 Rises=F Damp=F
 DIIS: error= 1.65D-07 at cycle  17 NSaved=  17.
 NSaved=17 IEnMin=17 EnMin= -3010.55326472710     IErMin=17 ErrMin= 1.65D-07
 ErrMax= 1.65D-07  0.00D+00 EMaxC= 1.00D-01 BMatC= 1.45D-11 BMatP= 7.85D-11
 IDIUse=1 WtCom= 1.00D+00 WtEn= 0.00D+00
 Coeff-Com:  0.173D-05-0.243D-05-0.855D-06 0.271D-07 0.158D-04 0.292D-04
 Coeff-Com:  0.151D-04-0.921D-04-0.110D-02-0.229D-02 0.435D-02 0.146D-01
 Coeff-Com:  0.645D-02-0.717D-01-0.168D+00 0.380D+00 0.839D+00
 Coeff:      0.173D-05-0.243D-05-0.855D-06 0.271D-07 0.158D-04 0.292D-04
 Coeff:      0.151D-04-0.921D-04-0.110D-02-0.229D-02 0.435D-02 0.146D-01
 Coeff:      0.645D-02-0.717D-01-0.168D+00 0.380D+00 0.839D+00
 Gap=     0.238 Goal=   None    Shift=    0.000
 RMSDP=2.69D-07 MaxDP=2.61D-05 DE=-3.27D-10 OVMax= 6.54D-06

 Cycle  18  Pass 1  IDiag  1:
 RMSU=  4.80D-08    CP:  1.40D-02  1.98D+00  8.17D-01  5.78D-01  9.44D-01
                    CP:  8.98D-01  1.01D+00  1.00D+00  8.93D-01  1.73D+00
                    CP:  1.83D+00  2.04D+00  2.23D+00  2.21D+00  1.90D+00
                    CP:  1.53D+00  1.30D+00
 E= -3010.55326472714     Delta-E=       -0.000000000040 Rises=F Damp=F
 DIIS: error= 7.52D-08 at cycle  18 NSaved=  18.
 NSaved=18 IEnMin=18 EnMin= -3010.55326472714     IErMin=18 ErrMin= 7.52D-08
 ErrMax= 7.52D-08  0.00D+00 EMaxC= 1.00D-01 BMatC= 1.57D-12 BMatP= 1.45D-11
 IDIUse=1 WtCom= 1.00D+00 WtEn= 0.00D+00
 Coeff-Com:  0.440D-07-0.382D-07 0.271D-06-0.242D-06 0.381D-05 0.428D-05
 Coeff-Com:  0.521D-04 0.137D-03 0.162D-03-0.528D-03-0.302D-02 0.165D-03
 Coeff-Com:  0.149D-01 0.109D-01-0.562D-01-0.850D-01 0.163D+00 0.955D+00
 Coeff:      0.440D-07-0.382D-07 0.271D-06-0.242D-06 0.381D-05 0.428D-05
 Coeff:      0.521D-04 0.137D-03 0.162D-03-0.528D-03-0.302D-02 0.165D-03
 Coeff:      0.149D-01 0.109D-01-0.562D-01-0.850D-01 0.163D+00 0.955D+00
 Gap=     0.238 Goal=   None    Shift=    0.000
 RMSDP=8.82D-08 MaxDP=6.71D-06 DE=-3.96D-11 OVMax= 2.43D-06

 Cycle  19  Pass 1  IDiag  1:
 RMSU=  2.30D-08    CP:  1.40D-02  1.98D+00  8.17D-01  5.78D-01  9.44D-01
                    CP:  8.98D-01  1.01D+00  1.00D+00  8.93D-01  1.73D+00
                    CP:  1.83D+00  2.04D+00  2.23D+00  2.22D+00  1.93D+00
                    CP:  1.56D+00  1.45D+00  1.36D+00
 E= -3010.55326472712     Delta-E=        0.000000000020 Rises=F Damp=F
 DIIS: error= 3.13D-08 at cycle  19 NSaved=  19.
 NSaved=19 IEnMin=18 EnMin= -3010.55326472714     IErMin=19 ErrMin= 3.13D-08
 ErrMax= 3.13D-08  0.00D+00 EMaxC= 1.00D-01 BMatC= 2.95D-13 BMatP= 1.57D-12
 IDIUse=1 WtCom= 1.00D+00 WtEn= 0.00D+00
 Coeff-Com: -0.117D-06 0.180D-06 0.213D-06-0.798D-07-0.590D-06-0.233D-05
 Coeff-Com:  0.118D-04 0.488D-04 0.188D-03 0.960D-04-0.148D-02-0.185D-02
 Coeff-Com:  0.202D-02 0.131D-01 0.137D-01-0.689D-01-0.949D-01 0.302D+00
 Coeff-Com:  0.836D+00
 Coeff:     -0.117D-06 0.180D-06 0.213D-06-0.798D-07-0.590D-06-0.233D-05
 Coeff:      0.118D-04 0.488D-04 0.188D-03 0.960D-04-0.148D-02-0.185D-02
 Coeff:      0.202D-02 0.131D-01 0.137D-01-0.689D-01-0.949D-01 0.302D+00
 Coeff:      0.836D+00
 Gap=     0.238 Goal=   None    Shift=    0.000
 RMSDP=6.28D-08 MaxDP=5.38D-06 DE= 2.05D-11 OVMax= 7.40D-07

 Cycle  20  Pass 1  IDiag  1:
 RMSU=  9.19D-09    CP:  1.40D-02  1.98D+00  8.17D-01  5.78D-01  9.44D-01
                    CP:  8.98D-01  1.01D+00  1.00D+00  8.93D-01  1.73D+00
                    CP:  1.83D+00  2.04D+00  2.23D+00  2.22D+00  1.92D+00
                    CP:  1.56D+00  1.48D+00  1.55D+00  1.31D+00
 E= -3010.55326472717     Delta-E=       -0.000000000053 Rises=F Damp=F
 DIIS: error= 1.55D-08 at cycle  20 NSaved=  20.
 NSaved=20 IEnMin=20 EnMin= -3010.55326472717     IErMin=20 ErrMin= 1.55D-08
 ErrMax= 1.55D-08  0.00D+00 EMaxC= 1.00D-01 BMatC= 5.15D-14 BMatP= 2.95D-13
 IDIUse=1 WtCom= 1.00D+00 WtEn= 0.00D+00
 Coeff-Com: -0.123D-06 0.164D-06-0.271D-07 0.844D-07-0.696D-06-0.135D-05
 Coeff-Com: -0.981D-05-0.222D-04 0.456D-05 0.131D-03 0.432D-03-0.204D-03
 Coeff-Com: -0.345D-02-0.194D-03 0.144D-01 0.843D-02-0.593D-01-0.114D+00
 Coeff-Com:  0.105D+00 0.105D+01
 Coeff:     -0.123D-06 0.164D-06-0.271D-07 0.844D-07-0.696D-06-0.135D-05
 Coeff:     -0.981D-05-0.222D-04 0.456D-05 0.131D-03 0.432D-03-0.204D-03
 Coeff:     -0.345D-02-0.194D-03 0.144D-01 0.843D-02-0.593D-01-0.114D+00
 Coeff:      0.105D+00 0.105D+01
 Gap=     0.238 Goal=   None    Shift=    0.000
 RMSDP=2.94D-08 MaxDP=2.92D-06 DE=-5.32D-11 OVMax= 4.56D-07

 Cycle  21  Pass 1  IDiag  1:
 Restarting incremental Fock formation.
 E= -3010.55326472717     Delta-E=       -0.000000000000 Rises=F Damp=F
 DIIS: error= 8.11D-09 at cycle  21 NSaved=  20.
 NSaved=20 IEnMin=20 EnMin= -3010.55326472717     IErMin=20 ErrMin= 8.11D-09
 ErrMax= 8.11D-09  0.00D+00 EMaxC= 1.00D-01 BMatC= 1.65D-14 BMatP= 5.15D-14
 IDIUse=1 WtCom= 1.00D+00 WtEn= 0.00D+00
 Coeff-Com: -0.400D-08-0.318D-07 0.424D-07-0.312D-07 0.590D-07-0.357D-05
 Coeff-Com: -0.145D-04-0.353D-04-0.514D-07 0.336D-03 0.307D-03-0.119D-02
 Coeff-Com: -0.250D-02 0.145D-03 0.175D-01 0.875D-02-0.659D-01-0.183D+00
 Coeff-Com:  0.179D+00 0.105D+01
 Coeff:     -0.400D-08-0.318D-07 0.424D-07-0.312D-07 0.590D-07-0.357D-05
 Coeff:     -0.145D-04-0.353D-04-0.514D-07 0.336D-03 0.307D-03-0.119D-02
 Coeff:     -0.250D-02 0.145D-03 0.175D-01 0.875D-02-0.659D-01-0.183D+00
 Coeff:      0.179D+00 0.105D+01
 Gap=     0.238 Goal=   None    Shift=    0.000
 RMSDP=1.39D-08 MaxDP=1.43D-06 DE=-4.55D-13 OVMax= 2.11D-07

 Cycle  22  Pass 1  IDiag  1:
 RMSU=  1.12D-08    CP:  1.00D+00
 E= -3010.55326472717     Delta-E=        0.000000000000 Rises=F Damp=F
 DIIS: error= 4.46D-09 at cycle  22 NSaved=  20.
 NSaved=20 IEnMin=19 EnMin= -3010.55326472717     IErMin=20 ErrMin= 4.46D-09
 ErrMax= 4.46D-09  0.00D+00 EMaxC= 1.00D-01 BMatC= 2.21D-15 BMatP= 1.65D-14
 IDIUse=1 WtCom= 1.00D+00 WtEn= 0.00D+00
 Large coefficients: NSaved= 20 BigCof=    0.00 CofMax=   10.00 Det=-5.58D-15
 Inversion failed.  Reducing to 19 matrices.
 Large coefficients: NSaved= 19 BigCof=    0.00 CofMax=   10.00 Det=-5.71D-15
 Inversion failed.  Reducing to 18 matrices.
 Large coefficients: NSaved= 18 BigCof=    0.00 CofMax=   10.00 Det=-6.15D-15
 Inversion failed.  Reducing to 17 matrices.
 Large coefficients: NSaved= 17 BigCof=    0.00 CofMax=   10.00 Det=-6.33D-15
 Inversion failed.  Reducing to 16 matrices.
 Large coefficients: NSaved= 16 BigCof=    0.00 CofMax=   10.00 Det=-6.34D-15
 Inversion failed.  Reducing to 15 matrices.
 Coeff-Com: -0.221D-05-0.893D-05-0.427D-05 0.474D-04 0.127D-03 0.169D-03
 Coeff-Com: -0.551D-03-0.235D-02 0.212D-02 0.960D-02 0.130D-02-0.590D-01
 Coeff-Com: -0.137D+00 0.279D+00 0.907D+00
 Coeff:     -0.221D-05-0.893D-05-0.427D-05 0.474D-04 0.127D-03 0.169D-03
 Coeff:     -0.551D-03-0.235D-02 0.212D-02 0.960D-02 0.130D-02-0.590D-01
 Coeff:     -0.137D+00 0.279D+00 0.907D+00
 Gap=     0.238 Goal=   None    Shift=    0.000
 RMSDP=4.82D-09 MaxDP=2.97D-07 DE= 4.55D-13 OVMax= 1.12D-07

 SCF Done:  E(RwB97XD) =  -3010.55326473     A.U. after   22 cycles
            NFock= 22  Conv=0.48D-08     -V/T= 2.0016
 KE= 3.005853605842D+03 PE=-8.703755704964D+03 EE= 1.910863395102D+03
 Leave Link  502 at Thu May  2 14:21:47 2024, MaxMem=   134217728 cpu:            1346.7 elap:            1347.0
 (Enter /software/gaussian/g16-c01/sse4/g16/l601.exe)
 Copying SCF densities to generalized density rwf, IOpCl= 0 IROHF=0.

 **********************************************************************

            Population analysis using the SCF Density.

 **********************************************************************

 Alpha  occ. eigenvalues -- -483.36496 -62.91574 -56.71182 -56.70731 -56.70727
 Alpha  occ. eigenvalues --  -19.47169 -19.47079 -14.86609 -10.61088 -10.61038
 Alpha  occ. eigenvalues --  -10.59202 -10.59148 -10.55199 -10.54473  -9.07418
 Alpha  occ. eigenvalues --   -6.89865  -6.88350  -6.88345  -2.99823  -2.99414
 Alpha  occ. eigenvalues --   -2.99410  -2.98195  -2.98195  -1.50800  -1.33740
 Alpha  occ. eigenvalues --   -1.24657  -1.15930  -1.14252  -1.08473  -1.02279
 Alpha  occ. eigenvalues --   -0.97354  -0.92361  -0.86264  -0.82405  -0.81713
 Alpha  occ. eigenvalues --   -0.81272  -0.79578  -0.77569  -0.77117  -0.74914
 Alpha  occ. eigenvalues --   -0.70455  -0.69438  -0.66207  -0.63983  -0.62280
 Alpha  occ. eigenvalues --   -0.58851  -0.58180  -0.56905  -0.56635
 Alpha virt. eigenvalues --   -0.32811  -0.24717  -0.21758  -0.19574  -0.17520
 Alpha virt. eigenvalues --   -0.16084  -0.14470  -0.12075  -0.10426  -0.09840
 Alpha virt. eigenvalues --   -0.06863  -0.06424  -0.04495  -0.03783  -0.02976
 Alpha virt. eigenvalues --   -0.02373  -0.00749   0.00525   0.01317   0.01741
 Alpha virt. eigenvalues --    0.03341   0.04054   0.04311   0.05134   0.06288
 Alpha virt. eigenvalues --    0.07141   0.07610   0.08067   0.08457   0.09239
 Alpha virt. eigenvalues --    0.09819   0.10762   0.11083   0.11700   0.12655
 Alpha virt. eigenvalues --    0.13232   0.13496   0.14516   0.15286   0.15864
 Alpha virt. eigenvalues --    0.16504   0.17754   0.18154   0.18355   0.18851
 Alpha virt. eigenvalues --    0.19891   0.20791   0.21754   0.22536   0.22891
 Alpha virt. eigenvalues --    0.23826   0.24722   0.26501   0.28146   0.28574
 Alpha virt. eigenvalues --    0.30131   0.32700   0.32935   0.33850   0.34810
 Alpha virt. eigenvalues --    0.36146   0.37565   0.37740   0.38690   0.40128
 Alpha virt. eigenvalues --    0.42895   0.43594   0.44457   0.45708   0.46847
 Alpha virt. eigenvalues --    0.47259   0.48083   0.48911   0.49939   0.52391
 Alpha virt. eigenvalues --    0.53156   0.54821   0.56593   0.57162   0.58615
 Alpha virt. eigenvalues --    0.59582   0.60851   0.62103   0.64137   0.66676
 Alpha virt. eigenvalues --    0.69953   0.70259   0.71961   0.72382   0.73116
 Alpha virt. eigenvalues --    0.73628   0.76480   0.78750   0.79419   0.83560
 Alpha virt. eigenvalues --    0.84865   0.86641   0.90291   0.92256   0.97649
 Alpha virt. eigenvalues --    0.99144   1.00859   1.02417   1.04036   1.05720
 Alpha virt. eigenvalues --    1.07435   1.11822   1.12541   1.13131   1.16805
 Alpha virt. eigenvalues --    1.20248   1.21955   1.26716   1.31792   1.34811
 Alpha virt. eigenvalues --    1.35356   1.37443   1.40905   1.53073   1.55284
 Alpha virt. eigenvalues --    1.56057   1.58530   1.59770   1.62551   1.63842
 Alpha virt. eigenvalues --    1.66903   1.69669   1.72867   1.73842   1.77769
 Alpha virt. eigenvalues --    1.82458   1.83745   1.85658   1.89185   1.91547
 Alpha virt. eigenvalues --    1.96360   1.99938   2.01390   2.05120   2.06342
 Alpha virt. eigenvalues --    2.10580   2.12762   2.20903   2.22543   2.26063
 Alpha virt. eigenvalues --    2.32089   2.38707   2.40410   2.43124   2.51685
 Alpha virt. eigenvalues --    2.56698   2.61706   2.64374   2.67221   2.70868
 Alpha virt. eigenvalues --    2.72565   2.75414   2.76175   2.79288   2.80470
 Alpha virt. eigenvalues --    2.91272   2.96659   3.00099   3.04027   3.07294
 Alpha virt. eigenvalues --    3.13299   3.14884   3.16146   3.21505   3.25594
 Alpha virt. eigenvalues --    3.26534   3.36745   3.45020   3.48808   3.53666
 Alpha virt. eigenvalues --    3.56210   3.68011   3.73354   3.81938   3.85573
 Alpha virt. eigenvalues --    4.04318   4.05112   4.14264   4.18209   4.38252
 Alpha virt. eigenvalues --    4.44217   4.52827   4.58714   4.92767   4.95664
 Alpha virt. eigenvalues --    5.04441   5.08974   5.61134   6.14366   6.62495
 Alpha virt. eigenvalues --    7.43045   7.45459   7.55822  23.20277  23.59569
 Alpha virt. eigenvalues --   23.69163  23.76068  23.93991  24.00412  35.30556
 Alpha virt. eigenvalues --   47.88742  49.84345  49.93011 289.76425 289.78772
 Alpha virt. eigenvalues --  289.914541020.90000
          Condensed to atoms (all electrons):
               1          2          3          4          5          6
     1  C    8.774280  -3.346746   1.560932  -0.395628   0.314288   0.036122
     2  C   -3.346746  20.833426  -7.372506   0.988430  -0.046775   0.174825
     3  C    1.560932  -7.372506  22.753346  -2.054344   0.060389   0.137384
     4  C   -0.395628   0.988430  -2.054344   6.845387  -0.008596  -0.017936
     5  H    0.314288  -0.046775   0.060389  -0.008596   0.321592  -0.001386
     6  H    0.036122   0.174825   0.137384  -0.017936  -0.001386   0.303460
     7  H    0.007612  -0.016004   0.025804   0.332080  -0.002488  -0.000007
     8  N   -0.183369   0.849353  -2.102018   0.041637  -0.000948  -0.032998
     9  O   -0.052448   0.141273  -0.493685  -0.000017  -0.000049  -0.002182
    10  O    0.269322  -0.711060   0.210452  -0.043773   0.000135   0.022275
    11  C    1.287744  -2.176598   2.383096  -0.587921  -0.023052   0.011051
    12  H   -0.012997   0.008652   0.013935  -0.003623   0.000025  -0.000021
    13  C   -2.097772  -3.384378  -8.692349   1.120270   0.030010   0.007805
    14  H   -0.001200   0.020996   0.059246   0.004248  -0.000024   0.000015
    15  Br  -0.123301  -0.017381  -0.384544   0.160709   0.000185  -0.000628
               7          8          9         10         11         12
     1  C    0.007612  -0.183369  -0.052448   0.269322   1.287744  -0.012997
     2  C   -0.016004   0.849353   0.141273  -0.711060  -2.176598   0.008652
     3  C    0.025804  -2.102018  -0.493685   0.210452   2.383096   0.013935
     4  C    0.332080   0.041637  -0.000017  -0.043773  -0.587921  -0.003623
     5  H   -0.002488  -0.000948  -0.000049   0.000135  -0.023052   0.000025
     6  H   -0.000007  -0.032998  -0.002182   0.022275   0.011051  -0.000021
     7  H    0.325104   0.000043   0.000018  -0.000025   0.019964  -0.001801
     8  N    0.000043   7.838716   0.150208  -0.015802  -0.261467   0.000117
     9  O    0.000018   0.150208   7.802420   0.003928   0.184555   0.000069
    10  O   -0.000025  -0.015802   0.003928   7.941363   0.058295   0.000010
    11  C    0.019964  -0.261467   0.184555   0.058295   9.398793   0.321976
    12  H   -0.001801   0.000117   0.000069   0.000010   0.321976   0.303770
    13  C   -0.036353   0.827085   0.194959   0.193220  -4.287886   0.004413
    14  H    0.000029  -0.014021  -0.002016  -0.001893  -0.025307  -0.002376
    15  Br  -0.000126   0.092161  -0.022117  -0.006453  -0.190034  -0.003175
              13         14         15
     1  C   -2.097772  -0.001200  -0.123301
     2  C   -3.384378   0.020996  -0.017381
     3  C   -8.692349   0.059246  -0.384544
     4  C    1.120270   0.004248   0.160709
     5  H    0.030010  -0.000024   0.000185
     6  H    0.007805   0.000015  -0.000628
     7  H   -0.036353   0.000029  -0.000126
     8  N    0.827085  -0.014021   0.092161
     9  O    0.194959  -0.002016  -0.022117
    10  O    0.193220  -0.001893  -0.006453
    11  C   -4.287886  -0.025307  -0.190034
    12  H    0.004413  -0.002376  -0.003175
    13  C   21.666483   0.249245   0.439910
    14  H    0.249245   0.222015  -0.013489
    15  Br   0.439910  -0.013489  35.179016
 Mulliken charges:
               1
     1  C   -0.036841
     2  C    0.054491
     3  C   -0.105139
     4  C   -0.380924
     5  H    0.356694
     6  H    0.362221
     7  H    0.346149
     8  N   -0.188696
     9  O    0.095084
    10  O    0.080006
    11  C   -0.113207
    12  H    0.371028
    13  C   -0.234663
    14  H    0.504532
    15  Br  -0.110734
 Sum of Mulliken charges =   1.00000
 Mulliken charges with hydrogens summed into heavy atoms:
               1
     1  C    0.319853
     2  C    0.416712
     3  C   -0.105139
     4  C   -0.034775
     8  N   -0.188696
     9  O    0.095084
    10  O    0.080006
    11  C    0.257820
    13  C    0.269869
    15  Br  -0.110734
 Electronic spatial extent (au):  <R**2>=           3953.1139
 Charge=              1.0000 electrons
 Dipole moment (field-independent basis, Debye):
    X=              2.4120    Y=              0.2204    Z=              4.5114  Tot=              5.1205
 Quadrupole moment (field-independent basis, Debye-Ang):
   XX=            -67.7488   YY=            -53.0426   ZZ=            -69.7658
   XY=             -0.7530   XZ=              8.2626   YZ=             -2.6985
 Traceless Quadrupole moment (field-independent basis, Debye-Ang):
   XX=             -4.2297   YY=             10.4765   ZZ=             -6.2467
   XY=             -0.7530   XZ=              8.2626   YZ=             -2.6985
 Octapole moment (field-independent basis, Debye-Ang**2):
  XXX=           -509.0609  YYY=            101.2070  ZZZ=            112.7649  XYY=           -141.7798
  XXY=             29.3273  XXZ=             59.2630  XZZ=           -149.0546  YZZ=             32.1120
  YYZ=             43.0632  XYZ=             -3.4339
 Hexadecapole moment (field-independent basis, Debye-Ang**3):
 XXXX=          -3413.8645 YYYY=           -724.9343 ZZZZ=           -476.3132 XXXY=            189.6288
 XXXZ=            301.4939 YYYX=            204.9271 YYYZ=           -206.1674 ZZZX=            230.2900
 ZZZY=           -192.0312 XXYY=           -636.4695 XXZZ=           -568.4291 YYZZ=           -208.0155
 XXYZ=            -70.5612 YYXZ=             86.6433 ZZXY=             61.4110
 N-N= 7.764854392921D+02 E-N=-8.703755705291D+03  KE= 3.005853605842D+03
 No NMR shielding tensors so no spin-rotation constants.
 Leave Link  601 at Thu May  2 14:21:55 2024, MaxMem=   134217728 cpu:               7.3 elap:               7.3
 (Enter /software/gaussian/g16-c01/sse4/g16/l9999.exe)
 Unable to Open any file for archive entry.
 1\1\GINC-BHX0014\SP\RwB97XD\6-311+G(d)\C6H5Br1N1O2(1+)\BWEIGHT\02-May-
 2024\0\\#P wB97XD/6-311+G* NoSymm #P Field=Z-291\\TitleMe\\1,1\C,0,0.5
 193,1.233,-0.0319\C,0,1.9445,1.2692,-0.0367\C,0,2.6204,0.0928,-0.025\C
 ,0,-0.196,0.0301,0.001\H,0,-0.0207,2.1742,-0.0434\H,0,2.4828,2.2089,-0
 .0361\H,0,-1.2777,0.0399,0.0117\N,0,4.0921,0.0959,0.0366\O,0,4.6393,-1
 .0217,0.1446\O,0,4.6649,1.1984,-0.0233\C,0,0.4943,-1.1671,0.021\H,0,-0
 .0325,-2.1149,0.0545\C,0,1.9629,-1.2165,-0.0211\H,0,2.4436,-1.9631,0.6
 151\Br,0,2.173,-1.9491,-1.9062\\Version=ES64L-G16RevC.01\HF=-3010.5532
 647\RMSD=4.818e-09\Dipole=-3.3802601,1.3148322,3.0241417\Quadrupole=-3
 .1447026,7.7889874,-4.6442849,-0.5598351,6.1430409,-2.006302\PG=C01 [X
 (C6H5Br1N1O2)]\\@
 The archive entry for this job was punched.


 THERE IS SOMETHING FASCINATING ABOUT SCIENCE.
 ONE GETS SUCH WHOLESALE CONJECTURE OUT OF SUCH TRIFLING INVESTMENTS.

                                                       -- MARK TWAIN
 Job cpu time:       0 days  0 hours 23 minutes 37.1 seconds.
 Elapsed time:       0 days  0 hours 23 minutes 37.5 seconds.
 File lengths (MBytes):  RWF=     40 Int=      0 D2E=      0 Chk=     32 Scr=      1
 Normal termination of Gaussian 16 at Thu May  2 14:21:55 2024.
