 Entering Gaussian System, Link 0=g16
 Initial command:
 /software/gaussian/g16-c01/sse4/g16/l1.exe "/local_scratch/24665324/Gau-3124.inp" -scrdir="/local_scratch/24665324/"
 Entering Link 1 = /software/gaussian/g16-c01/sse4/g16/l1.exe PID=      3152.
  
 Copyright (c) 1988-2019, Gaussian, Inc.  All Rights Reserved.
  
 This is part of the Gaussian(R) 16 program.  It is based on
 the Gaussian(R) 09 system (copyright 2009, Gaussian, Inc.),
 the Gaussian(R) 03 system (copyright 2003, Gaussian, Inc.),
 the Gaussian(R) 98 system (copyright 1998, Gaussian, Inc.),
 the Gaussian(R) 94 system (copyright 1995, Gaussian, Inc.),
 the Gaussian 92(TM) system (copyright 1992, Gaussian, Inc.),
 the Gaussian 90(TM) system (copyright 1990, Gaussian, Inc.),
 the Gaussian 88(TM) system (copyright 1988, Gaussian, Inc.),
 the Gaussian 86(TM) system (copyright 1986, Carnegie Mellon
 University), and the Gaussian 82(TM) system (copyright 1983,
 Carnegie Mellon University). Gaussian is a federally registered
 trademark of Gaussian, Inc.
  
 This software contains proprietary and confidential information,
 including trade secrets, belonging to Gaussian, Inc.
  
 This software is provided under written license and may be
 used, copied, transmitted, or stored only in accord with that
 written license.
  
 The following legend is applicable only to US Government
 contracts under FAR:
  
                    RESTRICTED RIGHTS LEGEND
  
 Use, reproduction and disclosure by the US Government is
 subject to restrictions as set forth in subparagraphs (a)
 and (c) of the Commercial Computer Software - Restricted
 Rights clause in FAR 52.227-19.
  
 Gaussian, Inc.
 340 Quinnipiac St., Bldg. 40, Wallingford CT 06492
  
  
 ---------------------------------------------------------------
 Warning -- This program may not be used in any manner that
 competes with the business of Gaussian, Inc. or will provide
 assistance to any competitor of Gaussian, Inc.  The licensee
 of this program is prohibited from giving any competitor of
 Gaussian, Inc. access to this program.  By using this program,
 the user acknowledges that Gaussian, Inc. is engaged in the
 business of creating and licensing software in the field of
 computational chemistry and represents and warrants to the
 licensee that it is not a competitor of Gaussian, Inc. and that
 it will not use this program in any manner prohibited above.
 ---------------------------------------------------------------
  

 Cite this work as:
 Gaussian 16, Revision C.01,
 M. J. Frisch, G. W. Trucks, H. B. Schlegel, G. E. Scuseria, 
 M. A. Robb, J. R. Cheeseman, G. Scalmani, V. Barone, 
 G. A. Petersson, H. Nakatsuji, X. Li, M. Caricato, A. V. Marenich, 
 J. Bloino, B. G. Janesko, R. Gomperts, B. Mennucci, H. P. Hratchian, 
 J. V. Ortiz, A. F. Izmaylov, J. L. Sonnenberg, D. Williams-Young, 
 F. Ding, F. Lipparini, F. Egidi, J. Goings, B. Peng, A. Petrone, 
 T. Henderson, D. Ranasinghe, V. G. Zakrzewski, J. Gao, N. Rega, 
 G. Zheng, W. Liang, M. Hada, M. Ehara, K. Toyota, R. Fukuda, 
 J. Hasegawa, M. Ishida, T. Nakajima, Y. Honda, O. Kitao, H. Nakai, 
 T. Vreven, K. Throssell, J. A. Montgomery, Jr., J. E. Peralta, 
 F. Ogliaro, M. J. Bearpark, J. J. Heyd, E. N. Brothers, K. N. Kudin, 
 V. N. Staroverov, T. A. Keith, R. Kobayashi, J. Normand, 
 K. Raghavachari, A. P. Rendell, J. C. Burant, S. S. Iyengar, 
 J. Tomasi, M. Cossi, J. M. Millam, M. Klene, C. Adamo, R. Cammi, 
 J. W. Ochterski, R. L. Martin, K. Morokuma, O. Farkas, 
 J. B. Foresman, and D. J. Fox, Gaussian, Inc., Wallingford CT, 2019.
 
 ******************************************
 Gaussian 16:  ES64L-G16RevC.01  3-Jul-2019
                 2-May-2024 
 ******************************************
 %chk=geometry.chk
 %mem=1GB
 %nprocshared=12
 Will use up to   12 processors via shared memory.
 --------------------------------------
 #P wB97XD/6-311+G* NoSymm #P Field=Y+9
 --------------------------------------
 1/38=1,172=1/1;
 2/12=2,15=1,17=6,18=5,40=1/2;
 3/5=4,6=6,7=11,11=2,14=2,15=9,25=1,30=1,74=-58/1,2,3;
 4//1;
 5/5=2,38=5/2;
 6/7=2,8=2,9=2,10=2,28=1/1;
 99/5=1,9=1/99;
 Leave Link    1 at Thu May  2 13:57:43 2024, MaxMem=   134217728 cpu:               2.0 elap:               2.0
 (Enter /software/gaussian/g16-c01/sse4/g16/l101.exe)
 -------
 TitleMe
 -------
 Symbolic Z-matrix:
 Charge =  1 Multiplicity = 1
 C                     0.5193    1.233    -0.0319 
 C                     1.9445    1.2692   -0.0367 
 C                     2.6204    0.0928   -0.025 
 C                    -0.196     0.0301    0.001 
 H                    -0.0207    2.1742   -0.0434 
 H                     2.4828    2.2089   -0.0361 
 H                    -1.2777    0.0399    0.0117 
 N                     4.0921    0.0959    0.0366 
 O                     4.6393   -1.0217    0.1446 
 O                     4.6649    1.1984   -0.0233 
 C                     0.4943   -1.1671    0.021 
 H                    -0.0325   -2.1149    0.0545 
 C                     1.9629   -1.2165   -0.0211 
 H                     2.4436   -1.9631    0.6151 
 Br                    2.173    -1.9491   -1.9062 
 
 ITRead=  0  0  0  0  0  0  0  0  0  0  0  0  0  0  0
 MicOpt= -1 -1 -1 -1 -1 -1 -1 -1 -1 -1 -1 -1 -1 -1 -1
 NAtoms=     15 NQM=       15 NQMF=       0 NMMI=      0 NMMIF=      0
                NMic=       0 NMicF=      0.
                    Isotopes and Nuclear Properties:
 (Nuclear quadrupole moments (NQMom) in fm**2, nuclear magnetic moments (NMagM)
  in nuclear magnetons)

  Atom         1           2           3           4           5           6           7           8           9          10
 IAtWgt=          12          12          12          12           1           1           1          14          16          16
 AtmWgt=  12.0000000  12.0000000  12.0000000  12.0000000   1.0078250   1.0078250   1.0078250  14.0030740  15.9949146  15.9949146
 NucSpn=           0           0           0           0           1           1           1           2           0           0
 AtZEff=  -0.0000000  -0.0000000  -0.0000000  -0.0000000  -0.0000000  -0.0000000  -0.0000000  -0.0000000  -0.0000000  -0.0000000
 NQMom=    0.0000000   0.0000000   0.0000000   0.0000000   0.0000000   0.0000000   0.0000000   2.0440000   0.0000000   0.0000000
 NMagM=    0.0000000   0.0000000   0.0000000   0.0000000   2.7928460   2.7928460   2.7928460   0.4037610   0.0000000   0.0000000
 AtZNuc=   6.0000000   6.0000000   6.0000000   6.0000000   1.0000000   1.0000000   1.0000000   7.0000000   8.0000000   8.0000000

  Atom        11          12          13          14          15
 IAtWgt=          12           1          12           1          79
 AtmWgt=  12.0000000   1.0078250  12.0000000   1.0078250  78.9183361
 NucSpn=           0           1           0           1           3
 AtZEff=  -0.0000000  -0.0000000  -0.0000000  -0.0000000  -0.0000000
 NQMom=    0.0000000   0.0000000   0.0000000   0.0000000  31.3000000
 NMagM=    0.0000000   2.7928460   0.0000000   2.7928460   2.1063990
 AtZNuc=   6.0000000   1.0000000   6.0000000   1.0000000  35.0000000
 Leave Link  101 at Thu May  2 13:57:45 2024, MaxMem=   134217728 cpu:               1.5 elap:               1.5
 (Enter /software/gaussian/g16-c01/sse4/g16/l202.exe)
                          Input orientation:                          
 ---------------------------------------------------------------------
 Center     Atomic      Atomic             Coordinates (Angstroms)
 Number     Number       Type             X           Y           Z
 ---------------------------------------------------------------------
      1          6           0        0.519300    1.233000   -0.031900
      2          6           0        1.944500    1.269200   -0.036700
      3          6           0        2.620400    0.092800   -0.025000
      4          6           0       -0.196000    0.030100    0.001000
      5          1           0       -0.020700    2.174200   -0.043400
      6          1           0        2.482800    2.208900   -0.036100
      7          1           0       -1.277700    0.039900    0.011700
      8          7           0        4.092100    0.095900    0.036600
      9          8           0        4.639300   -1.021700    0.144600
     10          8           0        4.664900    1.198400   -0.023300
     11          6           0        0.494300   -1.167100    0.021000
     12          1           0       -0.032500   -2.114900    0.054500
     13          6           0        1.962900   -1.216500   -0.021100
     14          1           0        2.443600   -1.963100    0.615100
     15         35           0        2.173000   -1.949100   -1.906200
 ---------------------------------------------------------------------
                    Distance matrix (angstroms):
                    1          2          3          4          5
     1  C    0.000000
     2  C    1.425668   0.000000
     3  C    2.390549   1.356796   0.000000
     4  C    1.399895   2.473566   2.817218   0.000000
     5  H    1.085168   2.163581   3.362733   2.151712   0.000000
     6  H    2.192654   1.082960   2.120598   3.453189   2.503751
     7  H    2.157452   3.449071   3.898632   1.081797   2.477564
     8  N    3.750012   2.448304   1.472992   4.288753   4.608780
     9  O    4.699917   3.541615   2.312322   4.950458   5.653735
    10  O    4.145753   2.721354   2.324292   4.999386   4.786171
    11  C    2.400813   2.835836   2.471794   1.382101   3.381369
    12  H    3.394169   3.920329   3.452266   2.151887   4.290233
    13  C    2.843264   2.485817   1.465124   2.493060   3.928360
    14  H    3.786370   3.334922   2.160489   3.364142   4.860416
    15  Br   4.046416   3.728900   2.812194   3.628609   5.028314
                    6          7          8          9         10
     6  H    0.000000
     7  H    4.341452   0.000000
     8  N    2.657047   5.370150   0.000000
     9  O    3.888434   6.012948   1.249048   0.000000
    10  O    2.404752   6.054572   1.243863   2.226587   0.000000
    11  C    3.918516   2.144043   3.813080   4.149391   4.794941
    12  H    5.003018   2.489080   4.679774   4.798846   5.748876
    13  C    3.464662   3.475788   2.501842   2.688591   3.623886
    14  H    4.222698   4.268978   2.700314   2.434893   3.916224
    15  Br   4.569706   4.420610   3.411663   3.338935   4.434144
                   11         12         13         14         15
    11  C    0.000000
    12  H    1.084880   0.000000
    13  C    1.470034   2.189625   0.000000
    14  H    2.187771   2.543302   1.092353   0.000000
    15  Br   2.672762   2.955683   2.033334   2.535818   0.000000
 Symmetry turned off by external request.
 Stoichiometry    C6H5BrNO2(1+)
 Framework group  C1[X(C6H5BrNO2)]
 Deg. of freedom    39
 Full point group                 C1      NOp   1
 Rotational constants (GHZ):           1.1632986           0.9594224           0.5957624
 Leave Link  202 at Thu May  2 13:57:46 2024, MaxMem=   134217728 cpu:               1.3 elap:               1.3
 (Enter /software/gaussian/g16-c01/sse4/g16/l301.exe)
 Standard basis: 6-311+G(d) (5D, 7F)
 Ernie: Thresh=  0.10000D-02 Tol=  0.10000D-05 Strict=F.
 The following finite field(s) will be applied:
 An electric field of              0.0000  0.0009  0.0000
   261 basis functions,   443 primitive gaussians,   273 cartesian basis functions
    49 alpha electrons       49 beta electrons
       nuclear repulsion energy       772.8945969580 Hartrees.
 IExCor= 4639 DFT=T Ex+Corr=wB97XD ExCW=0 ScaHFX=  1.000000
 ScaDFX=  1.000000  1.000000  1.000000  1.000000 ScalE2=  1.000000  1.000000
 IRadAn=      5 IRanWt=     -1 IRanGd=            0 ICorTp=0 IEmpDi=121
 HFx  wShort=  0.000000 wLong=  0.200000 cFull=  0.222036 cShort=  0.000000 cLong=  0.777964
 DFx  wShort=  0.000000 wLong=  0.200000 cFull=  0.000000 cShort=  0.000000 cLong=  1.000000
 NAtoms=   15 NActive=   15 NUniq=   15 SFac= 1.00D+00 NAtFMM=   60 NAOKFM=F Big=F
 Integral buffers will be    131072 words long.
 Raffenetti 2 integral format.
 Two-electron integral symmetry is turned off.
 R6Disp:  Grimme-D2 Dispersion energy=       -0.0080346408 Hartrees.
 Nuclear repulsion after empirical dispersion term =      772.8865623173 Hartrees.
 Leave Link  301 at Thu May  2 13:57:48 2024, MaxMem=   134217728 cpu:               1.0 elap:               1.2
 (Enter /software/gaussian/g16-c01/sse4/g16/l302.exe)
 NPDir=0 NMtPBC=     1 NCelOv=     1 NCel=       1 NClECP=     1 NCelD=      1
         NCelK=      1 NCelE2=     1 NClLst=     1 CellRange=     0.0.
 One-electron integrals computed using PRISM.
 NBasis=   261 RedAO= T EigKep=  2.52D-06  NBF=   261
 NBsUse=   261 1.00D-06 EigRej= -1.00D+00 NBFU=   261
 Precomputing XC quadrature grid using
 IXCGrd= 4 IRadAn=           5 IRanWt=          -1 IRanGd=           0 AccXCQ= 0.00D+00.
 Generated NRdTot=       0 NPtTot=           0 NUsed=           0 NTot=          32
 NSgBfM=   273   273   273   273   273 MxSgAt=    15 MxSgA2=    15.
 Leave Link  302 at Thu May  2 13:58:10 2024, MaxMem=   134217728 cpu:              21.9 elap:              22.0
 (Enter /software/gaussian/g16-c01/sse4/g16/l303.exe)
 DipDrv:  MaxL=1.
 The nuclear repulsion energy is now       772.7771365166 hartrees.
 Leave Link  303 at Thu May  2 13:58:13 2024, MaxMem=   134217728 cpu:               3.2 elap:               3.2
 (Enter /software/gaussian/g16-c01/sse4/g16/l401.exe)
 ExpMin= 3.50D-02 ExpMax= 4.40D+05 ExpMxC= 1.51D+04 IAcc=3 IRadAn=         5 AccDes= 0.00D+00
 Harris functional with IExCor= 4639 and IRadAn=       5 diagonalized for initial guess.
 HarFok:  IExCor= 4639 AccDes= 0.00D+00 IRadAn=         5 IDoV= 1 UseB2=F ITyADJ=14
 ICtDFT=  3500011 ScaDFX=  1.000000  1.000000  1.000000  1.000000
 FoFCou: FMM=F IPFlag=           0 FMFlag=      100000 FMFlg1=           0
         NFxFlg=           0 DoJE=T BraDBF=F KetDBF=T FulRan=T
         wScrn=  0.000000 ICntrl=       500 IOpCl=  0 I1Cent=   200000004 NGrid=           0
         NMat0=    1 NMatS0=      1 NMatT0=    0 NMatD0=    1 NMtDS0=    0 NMtDT0=    0
 Symmetry not used in FoFCou.
 Harris En= -2970.60034372744    
 JPrj=0 DoOrth=F DoCkMO=F.
 Leave Link  401 at Thu May  2 13:58:45 2024, MaxMem=   134217728 cpu:              31.5 elap:              31.6
 (Enter /software/gaussian/g16-c01/sse4/g16/l502.exe)
 Two-electron integral symmetry not used.
 Closed shell SCF:
 Using DIIS extrapolation, IDIIS=  1040.
 NGot=   134217728 LenX=   134063053 LenY=   133988083
 Requested convergence on RMS density matrix=1.00D-08 within 128 cycles.
 Requested convergence on MAX density matrix=1.00D-06.
 Requested convergence on             energy=1.00D-06.
 No special actions if energy rises.
 Fock matrices will be formed incrementally for  20 cycles.

 Cycle   1  Pass 1  IDiag  1:
 FoFJK:  IHMeth= 1 ICntrl=       0 DoSepK=T KAlg= 0 I1Cent=           0 FoldK=F
 IRaf=         1 NMat=       1 IRICut=       1 DoRegI=T DoRafI=F ISym2E= 0 IDoP0=0 IntGTp=1.
 FoFCou: FMM=F IPFlag=           0 FMFlag=      100000 FMFlg1=           0
         NFxFlg=           0 DoJE=T BraDBF=F KetDBF=F FulRan=T
         wScrn=  0.000000 ICntrl=       500 IOpCl=  0 I1Cent=           0 NGrid=           0
         NMat0=    1 NMatS0=      1 NMatT0=    0 NMatD0=    1 NMtDS0=    0 NMtDT0=    0
 Symmetry not used in FoFCou.
 E= -3009.69882906439    
 DIIS: error= 2.90D-01 at cycle   1 NSaved=   1.
 NSaved= 1 IEnMin= 1 EnMin= -3009.69882906439     IErMin= 1 ErrMin= 2.90D-01
 ErrMax= 2.90D-01  0.00D+00 EMaxC= 1.00D-01 BMatC= 1.20D+01 BMatP= 1.20D+01
 IDIUse=3 WtCom= 0.00D+00 WtEn= 1.00D+00
 Coeff-Com:  0.100D+01
 Coeff-En:   0.100D+01
 Coeff:      0.100D+01
 Gap=     0.318 Goal=   None    Shift=    0.000
 GapD=    0.318 DampG=1.000 DampE=0.250 DampFc=0.2500 IDamp=-1.
 Damping current iteration by 2.50D-01
 RMSDP=4.20D-02 MaxDP=4.17D+00              OVMax= 2.60D-01

 Cycle   2  Pass 1  IDiag  1:
 RMSU=  5.50D-03    CP:  9.17D-01
 E= -3009.99050373458     Delta-E=       -0.291674670191 Rises=F Damp=T
 DIIS: error= 2.19D-01 at cycle   2 NSaved=   2.
 NSaved= 2 IEnMin= 2 EnMin= -3009.99050373458     IErMin= 2 ErrMin= 2.19D-01
 ErrMax= 2.19D-01  0.00D+00 EMaxC= 1.00D-01 BMatC= 5.46D+00 BMatP= 1.20D+01
 IDIUse=3 WtCom= 0.00D+00 WtEn= 1.00D+00
 Coeff-Com: -0.183D+01 0.283D+01
 Coeff-En:   0.000D+00 0.100D+01
 Coeff:      0.000D+00 0.100D+01
 Gap=     0.269 Goal=   None    Shift=    0.000
 RMSDP=3.36D-02 MaxDP=3.41D+00 DE=-2.92D-01 OVMax= 7.14D-02

 Cycle   3  Pass 1  IDiag  1:
 RMSU=  5.02D-03    CP:  6.29D-01  3.00D+00
 E= -3010.37606222505     Delta-E=       -0.385558490473 Rises=F Damp=F
 DIIS: error= 6.60D-02 at cycle   3 NSaved=   3.
 NSaved= 3 IEnMin= 3 EnMin= -3010.37606222505     IErMin= 3 ErrMin= 6.60D-02
 ErrMax= 6.60D-02  0.00D+00 EMaxC= 1.00D-01 BMatC= 7.37D-01 BMatP= 5.46D+00
 IDIUse=3 WtCom= 3.40D-01 WtEn= 6.60D-01
 Coeff-Com:  0.258D+01-0.338D+01 0.180D+01
 Coeff-En:   0.382D-01 0.000D+00 0.962D+00
 Coeff:      0.904D+00-0.115D+01 0.125D+01
 Gap=     0.263 Goal=   None    Shift=    0.000
 RMSDP=1.13D-02 MaxDP=7.68D-01 DE=-3.86D-01 OVMax= 7.55D-02

 Cycle   4  Pass 1  IDiag  1:
 RMSU=  6.03D-03    CP:  6.70D-01  1.83D+00  2.05D+00
 E= -3010.48512538872     Delta-E=       -0.109063163670 Rises=F Damp=F
 DIIS: error= 3.76D-02 at cycle   4 NSaved=   4.
 NSaved= 4 IEnMin= 4 EnMin= -3010.48512538872     IErMin= 4 ErrMin= 3.76D-02
 ErrMax= 3.76D-02  0.00D+00 EMaxC= 1.00D-01 BMatC= 2.23D-01 BMatP= 7.37D-01
 IDIUse=3 WtCom= 6.24D-01 WtEn= 3.76D-01
 Coeff-Com:  0.502D-01-0.526D-01 0.390D+00 0.613D+00
 Coeff-En:   0.000D+00 0.000D+00 0.193D+00 0.807D+00
 Coeff:      0.313D-01-0.328D-01 0.316D+00 0.686D+00
 Gap=     0.253 Goal=   None    Shift=    0.000
 RMSDP=6.04D-03 MaxDP=7.72D-01 DE=-1.09D-01 OVMax= 3.68D-02

 Cycle   5  Pass 1  IDiag  1:
 RMSU=  1.65D-03    CP:  6.26D-01  2.06D+00  1.91D+00  5.14D-01
 E= -3010.52767460992     Delta-E=       -0.042549221194 Rises=F Damp=F
 DIIS: error= 8.66D-03 at cycle   5 NSaved=   5.
 NSaved= 5 IEnMin= 5 EnMin= -3010.52767460992     IErMin= 5 ErrMin= 8.66D-03
 ErrMax= 8.66D-03  0.00D+00 EMaxC= 1.00D-01 BMatC= 1.09D-02 BMatP= 2.23D-01
 IDIUse=3 WtCom= 9.13D-01 WtEn= 8.66D-02
 Coeff-Com: -0.970D-01 0.135D+00 0.132D+00 0.408D+00 0.422D+00
 Coeff-En:   0.000D+00 0.000D+00 0.000D+00 0.000D+00 0.100D+01
 Coeff:     -0.886D-01 0.123D+00 0.120D+00 0.373D+00 0.472D+00
 Gap=     0.247 Goal=   None    Shift=    0.000
 RMSDP=1.81D-03 MaxDP=2.19D-01 DE=-4.25D-02 OVMax= 3.06D-02

 Cycle   6  Pass 1  IDiag  1:
 RMSU=  6.08D-04    CP:  6.33D-01  2.07D+00  1.99D+00  7.23D-01  5.82D-01
 E= -3010.53162467368     Delta-E=       -0.003950063768 Rises=F Damp=F
 DIIS: error= 3.17D-03 at cycle   6 NSaved=   6.
 NSaved= 6 IEnMin= 6 EnMin= -3010.53162467368     IErMin= 6 ErrMin= 3.17D-03
 ErrMax= 3.17D-03  0.00D+00 EMaxC= 1.00D-01 BMatC= 8.89D-04 BMatP= 1.09D-02
 IDIUse=3 WtCom= 9.68D-01 WtEn= 3.17D-02
 Coeff-Com: -0.972D-01 0.131D+00 0.254D-02 0.163D+00 0.321D+00 0.480D+00
 Coeff-En:   0.000D+00 0.000D+00 0.000D+00 0.000D+00 0.108D+00 0.892D+00
 Coeff:     -0.941D-01 0.127D+00 0.246D-02 0.158D+00 0.314D+00 0.493D+00
 Gap=     0.243 Goal=   None    Shift=    0.000
 RMSDP=4.69D-04 MaxDP=4.00D-02 DE=-3.95D-03 OVMax= 9.03D-03

 Cycle   7  Pass 1  IDiag  1:
 RMSU=  2.19D-04    CP:  6.32D-01  2.07D+00  1.98D+00  6.82D-01  7.08D-01
                    CP:  6.69D-01
 E= -3010.53225016838     Delta-E=       -0.000625494694 Rises=F Damp=F
 DIIS: error= 3.02D-04 at cycle   7 NSaved=   7.
 NSaved= 7 IEnMin= 7 EnMin= -3010.53225016838     IErMin= 7 ErrMin= 3.02D-04
 ErrMax= 3.02D-04  0.00D+00 EMaxC= 1.00D-01 BMatC= 1.50D-05 BMatP= 8.89D-04
 IDIUse=3 WtCom= 9.97D-01 WtEn= 3.02D-03
 Coeff-Com: -0.348D-01 0.464D-01-0.114D-01 0.329D-01 0.787D-01 0.177D+00
 Coeff-Com:  0.711D+00
 Coeff-En:   0.000D+00 0.000D+00 0.000D+00 0.000D+00 0.000D+00 0.000D+00
 Coeff-En:   0.100D+01
 Coeff:     -0.347D-01 0.463D-01-0.114D-01 0.328D-01 0.785D-01 0.177D+00
 Coeff:      0.712D+00
 Gap=     0.244 Goal=   None    Shift=    0.000
 RMSDP=1.42D-04 MaxDP=1.21D-02 DE=-6.25D-04 OVMax= 1.57D-03

 Cycle   8  Pass 1  IDiag  1:
 RMSU=  6.18D-05    CP:  6.31D-01  2.06D+00  1.99D+00  6.92D-01  7.50D-01
                    CP:  7.23D-01  9.07D-01
 E= -3010.53226722144     Delta-E=       -0.000017053059 Rises=F Damp=F
 DIIS: error= 1.09D-04 at cycle   8 NSaved=   8.
 NSaved= 8 IEnMin= 8 EnMin= -3010.53226722144     IErMin= 8 ErrMin= 1.09D-04
 ErrMax= 1.09D-04  0.00D+00 EMaxC= 1.00D-01 BMatC= 2.25D-06 BMatP= 1.50D-05
 IDIUse=3 WtCom= 9.99D-01 WtEn= 1.09D-03
 Coeff-Com:  0.380D-02-0.530D-02-0.362D-02-0.120D-01-0.252D-01-0.320D-01
 Coeff-Com:  0.186D+00 0.888D+00
 Coeff-En:   0.000D+00 0.000D+00 0.000D+00 0.000D+00 0.000D+00 0.000D+00
 Coeff-En:   0.000D+00 0.100D+01
 Coeff:      0.380D-02-0.530D-02-0.361D-02-0.120D-01-0.251D-01-0.319D-01
 Coeff:      0.186D+00 0.889D+00
 Gap=     0.244 Goal=   None    Shift=    0.000
 RMSDP=6.57D-05 MaxDP=5.41D-03 DE=-1.71D-05 OVMax= 1.10D-03

 Cycle   9  Pass 1  IDiag  1:
 RMSU=  2.43D-05    CP:  6.31D-01  2.06D+00  1.99D+00  6.96D-01  7.62D-01
                    CP:  7.25D-01  1.05D+00  1.20D+00
 E= -3010.53227130773     Delta-E=       -0.000004086295 Rises=F Damp=F
 DIIS: error= 2.05D-05 at cycle   9 NSaved=   9.
 NSaved= 9 IEnMin= 9 EnMin= -3010.53227130773     IErMin= 9 ErrMin= 2.05D-05
 ErrMax= 2.05D-05  0.00D+00 EMaxC= 1.00D-01 BMatC= 2.18D-07 BMatP= 2.25D-06
 IDIUse=1 WtCom= 1.00D+00 WtEn= 0.00D+00
 Coeff-Com:  0.602D-02-0.810D-02 0.561D-03-0.807D-02-0.162D-01-0.300D-01
 Coeff-Com: -0.536D-01 0.237D+00 0.873D+00
 Coeff:      0.602D-02-0.810D-02 0.561D-03-0.807D-02-0.162D-01-0.300D-01
 Coeff:     -0.536D-01 0.237D+00 0.873D+00
 Gap=     0.244 Goal=   None    Shift=    0.000
 RMSDP=3.71D-05 MaxDP=4.17D-03 DE=-4.09D-06 OVMax= 7.05D-04

 Cycle  10  Pass 1  IDiag  1:
 RMSU=  8.24D-06    CP:  6.31D-01  2.06D+00  1.99D+00  6.94D-01  7.68D-01
                    CP:  7.18D-01  1.08D+00  1.47D+00  1.08D+00
 E= -3010.53227210839     Delta-E=       -0.000000800656 Rises=F Damp=F
 DIIS: error= 1.30D-05 at cycle  10 NSaved=  10.
 NSaved=10 IEnMin=10 EnMin= -3010.53227210839     IErMin=10 ErrMin= 1.30D-05
 ErrMax= 1.30D-05  0.00D+00 EMaxC= 1.00D-01 BMatC= 6.00D-08 BMatP= 2.18D-07
 IDIUse=1 WtCom= 1.00D+00 WtEn= 0.00D+00
 Coeff-Com:  0.563D-03-0.730D-03 0.428D-03-0.261D-03 0.162D-02 0.297D-02
 Coeff-Com: -0.404D-01-0.850D-01 0.207D+00 0.914D+00
 Coeff:      0.563D-03-0.730D-03 0.428D-03-0.261D-03 0.162D-02 0.297D-02
 Coeff:     -0.404D-01-0.850D-01 0.207D+00 0.914D+00
 Gap=     0.244 Goal=   None    Shift=    0.000
 RMSDP=1.36D-05 MaxDP=1.37D-03 DE=-8.01D-07 OVMax= 3.99D-04

 Cycle  11  Pass 1  IDiag  1:
 RMSU=  7.03D-06    CP:  6.31D-01  2.06D+00  1.99D+00  6.94D-01  7.70D-01
                    CP:  7.16D-01  1.07D+00  1.59D+00  1.18D+00  1.30D+00
 E= -3010.53227230835     Delta-E=       -0.000000199960 Rises=F Damp=F
 DIIS: error= 6.09D-06 at cycle  11 NSaved=  11.
 NSaved=11 IEnMin=11 EnMin= -3010.53227230835     IErMin=11 ErrMin= 6.09D-06
 ErrMax= 6.09D-06  0.00D+00 EMaxC= 1.00D-01 BMatC= 6.80D-09 BMatP= 6.00D-08
 IDIUse=1 WtCom= 1.00D+00 WtEn= 0.00D+00
 Coeff-Com: -0.345D-03 0.462D-03 0.341D-04 0.792D-03 0.158D-02 0.377D-02
 Coeff-Com:  0.156D-01-0.140D-01-0.183D+00-0.216D+00 0.139D+01
 Coeff:     -0.345D-03 0.462D-03 0.341D-04 0.792D-03 0.158D-02 0.377D-02
 Coeff:      0.156D-01-0.140D-01-0.183D+00-0.216D+00 0.139D+01
 Gap=     0.244 Goal=   None    Shift=    0.000
 RMSDP=1.38D-05 MaxDP=1.34D-03 DE=-2.00D-07 OVMax= 3.12D-04

 Cycle  12  Pass 1  IDiag  1:
 RMSU=  1.58D-06    CP:  6.31D-01  2.06D+00  1.99D+00  6.93D-01  7.71D-01
                    CP:  7.11D-01  1.07D+00  1.69D+00  1.20D+00  1.66D+00
                    CP:  1.74D+00
 E= -3010.53227237238     Delta-E=       -0.000000064036 Rises=F Damp=F
 DIIS: error= 2.85D-06 at cycle  12 NSaved=  12.
 NSaved=12 IEnMin=12 EnMin= -3010.53227237238     IErMin=12 ErrMin= 2.85D-06
 ErrMax= 2.85D-06  0.00D+00 EMaxC= 1.00D-01 BMatC= 1.69D-09 BMatP= 6.80D-09
 IDIUse=1 WtCom= 1.00D+00 WtEn= 0.00D+00
 Coeff-Com: -0.165D-03 0.217D-03-0.322D-04 0.306D-03 0.152D-03 0.557D-03
 Coeff-Com:  0.119D-01 0.814D-02-0.971D-01-0.230D+00 0.536D+00 0.770D+00
 Coeff:     -0.165D-03 0.217D-03-0.322D-04 0.306D-03 0.152D-03 0.557D-03
 Coeff:      0.119D-01 0.814D-02-0.971D-01-0.230D+00 0.536D+00 0.770D+00
 Gap=     0.244 Goal=   None    Shift=    0.000
 RMSDP=2.10D-06 MaxDP=1.79D-04 DE=-6.40D-08 OVMax= 9.31D-05

 Cycle  13  Pass 1  IDiag  1:
 RMSU=  8.10D-07    CP:  6.31D-01  2.06D+00  1.99D+00  6.93D-01  7.71D-01
                    CP:  7.11D-01  1.07D+00  1.69D+00  1.21D+00  1.73D+00
                    CP:  1.89D+00  1.21D+00
 E= -3010.53227237994     Delta-E=       -0.000000007556 Rises=F Damp=F
 DIIS: error= 1.65D-06 at cycle  13 NSaved=  13.
 NSaved=13 IEnMin=13 EnMin= -3010.53227237994     IErMin=13 ErrMin= 1.65D-06
 ErrMax= 1.65D-06  0.00D+00 EMaxC= 1.00D-01 BMatC= 2.99D-10 BMatP= 1.69D-09
 IDIUse=1 WtCom= 1.00D+00 WtEn= 0.00D+00
 Coeff-Com:  0.145D-04-0.193D-04-0.223D-04-0.122D-03-0.383D-03-0.934D-03
 Coeff-Com: -0.285D-02 0.210D-02 0.396D-01 0.301D-01-0.288D+00 0.109D+00
 Coeff-Com:  0.111D+01
 Coeff:      0.145D-04-0.193D-04-0.223D-04-0.122D-03-0.383D-03-0.934D-03
 Coeff:     -0.285D-02 0.210D-02 0.396D-01 0.301D-01-0.288D+00 0.109D+00
 Coeff:      0.111D+01
 Gap=     0.244 Goal=   None    Shift=    0.000
 RMSDP=8.72D-07 MaxDP=4.92D-05 DE=-7.56D-09 OVMax= 4.64D-05

 Cycle  14  Pass 1  IDiag  1:
 RMSU=  3.19D-07    CP:  6.31D-01  2.06D+00  1.99D+00  6.93D-01  7.71D-01
                    CP:  7.10D-01  1.07D+00  1.69D+00  1.20D+00  1.75D+00
                    CP:  1.93D+00  1.47D+00  1.57D+00
 E= -3010.53227238168     Delta-E=       -0.000000001742 Rises=F Damp=F
 DIIS: error= 4.89D-07 at cycle  14 NSaved=  14.
 NSaved=14 IEnMin=14 EnMin= -3010.53227238168     IErMin=14 ErrMin= 4.89D-07
 ErrMax= 4.89D-07  0.00D+00 EMaxC= 1.00D-01 BMatC= 4.72D-11 BMatP= 2.99D-10
 IDIUse=1 WtCom= 1.00D+00 WtEn= 0.00D+00
 Coeff-Com:  0.748D-05-0.961D-05-0.817D-05-0.601D-04-0.105D-03-0.284D-03
 Coeff-Com: -0.205D-02-0.414D-03 0.236D-01 0.344D-01-0.155D+00-0.549D-01
 Coeff-Com:  0.359D+00 0.797D+00
 Coeff:      0.748D-05-0.961D-05-0.817D-05-0.601D-04-0.105D-03-0.284D-03
 Coeff:     -0.205D-02-0.414D-03 0.236D-01 0.344D-01-0.155D+00-0.549D-01
 Coeff:      0.359D+00 0.797D+00
 Gap=     0.244 Goal=   None    Shift=    0.000
 RMSDP=3.62D-07 MaxDP=3.88D-05 DE=-1.74D-09 OVMax= 1.16D-05

 Cycle  15  Pass 1  IDiag  1:
 RMSU=  1.22D-07    CP:  6.31D-01  2.06D+00  1.99D+00  6.93D-01  7.71D-01
                    CP:  7.10D-01  1.07D+00  1.69D+00  1.20D+00  1.75D+00
                    CP:  1.94D+00  1.52D+00  1.75D+00  1.24D+00
 E= -3010.53227238187     Delta-E=       -0.000000000189 Rises=F Damp=F
 DIIS: error= 2.40D-07 at cycle  15 NSaved=  15.
 NSaved=15 IEnMin=15 EnMin= -3010.53227238187     IErMin=15 ErrMin= 2.40D-07
 ErrMax= 2.40D-07  0.00D+00 EMaxC= 1.00D-01 BMatC= 1.25D-11 BMatP= 4.72D-11
 IDIUse=1 WtCom= 1.00D+00 WtEn= 0.00D+00
 Coeff-Com:  0.650D-05-0.861D-05 0.359D-05-0.444D-06 0.451D-04 0.104D-03
 Coeff-Com: -0.116D-03-0.557D-03-0.899D-04 0.627D-02 0.746D-02-0.501D-01
 Coeff-Com: -0.135D+00 0.322D+00 0.850D+00
 Coeff:      0.650D-05-0.861D-05 0.359D-05-0.444D-06 0.451D-04 0.104D-03
 Coeff:     -0.116D-03-0.557D-03-0.899D-04 0.627D-02 0.746D-02-0.501D-01
 Coeff:     -0.135D+00 0.322D+00 0.850D+00
 Gap=     0.244 Goal=   None    Shift=    0.000
 RMSDP=1.56D-07 MaxDP=9.97D-06 DE=-1.89D-10 OVMax= 5.27D-06

 Cycle  16  Pass 1  IDiag  1:
 RMSU=  5.32D-08    CP:  6.31D-01  2.06D+00  1.99D+00  6.93D-01  7.71D-01
                    CP:  7.10D-01  1.07D+00  1.69D+00  1.20D+00  1.75D+00
                    CP:  1.93D+00  1.55D+00  1.81D+00  1.43D+00  1.43D+00
 E= -3010.53227238193     Delta-E=       -0.000000000056 Rises=F Damp=F
 DIIS: error= 7.05D-08 at cycle  16 NSaved=  16.
 NSaved=16 IEnMin=16 EnMin= -3010.53227238193     IErMin=16 ErrMin= 7.05D-08
 ErrMax= 7.05D-08  0.00D+00 EMaxC= 1.00D-01 BMatC= 9.77D-13 BMatP= 1.25D-11
 IDIUse=1 WtCom= 1.00D+00 WtEn= 0.00D+00
 Coeff-Com: -0.301D-07 0.208D-07 0.162D-05 0.796D-05 0.238D-04 0.545D-04
 Coeff-Com:  0.199D-03-0.123D-03-0.291D-02-0.227D-02 0.192D-01-0.381D-02
 Coeff-Com: -0.622D-01-0.502D-01 0.149D+00 0.953D+00
 Coeff:     -0.301D-07 0.208D-07 0.162D-05 0.796D-05 0.238D-04 0.545D-04
 Coeff:      0.199D-03-0.123D-03-0.291D-02-0.227D-02 0.192D-01-0.381D-02
 Coeff:     -0.622D-01-0.502D-01 0.149D+00 0.953D+00
 Gap=     0.244 Goal=   None    Shift=    0.000
 RMSDP=5.97D-08 MaxDP=3.99D-06 DE=-5.64D-11 OVMax= 1.38D-06

 Cycle  17  Pass 1  IDiag  1:
 RMSU=  2.34D-08    CP:  6.31D-01  2.06D+00  1.99D+00  6.93D-01  7.71D-01
                    CP:  7.10D-01  1.07D+00  1.69D+00  1.20D+00  1.75D+00
                    CP:  1.93D+00  1.55D+00  1.83D+00  1.48D+00  1.70D+00
                    CP:  1.15D+00
 E= -3010.53227238192     Delta-E=        0.000000000007 Rises=F Damp=F
 DIIS: error= 2.57D-08 at cycle  17 NSaved=  17.
 NSaved=17 IEnMin=16 EnMin= -3010.53227238193     IErMin=17 ErrMin= 2.57D-08
 ErrMax= 2.57D-08  0.00D+00 EMaxC= 1.00D-01 BMatC= 2.00D-13 BMatP= 9.77D-13
 IDIUse=1 WtCom= 1.00D+00 WtEn= 0.00D+00
 Coeff-Com: -0.164D-05 0.218D-05-0.171D-06 0.294D-05 0.278D-05 0.347D-05
 Coeff-Com:  0.568D-04 0.704D-04-0.720D-03-0.114D-02 0.420D-02 0.518D-02
 Coeff-Com:  0.290D-02-0.625D-01-0.729D-01 0.244D+00 0.881D+00
 Coeff:     -0.164D-05 0.218D-05-0.171D-06 0.294D-05 0.278D-05 0.347D-05
 Coeff:      0.568D-04 0.704D-04-0.720D-03-0.114D-02 0.420D-02 0.518D-02
 Coeff:      0.290D-02-0.625D-01-0.729D-01 0.244D+00 0.881D+00
 Gap=     0.244 Goal=   None    Shift=    0.000
 RMSDP=4.31D-08 MaxDP=3.82D-06 DE= 7.28D-12 OVMax= 5.96D-07

 Cycle  18  Pass 1  IDiag  1:
 RMSU=  7.46D-09    CP:  6.31D-01  2.06D+00  1.99D+00  6.93D-01  7.71D-01
                    CP:  7.10D-01  1.07D+00  1.69D+00  1.20D+00  1.75D+00
                    CP:  1.93D+00  1.55D+00  1.83D+00  1.47D+00  1.80D+00
                    CP:  1.36D+00  1.12D+00
 E= -3010.53227238193     Delta-E=       -0.000000000011 Rises=F Damp=F
 DIIS: error= 1.51D-08 at cycle  18 NSaved=  18.
 NSaved=18 IEnMin=18 EnMin= -3010.53227238193     IErMin=18 ErrMin= 1.51D-08
 ErrMax= 1.51D-08  0.00D+00 EMaxC= 1.00D-01 BMatC= 4.65D-14 BMatP= 2.00D-13
 IDIUse=1 WtCom= 1.00D+00 WtEn= 0.00D+00
 Coeff-Com: -0.202D-06 0.270D-06-0.323D-06-0.106D-05-0.547D-05-0.137D-04
 Coeff-Com: -0.274D-04 0.769D-04 0.309D-03-0.893D-04-0.274D-02 0.270D-02
 Coeff-Com:  0.157D-01-0.145D-01-0.545D-01-0.104D+00 0.335D+00 0.822D+00
 Coeff:     -0.202D-06 0.270D-06-0.323D-06-0.106D-05-0.547D-05-0.137D-04
 Coeff:     -0.274D-04 0.769D-04 0.309D-03-0.893D-04-0.274D-02 0.270D-02
 Coeff:      0.157D-01-0.145D-01-0.545D-01-0.104D+00 0.335D+00 0.822D+00
 Gap=     0.244 Goal=   None    Shift=    0.000
 RMSDP=3.10D-08 MaxDP=3.26D-06 DE=-1.09D-11 OVMax= 2.49D-07

 Cycle  19  Pass 1  IDiag  1:
 RMSU=  2.69D-09    CP:  6.31D-01  2.06D+00  1.99D+00  6.93D-01  7.71D-01
                    CP:  7.10D-01  1.07D+00  1.69D+00  1.20D+00  1.75D+00
                    CP:  1.94D+00  1.55D+00  1.82D+00  1.46D+00  1.84D+00
                    CP:  1.42D+00  1.33D+00  1.23D+00
 E= -3010.53227238195     Delta-E=       -0.000000000023 Rises=F Damp=F
 DIIS: error= 8.72D-09 at cycle  19 NSaved=  19.
 NSaved=19 IEnMin=19 EnMin= -3010.53227238195     IErMin=19 ErrMin= 8.72D-09
 ErrMax= 8.72D-09  0.00D+00 EMaxC= 1.00D-01 BMatC= 4.46D-15 BMatP= 4.65D-14
 IDIUse=1 WtCom= 1.00D+00 WtEn= 0.00D+00
 Large coefficients: NSaved= 19 BigCof=    0.00 CofMax=   10.00 Det=-8.79D-15
 Inversion failed.  Reducing to 18 matrices.
 Large coefficients: NSaved= 18 BigCof=    0.00 CofMax=   10.00 Det=-1.45D-14
 Inversion failed.  Reducing to 17 matrices.
 Coeff-Com: -0.399D-07-0.173D-06-0.229D-06-0.763D-06-0.786D-05-0.159D-05
 Coeff-Com:  0.964D-04 0.133D-03-0.556D-03-0.343D-03 0.101D-02 0.493D-02
 Coeff-Com:  0.433D-02-0.397D-01-0.815D-01 0.459D-01 0.107D+01
 Coeff:     -0.399D-07-0.173D-06-0.229D-06-0.763D-06-0.786D-05-0.159D-05
 Coeff:      0.964D-04 0.133D-03-0.556D-03-0.343D-03 0.101D-02 0.493D-02
 Coeff:      0.433D-02-0.397D-01-0.815D-01 0.459D-01 0.107D+01
 Gap=     0.244 Goal=   None    Shift=    0.000
 RMSDP=6.77D-09 MaxDP=6.30D-07 DE=-2.32D-11 OVMax= 1.71D-07

 SCF Done:  E(RwB97XD) =  -3010.53227238     A.U. after   19 cycles
            NFock= 19  Conv=0.68D-08     -V/T= 2.0016
 KE= 3.005850054036D+03 PE=-8.699366195959D+03 EE= 1.910206733024D+03
 Leave Link  502 at Thu May  2 14:18:32 2024, MaxMem=   134217728 cpu:            1186.3 elap:            1186.9
 (Enter /software/gaussian/g16-c01/sse4/g16/l601.exe)
 Copying SCF densities to generalized density rwf, IOpCl= 0 IROHF=0.

 **********************************************************************

            Population analysis using the SCF Density.

 **********************************************************************

 Alpha  occ. eigenvalues -- -483.30890 -62.85909 -56.65606 -56.65032 -56.65021
 Alpha  occ. eigenvalues --  -19.46174 -19.46142 -14.85586 -10.59096 -10.57786
 Alpha  occ. eigenvalues --  -10.57123 -10.56841 -10.53294 -10.52605  -9.01712
 Alpha  occ. eigenvalues --   -6.84402  -6.82518  -6.82484  -2.94304  -2.93809
 Alpha  occ. eigenvalues --   -2.93781  -2.92273  -2.92273  -1.49849  -1.32809
 Alpha  occ. eigenvalues --   -1.22271  -1.12709  -1.12278  -1.04569  -1.00152
 Alpha  occ. eigenvalues --   -0.95195  -0.90442  -0.84843  -0.80799  -0.80018
 Alpha  occ. eigenvalues --   -0.79969  -0.77775  -0.76115  -0.75441  -0.71808
 Alpha  occ. eigenvalues --   -0.68385  -0.67442  -0.63184  -0.59629  -0.57328
 Alpha  occ. eigenvalues --   -0.56640  -0.55926  -0.55832  -0.54354
 Alpha virt. eigenvalues --   -0.29914  -0.20287  -0.15413  -0.12931  -0.08470
 Alpha virt. eigenvalues --   -0.06036  -0.05417  -0.04529  -0.04191  -0.03139
 Alpha virt. eigenvalues --   -0.02250  -0.01293  -0.01057  -0.00393   0.00742
 Alpha virt. eigenvalues --    0.01156   0.01737   0.02099   0.02833   0.03611
 Alpha virt. eigenvalues --    0.04447   0.05585   0.05841   0.06161   0.06888
 Alpha virt. eigenvalues --    0.07607   0.07800   0.08246   0.09432   0.09619
 Alpha virt. eigenvalues --    0.10140   0.10867   0.11711   0.12033   0.12679
 Alpha virt. eigenvalues --    0.13101   0.13379   0.13727   0.14886   0.15738
 Alpha virt. eigenvalues --    0.16732   0.17267   0.17522   0.18843   0.19135
 Alpha virt. eigenvalues --    0.20253   0.20861   0.21631   0.22429   0.24254
 Alpha virt. eigenvalues --    0.24767   0.26632   0.28162   0.29720   0.32369
 Alpha virt. eigenvalues --    0.32846   0.33487   0.33706   0.34552   0.36693
 Alpha virt. eigenvalues --    0.37481   0.37929   0.39661   0.40907   0.42122
 Alpha virt. eigenvalues --    0.43484   0.44264   0.45541   0.47043   0.47558
 Alpha virt. eigenvalues --    0.48751   0.50668   0.51086   0.52514   0.53716
 Alpha virt. eigenvalues --    0.55327   0.56210   0.58180   0.58387   0.60398
 Alpha virt. eigenvalues --    0.61346   0.62504   0.64787   0.67896   0.68381
 Alpha virt. eigenvalues --    0.71411   0.71761   0.73067   0.74516   0.74877
 Alpha virt. eigenvalues --    0.75067   0.77432   0.79750   0.83569   0.85806
 Alpha virt. eigenvalues --    0.87259   0.87814   0.91642   0.94387   0.98852
 Alpha virt. eigenvalues --    1.00533   1.02742   1.04048   1.05851   1.07109
 Alpha virt. eigenvalues --    1.09014   1.12714   1.13467   1.14164   1.18022
 Alpha virt. eigenvalues --    1.21185   1.23003   1.28293   1.33698   1.36502
 Alpha virt. eigenvalues --    1.37146   1.39216   1.43448   1.55174   1.56913
 Alpha virt. eigenvalues --    1.57474   1.60035   1.61453   1.64157   1.66044
 Alpha virt. eigenvalues --    1.68300   1.71689   1.74128   1.75506   1.79701
 Alpha virt. eigenvalues --    1.84202   1.85569   1.87469   1.95294   1.96538
 Alpha virt. eigenvalues --    1.98093   2.02778   2.03202   2.07496   2.09233
 Alpha virt. eigenvalues --    2.13145   2.14901   2.22550   2.23867   2.27571
 Alpha virt. eigenvalues --    2.33735   2.40116   2.41707   2.44585   2.53505
 Alpha virt. eigenvalues --    2.58336   2.63386   2.66188   2.68971   2.71793
 Alpha virt. eigenvalues --    2.73829   2.76489   2.77633   2.80752   2.82308
 Alpha virt. eigenvalues --    2.93494   2.98355   3.01582   3.06105   3.09222
 Alpha virt. eigenvalues --    3.15078   3.16565   3.17803   3.22624   3.26660
 Alpha virt. eigenvalues --    3.27973   3.38100   3.46834   3.50358   3.54815
 Alpha virt. eigenvalues --    3.57802   3.68978   3.74304   3.83910   3.87617
 Alpha virt. eigenvalues --    4.10372   4.11232   4.19768   4.23909   4.43569
 Alpha virt. eigenvalues --    4.45348   4.54908   4.59971   4.93618   4.96460
 Alpha virt. eigenvalues --    5.05304   5.09810   5.62082   6.15222   6.68392
 Alpha virt. eigenvalues --    7.49253   7.51572   7.61669  23.22423  23.61547
 Alpha virt. eigenvalues --   23.72218  23.78272  23.95941  24.02346  35.31578
 Alpha virt. eigenvalues --   47.94448  49.85301  49.93964 289.82084 289.84423
 Alpha virt. eigenvalues --  289.970411020.95623
          Condensed to atoms (all electrons):
               1          2          3          4          5          6
     1  C    7.849237  -2.583747   0.826844  -0.063830   0.297516   0.058686
     2  C   -2.583747  17.278625  -4.100167   0.439877  -0.015359   0.187955
     3  C    0.826844  -4.100167  18.774496  -1.340085   0.024088   0.121388
     4  C   -0.063830   0.439877  -1.340085   6.417608   0.022891  -0.015913
     5  H    0.297516  -0.015359   0.024088   0.022891   0.335011  -0.001721
     6  H    0.058686   0.187955   0.121388  -0.015913  -0.001721   0.315133
     7  H    0.026096  -0.026907   0.021611   0.305358  -0.002820  -0.000004
     8  N   -0.098431  -0.001196  -1.711185   0.018013  -0.000448  -0.030369
     9  O   -0.019259   0.265826  -0.085521  -0.015722  -0.000034  -0.002505
    10  O    0.274307  -0.200961  -0.242610  -0.022704   0.000009   0.021585
    11  C    0.759454  -0.638819   2.379489  -0.297118  -0.025375   0.009093
    12  H   -0.010448   0.017423   0.008143   0.016289   0.000017  -0.000017
    13  C   -1.208503  -4.618739  -8.405918   0.862143   0.024675  -0.009582
    14  H   -0.004308   0.013095   0.026474   0.004293  -0.000032   0.000043
    15  Br   0.005393  -0.199875  -0.220575   0.004567  -0.000033  -0.000564
               7          8          9         10         11         12
     1  C    0.026096  -0.098431  -0.019259   0.274307   0.759454  -0.010448
     2  C   -0.026907  -0.001196   0.265826  -0.200961  -0.638819   0.017423
     3  C    0.021611  -1.711185  -0.085521  -0.242610   2.379489   0.008143
     4  C    0.305358   0.018013  -0.015722  -0.022704  -0.297118   0.016289
     5  H   -0.002820  -0.000448  -0.000034   0.000009  -0.025375   0.000017
     6  H   -0.000004  -0.030369  -0.002505   0.021585   0.009093  -0.000017
     7  H    0.338559   0.000010   0.000003   0.000001   0.032066  -0.002303
     8  N    0.000010   7.634092   0.059874   0.193544  -0.309227   0.000529
     9  O    0.000003   0.059874   7.883175   0.003582   0.262981   0.000100
    10  O    0.000001   0.193544   0.003582   7.826116   0.005789  -0.000022
    11  C    0.032066  -0.309227   0.262981   0.005789   7.933252   0.314877
    12  H   -0.002303   0.000529   0.000100  -0.000022   0.314877   0.319171
    13  C   -0.021599   1.352004  -0.401319   0.074375  -4.297775  -0.018063
    14  H   -0.000032  -0.030762   0.012525  -0.001771   0.010846  -0.004620
    15  Br  -0.000419   0.163947  -0.057056   0.004132   0.062150  -0.000970
              13         14         15
     1  C   -1.208503  -0.004308   0.005393
     2  C   -4.618739   0.013095  -0.199875
     3  C   -8.405918   0.026474  -0.220575
     4  C    0.862143   0.004293   0.004567
     5  H    0.024675  -0.000032  -0.000033
     6  H   -0.009582   0.000043  -0.000564
     7  H   -0.021599  -0.000032  -0.000419
     8  N    1.352004  -0.030762   0.163947
     9  O   -0.401319   0.012525  -0.057056
    10  O    0.074375  -0.001771   0.004132
    11  C   -4.297775   0.010846   0.062150
    12  H   -0.018063  -0.004620  -0.000970
    13  C   22.352239   0.278857   0.396996
    14  H    0.278857   0.321823  -0.039837
    15  Br   0.396996  -0.039837  34.692172
 Mulliken charges:
               1
     1  C   -0.109007
     2  C    0.182969
     3  C   -0.076471
     4  C   -0.335666
     5  H    0.341615
     6  H    0.346793
     7  H    0.330380
     8  N   -0.240394
     9  O    0.093349
    10  O    0.064629
    11  C   -0.201681
    12  H    0.359895
    13  C   -0.359790
    14  H    0.413405
    15  Br   0.189974
 Sum of Mulliken charges =   1.00000
 Mulliken charges with hydrogens summed into heavy atoms:
               1
     1  C    0.232608
     2  C    0.529762
     3  C   -0.076471
     4  C   -0.005286
     8  N   -0.240394
     9  O    0.093349
    10  O    0.064629
    11  C    0.158213
    13  C    0.053616
    15  Br   0.189974
 Electronic spatial extent (au):  <R**2>=           3945.9432
 Charge=              1.0000 electrons
 Dipole moment (field-independent basis, Debye):
    X=              2.7954    Y=             -1.1695    Z=             -0.7869  Tot=              3.1307
 Quadrupole moment (field-independent basis, Debye-Ang):
   XX=            -67.8385   YY=            -51.0069   ZZ=            -62.0670
   XY=             -3.5212   XZ=             -2.6400   YZ=              2.5976
 Traceless Quadrupole moment (field-independent basis, Debye-Ang):
   XX=             -7.5344   YY=              9.2972   ZZ=             -1.7628
   XY=             -3.5212   XZ=             -2.6400   YZ=              2.5976
 Octapole moment (field-independent basis, Debye-Ang**2):
  XXX=           -513.2225  YYY=             90.4650  ZZZ=             82.5817  XYY=           -136.2002
  XXY=             22.3693  XXZ=             25.2572  XZZ=           -132.2384  YZZ=             16.6081
  YYZ=             25.2314  XYZ=              8.2983
 Hexadecapole moment (field-independent basis, Debye-Ang**3):
 XXXX=          -3450.4663 YYYY=           -700.1864 ZZZZ=           -394.2850 XXXY=            171.0598
 XXXZ=            183.0336 YYYX=            181.9756 YYYZ=           -170.5802 ZZZX=            166.7022
 ZZZY=           -143.3303 XXYY=           -623.2472 XXZZ=           -525.3727 YYZZ=           -170.3232
 XXYZ=            -40.3338 YYXZ=             48.4199 ZZXY=             27.7270
 N-N= 7.727771365166D+02 E-N=-8.699366195604D+03  KE= 3.005850054036D+03
 No NMR shielding tensors so no spin-rotation constants.
 Leave Link  601 at Thu May  2 14:18:39 2024, MaxMem=   134217728 cpu:               7.4 elap:               7.4
 (Enter /software/gaussian/g16-c01/sse4/g16/l9999.exe)
 Unable to Open any file for archive entry.
 1\1\GINC-BHX0012\SP\RwB97XD\6-311+G(d)\C6H5Br1N1O2(1+)\BWEIGHT\02-May-
 2024\0\\#P wB97XD/6-311+G* NoSymm #P Field=Y+9\\TitleMe\\1,1\C,0,0.519
 3,1.233,-0.0319\C,0,1.9445,1.2692,-0.0367\C,0,2.6204,0.0928,-0.025\C,0
 ,-0.196,0.0301,0.001\H,0,-0.0207,2.1742,-0.0434\H,0,2.4828,2.2089,-0.0
 361\H,0,-1.2777,0.0399,0.0117\N,0,4.0921,0.0959,0.0366\O,0,4.6393,-1.0
 217,0.1446\O,0,4.6649,1.1984,-0.0233\C,0,0.4943,-1.1671,0.021\H,0,-0.0
 325,-2.1149,0.0545\C,0,1.9629,-1.2165,-0.0211\H,0,2.4436,-1.9631,0.615
 1\Br,0,2.173,-1.9491,-1.9062\\Version=ES64L-G16RevC.01\HF=-3010.532272
 4\RMSD=6.767e-09\Dipole=-3.2294339,0.7679912,0.939619\Quadrupole=-5.60
 16276,6.9122499,-1.3106223,-2.6179053,-1.9628066,1.9312555\PG=C01 [X(C
 6H5Br1N1O2)]\\@
 The archive entry for this job was punched.


 ALL MEN WHO EXPLORE
 DEPLORE
 THAT FRUSTRATING HURDLE
 THE GIRDLE.

         -- COLIN FLETCHER
 Job cpu time:       0 days  0 hours 20 minutes 57.2 seconds.
 Elapsed time:       0 days  0 hours 20 minutes 58.1 seconds.
 File lengths (MBytes):  RWF=     40 Int=      0 D2E=      0 Chk=     32 Scr=      1
 Normal termination of Gaussian 16 at Thu May  2 14:18:40 2024.
