 Entering Gaussian System, Link 0=g16
 Initial command:
 /software/gaussian/g16-c01/sse4/g16/l1.exe "/local_scratch/24657497/Gau-20189.inp" -scrdir="/local_scratch/24657497/"
 Entering Link 1 = /software/gaussian/g16-c01/sse4/g16/l1.exe PID=     20190.
  
 Copyright (c) 1988-2019, Gaussian, Inc.  All Rights Reserved.
  
 This is part of the Gaussian(R) 16 program.  It is based on
 the Gaussian(R) 09 system (copyright 2009, Gaussian, Inc.),
 the Gaussian(R) 03 system (copyright 2003, Gaussian, Inc.),
 the Gaussian(R) 98 system (copyright 1998, Gaussian, Inc.),
 the Gaussian(R) 94 system (copyright 1995, Gaussian, Inc.),
 the Gaussian 92(TM) system (copyright 1992, Gaussian, Inc.),
 the Gaussian 90(TM) system (copyright 1990, Gaussian, Inc.),
 the Gaussian 88(TM) system (copyright 1988, Gaussian, Inc.),
 the Gaussian 86(TM) system (copyright 1986, Carnegie Mellon
 University), and the Gaussian 82(TM) system (copyright 1983,
 Carnegie Mellon University). Gaussian is a federally registered
 trademark of Gaussian, Inc.
  
 This software contains proprietary and confidential information,
 including trade secrets, belonging to Gaussian, Inc.
  
 This software is provided under written license and may be
 used, copied, transmitted, or stored only in accord with that
 written license.
  
 The following legend is applicable only to US Government
 contracts under FAR:
  
                    RESTRICTED RIGHTS LEGEND
  
 Use, reproduction and disclosure by the US Government is
 subject to restrictions as set forth in subparagraphs (a)
 and (c) of the Commercial Computer Software - Restricted
 Rights clause in FAR 52.227-19.
  
 Gaussian, Inc.
 340 Quinnipiac St., Bldg. 40, Wallingford CT 06492
  
  
 ---------------------------------------------------------------
 Warning -- This program may not be used in any manner that
 competes with the business of Gaussian, Inc. or will provide
 assistance to any competitor of Gaussian, Inc.  The licensee
 of this program is prohibited from giving any competitor of
 Gaussian, Inc. access to this program.  By using this program,
 the user acknowledges that Gaussian, Inc. is engaged in the
 business of creating and licensing software in the field of
 computational chemistry and represents and warrants to the
 licensee that it is not a competitor of Gaussian, Inc. and that
 it will not use this program in any manner prohibited above.
 ---------------------------------------------------------------
  

 Cite this work as:
 Gaussian 16, Revision C.01,
 M. J. Frisch, G. W. Trucks, H. B. Schlegel, G. E. Scuseria, 
 M. A. Robb, J. R. Cheeseman, G. Scalmani, V. Barone, 
 G. A. Petersson, H. Nakatsuji, X. Li, M. Caricato, A. V. Marenich, 
 J. Bloino, B. G. Janesko, R. Gomperts, B. Mennucci, H. P. Hratchian, 
 J. V. Ortiz, A. F. Izmaylov, J. L. Sonnenberg, D. Williams-Young, 
 F. Ding, F. Lipparini, F. Egidi, J. Goings, B. Peng, A. Petrone, 
 T. Henderson, D. Ranasinghe, V. G. Zakrzewski, J. Gao, N. Rega, 
 G. Zheng, W. Liang, M. Hada, M. Ehara, K. Toyota, R. Fukuda, 
 J. Hasegawa, M. Ishida, T. Nakajima, Y. Honda, O. Kitao, H. Nakai, 
 T. Vreven, K. Throssell, J. A. Montgomery, Jr., J. E. Peralta, 
 F. Ogliaro, M. J. Bearpark, J. J. Heyd, E. N. Brothers, K. N. Kudin, 
 V. N. Staroverov, T. A. Keith, R. Kobayashi, J. Normand, 
 K. Raghavachari, A. P. Rendell, J. C. Burant, S. S. Iyengar, 
 J. Tomasi, M. Cossi, J. M. Millam, M. Klene, C. Adamo, R. Cammi, 
 J. W. Ochterski, R. L. Martin, K. Morokuma, O. Farkas, 
 J. B. Foresman, and D. J. Fox, Gaussian, Inc., Wallingford CT, 2019.
 
 ******************************************
 Gaussian 16:  ES64L-G16RevC.01  3-Jul-2019
                 1-May-2024 
 ******************************************
 %chk=geometry.chk
 %mem=9GB
 %nprocshared=12
 Will use up to   12 processors via shared memory.
 ---------------------------------------
 #P wB97XD/6-311+G* NoSymm #P Field=Y-38
 ---------------------------------------
 1/38=1,172=1/1;
 2/12=2,15=1,17=6,18=5,40=1/2;
 3/5=4,6=6,7=11,11=2,14=2,15=-38,25=1,30=1,74=-58/1,2,3;
 4//1;
 5/5=2,38=5/2;
 6/7=2,8=2,9=2,10=2,28=1/1;
 99/5=1,9=1/99;
 Leave Link    1 at Wed May  1 14:47:54 2024, MaxMem=  1207959552 cpu:               1.1 elap:               1.1
 (Enter /software/gaussian/g16-c01/sse4/g16/l101.exe)
 -------
 TitleMe
 -------
 Symbolic Z-matrix:
 Charge =  1 Multiplicity = 1
 C                     0.0295    1.3397    0.0682 
 C                     1.4348    1.2867    0.0064 
 C                     2.1118    0.0511   -0.0054 
 C                     1.4451   -1.1372    0.0312 
 C                    -0.6879    0.1682    0.11 
 H                    -0.4713    2.2984    0.0781 
 H                     2.0273    2.1965   -0.0322 
 H                     1.9897   -2.0764    0.0232 
 H                    -1.7716    0.1804    0.1582 
 N                     3.5864    0.051    -0.0675 
 O                     4.1471   -1.0597   -0.0881 
 O                     4.145     1.1639   -0.0901 
 C                    -0.0236   -1.1458    0.0835 
 H                    -0.4367   -1.8725    0.7889 
 Br                   -0.5359   -1.8697   -1.7408 
 
 ITRead=  0  0  0  0  0  0  0  0  0  0  0  0  0  0  0
 MicOpt= -1 -1 -1 -1 -1 -1 -1 -1 -1 -1 -1 -1 -1 -1 -1
 NAtoms=     15 NQM=       15 NQMF=       0 NMMI=      0 NMMIF=      0
                NMic=       0 NMicF=      0.
                    Isotopes and Nuclear Properties:
 (Nuclear quadrupole moments (NQMom) in fm**2, nuclear magnetic moments (NMagM)
  in nuclear magnetons)

  Atom         1           2           3           4           5           6           7           8           9          10
 IAtWgt=          12          12          12          12          12           1           1           1           1          14
 AtmWgt=  12.0000000  12.0000000  12.0000000  12.0000000  12.0000000   1.0078250   1.0078250   1.0078250   1.0078250  14.0030740
 NucSpn=           0           0           0           0           0           1           1           1           1           2
 AtZEff=  -0.0000000  -0.0000000  -0.0000000  -0.0000000  -0.0000000  -0.0000000  -0.0000000  -0.0000000  -0.0000000  -0.0000000
 NQMom=    0.0000000   0.0000000   0.0000000   0.0000000   0.0000000   0.0000000   0.0000000   0.0000000   0.0000000   2.0440000
 NMagM=    0.0000000   0.0000000   0.0000000   0.0000000   0.0000000   2.7928460   2.7928460   2.7928460   2.7928460   0.4037610
 AtZNuc=   6.0000000   6.0000000   6.0000000   6.0000000   6.0000000   1.0000000   1.0000000   1.0000000   1.0000000   7.0000000

  Atom        11          12          13          14          15
 IAtWgt=          16          16          12           1          79
 AtmWgt=  15.9949146  15.9949146  12.0000000   1.0078250  78.9183361
 NucSpn=           0           0           0           1           3
 AtZEff=  -0.0000000  -0.0000000  -0.0000000  -0.0000000  -0.0000000
 NQMom=    0.0000000   0.0000000   0.0000000   0.0000000  31.3000000
 NMagM=    0.0000000   0.0000000   0.0000000   2.7928460   2.1063990
 AtZNuc=   8.0000000   8.0000000   6.0000000   1.0000000  35.0000000
 Leave Link  101 at Wed May  1 14:47:56 2024, MaxMem=  1207959552 cpu:               1.3 elap:               1.4
 (Enter /software/gaussian/g16-c01/sse4/g16/l202.exe)
                          Input orientation:                          
 ---------------------------------------------------------------------
 Center     Atomic      Atomic             Coordinates (Angstroms)
 Number     Number       Type             X           Y           Z
 ---------------------------------------------------------------------
      1          6           0        0.029500    1.339700    0.068200
      2          6           0        1.434800    1.286700    0.006400
      3          6           0        2.111800    0.051100   -0.005400
      4          6           0        1.445100   -1.137200    0.031200
      5          6           0       -0.687900    0.168200    0.110000
      6          1           0       -0.471300    2.298400    0.078100
      7          1           0        2.027300    2.196500   -0.032200
      8          1           0        1.989700   -2.076400    0.023200
      9          1           0       -1.771600    0.180400    0.158200
     10          7           0        3.586400    0.051000   -0.067500
     11          8           0        4.147100   -1.059700   -0.088100
     12          8           0        4.145000    1.163900   -0.090100
     13          6           0       -0.023600   -1.145800    0.083500
     14          1           0       -0.436700   -1.872500    0.788900
     15         35           0       -0.535900   -1.869700   -1.740800
 ---------------------------------------------------------------------
                    Distance matrix (angstroms):
                    1          2          3          4          5
     1  C    0.000000
     2  C    1.407656   0.000000
     3  C    2.449874   1.408963   0.000000
     4  C    2.853126   2.424049   1.363043   0.000000
     5  C    1.374344   2.401589   2.804523   2.501993   0.000000
     6  H    1.081667   2.159142   3.424870   3.934226   2.141421
     7  H    2.176095   1.086408   2.147231   3.384750   3.392128
     8  H    3.938800   3.408612   2.131193   1.085702   3.495040
     9  H    2.143837   3.395283   3.888995   3.478413   1.084840
    10  N    3.785591   2.482297   1.475907   2.450862   4.279589
    11  O    4.768247   3.587631   2.320164   2.705743   4.992415
    12  O    4.122294   2.714696   2.319353   3.549540   4.938459
    13  C    2.486114   2.837240   2.449573   1.469656   1.472614
    14  H    3.324903   3.754379   3.290289   2.157764   2.165286
    15  Br   3.727252   4.110867   3.702891   2.756973   2.757100
                    6          7          8          9         10
     6  H    0.000000
     7  H    2.503108   0.000000
     8  H    5.019802   4.273425   0.000000
     9  H    2.486588   4.304945   4.388479   0.000000
    10  N    4.640790   2.652397   2.661486   5.364313   0.000000
    11  O    5.712624   3.885809   2.387560   6.052233   1.244373
    12  O    4.756638   2.356750   3.893289   6.002923   1.245428
    13  C    3.473180   3.923079   2.218790   2.195425   3.806210
    14  H    4.231175   4.827242   2.552506   2.528663   4.540772
    15  Br   4.548146   5.101303   3.087568   3.055498   4.845862
                   11         12         13         14         15
    11  O    0.000000
    12  O    2.223602   0.000000
    13  C    4.175117   4.768865   0.000000
    14  H    4.737193   5.566358   1.093770   0.000000
    15  Br   5.031700   5.817075   2.028436   2.531646   0.000000
 Symmetry turned off by external request.
 Stoichiometry    C6H5BrNO2(1+)
 Framework group  C1[X(C6H5BrNO2)]
 Deg. of freedom    39
 Full point group                 C1      NOp   1
 Rotational constants (GHZ):           1.8252210           0.5518633           0.4576002
 Leave Link  202 at Wed May  1 14:47:57 2024, MaxMem=  1207959552 cpu:               1.2 elap:               1.2
 (Enter /software/gaussian/g16-c01/sse4/g16/l301.exe)
 Standard basis: 6-311+G(d) (5D, 7F)
 Ernie: Thresh=  0.10000D-02 Tol=  0.10000D-05 Strict=F.
 The following finite field(s) will be applied:
 An electric field of              0.0000 -0.0038  0.0000
   261 basis functions,   443 primitive gaussians,   273 cartesian basis functions
    49 alpha electrons       49 beta electrons
       nuclear repulsion energy       739.2122215416 Hartrees.
 IExCor= 4639 DFT=T Ex+Corr=wB97XD ExCW=0 ScaHFX=  1.000000
 ScaDFX=  1.000000  1.000000  1.000000  1.000000 ScalE2=  1.000000  1.000000
 IRadAn=      5 IRanWt=     -1 IRanGd=            0 ICorTp=0 IEmpDi=121
 HFx  wShort=  0.000000 wLong=  0.200000 cFull=  0.222036 cShort=  0.000000 cLong=  0.777964
 DFx  wShort=  0.000000 wLong=  0.200000 cFull=  0.000000 cShort=  0.000000 cLong=  1.000000
 NAtoms=   15 NActive=   15 NUniq=   15 SFac= 1.00D+00 NAtFMM=   60 NAOKFM=F Big=F
 Integral buffers will be    131072 words long.
 Raffenetti 2 integral format.
 Two-electron integral symmetry is turned off.
 R6Disp:  Grimme-D2 Dispersion energy=       -0.0077368520 Hartrees.
 Nuclear repulsion after empirical dispersion term =      739.2044846896 Hartrees.
 Leave Link  301 at Wed May  1 14:47:58 2024, MaxMem=  1207959552 cpu:               1.2 elap:               1.2
 (Enter /software/gaussian/g16-c01/sse4/g16/l302.exe)
 NPDir=0 NMtPBC=     1 NCelOv=     1 NCel=       1 NClECP=     1 NCelD=      1
         NCelK=      1 NCelE2=     1 NClLst=     1 CellRange=     0.0.
 One-electron integrals computed using PRISM.
 NBasis=   261 RedAO= T EigKep=  2.35D-06  NBF=   261
 NBsUse=   261 1.00D-06 EigRej= -1.00D+00 NBFU=   261
 Precomputing XC quadrature grid using
 IXCGrd= 4 IRadAn=           5 IRanWt=          -1 IRanGd=           0 AccXCQ= 0.00D+00.
 Generated NRdTot=       0 NPtTot=           0 NUsed=           0 NTot=          32
 NSgBfM=   273   273   273   273   273 MxSgAt=    15 MxSgA2=    15.
 Leave Link  302 at Wed May  1 14:48:19 2024, MaxMem=  1207959552 cpu:              21.6 elap:              21.6
 (Enter /software/gaussian/g16-c01/sse4/g16/l303.exe)
 DipDrv:  MaxL=1.
 The nuclear repulsion energy is now       739.6363928203 hartrees.
 Leave Link  303 at Wed May  1 14:48:23 2024, MaxMem=  1207959552 cpu:               3.2 elap:               3.2
 (Enter /software/gaussian/g16-c01/sse4/g16/l401.exe)
 ExpMin= 3.50D-02 ExpMax= 4.40D+05 ExpMxC= 1.51D+04 IAcc=3 IRadAn=         5 AccDes= 0.00D+00
 Harris functional with IExCor= 4639 and IRadAn=       5 diagonalized for initial guess.
 HarFok:  IExCor= 4639 AccDes= 0.00D+00 IRadAn=         5 IDoV= 1 UseB2=F ITyADJ=14
 ICtDFT=  3500011 ScaDFX=  1.000000  1.000000  1.000000  1.000000
 FoFCou: FMM=F IPFlag=           0 FMFlag=      100000 FMFlg1=           0
         NFxFlg=           0 DoJE=T BraDBF=F KetDBF=T FulRan=T
         wScrn=  0.000000 ICntrl=       500 IOpCl=  0 I1Cent=   200000004 NGrid=           0
         NMat0=    1 NMatS0=      1 NMatT0=    0 NMatD0=    1 NMtDS0=    0 NMtDT0=    0
 Symmetry not used in FoFCou.
 Harris En= -2970.59782099288    
 JPrj=0 DoOrth=F DoCkMO=F.
 Leave Link  401 at Wed May  1 14:48:53 2024, MaxMem=  1207959552 cpu:              30.1 elap:              30.1
 (Enter /software/gaussian/g16-c01/sse4/g16/l502.exe)
 Two-electron integral symmetry not used.
 Closed shell SCF:
 Using DIIS extrapolation, IDIIS=  1040.
 NGot=  1207959552 LenX=  1207804877 LenY=  1207729907
 Requested convergence on RMS density matrix=1.00D-08 within 128 cycles.
 Requested convergence on MAX density matrix=1.00D-06.
 Requested convergence on             energy=1.00D-06.
 No special actions if energy rises.
 Fock matrices will be formed incrementally for  20 cycles.

 Cycle   1  Pass 1  IDiag  1:
 FoFJK:  IHMeth= 1 ICntrl=       0 DoSepK=T KAlg= 0 I1Cent=           0 FoldK=F
 IRaf=         1 NMat=       1 IRICut=       1 DoRegI=T DoRafI=F ISym2E= 0 IDoP0=0 IntGTp=1.
 FoFCou: FMM=F IPFlag=           0 FMFlag=      100000 FMFlg1=           0
         NFxFlg=           0 DoJE=T BraDBF=F KetDBF=F FulRan=T
         wScrn=  0.000000 ICntrl=       500 IOpCl=  0 I1Cent=           0 NGrid=           0
         NMat0=    1 NMatS0=      1 NMatT0=    0 NMatD0=    1 NMtDS0=    0 NMtDT0=    0
 Symmetry not used in FoFCou.
 E= -3009.72439518682    
 DIIS: error= 3.20D-01 at cycle   1 NSaved=   1.
 NSaved= 1 IEnMin= 1 EnMin= -3009.72439518682     IErMin= 1 ErrMin= 3.20D-01
 ErrMax= 3.20D-01  0.00D+00 EMaxC= 1.00D-01 BMatC= 1.19D+01 BMatP= 1.19D+01
 IDIUse=3 WtCom= 0.00D+00 WtEn= 1.00D+00
 Coeff-Com:  0.100D+01
 Coeff-En:   0.100D+01
 Coeff:      0.100D+01
 Gap=     0.339 Goal=   None    Shift=    0.000
 GapD=    0.339 DampG=1.000 DampE=0.250 DampFc=0.2500 IDamp=-1.
 Damping current iteration by 2.50D-01
 RMSDP=4.22D-02 MaxDP=4.78D+00              OVMax= 2.53D-01

 Cycle   2  Pass 1  IDiag  1:
 RMSU=  4.20D-03    CP:  8.93D-01
 E= -3010.00650140735     Delta-E=       -0.282106220525 Rises=F Damp=T
 DIIS: error= 2.25D-01 at cycle   2 NSaved=   2.
 NSaved= 2 IEnMin= 2 EnMin= -3010.00650140735     IErMin= 2 ErrMin= 2.25D-01
 ErrMax= 2.25D-01  0.00D+00 EMaxC= 1.00D-01 BMatC= 5.45D+00 BMatP= 1.19D+01
 IDIUse=3 WtCom= 0.00D+00 WtEn= 1.00D+00
 Coeff-Com: -0.184D+01 0.284D+01
 Coeff-En:   0.000D+00 0.100D+01
 Coeff:      0.000D+00 0.100D+01
 Gap=     0.293 Goal=   None    Shift=    0.000
 RMSDP=3.31D-02 MaxDP=3.63D+00 DE=-2.82D-01 OVMax= 7.59D-02

 Cycle   3  Pass 1  IDiag  1:
 RMSU=  4.49D-03    CP:  5.50D-01  3.00D+00
 E= -3010.38808369389     Delta-E=       -0.381582286538 Rises=F Damp=F
 DIIS: error= 6.53D-02 at cycle   3 NSaved=   3.
 NSaved= 3 IEnMin= 3 EnMin= -3010.38808369389     IErMin= 3 ErrMin= 6.53D-02
 ErrMax= 6.53D-02  0.00D+00 EMaxC= 1.00D-01 BMatC= 7.24D-01 BMatP= 5.45D+00
 IDIUse=3 WtCom= 3.47D-01 WtEn= 6.53D-01
 Coeff-Com:  0.267D+01-0.350D+01 0.183D+01
 Coeff-En:   0.191D-01 0.000D+00 0.981D+00
 Coeff:      0.936D+00-0.121D+01 0.128D+01
 Gap=     0.257 Goal=   None    Shift=    0.000
 RMSDP=8.37D-03 MaxDP=4.80D-01 DE=-3.82D-01 OVMax= 6.79D-02

 Cycle   4  Pass 1  IDiag  1:
 RMSU=  4.99D-03    CP:  5.62D-01  2.25D+00  2.06D+00
 E= -3010.48565587968     Delta-E=       -0.097572185795 Rises=F Damp=F
 DIIS: error= 3.89D-02 at cycle   4 NSaved=   4.
 NSaved= 4 IEnMin= 4 EnMin= -3010.48565587968     IErMin= 4 ErrMin= 3.89D-02
 ErrMax= 3.89D-02  0.00D+00 EMaxC= 1.00D-01 BMatC= 2.40D-01 BMatP= 7.24D-01
 IDIUse=3 WtCom= 6.11D-01 WtEn= 3.89D-01
 Coeff-Com:  0.178D+00-0.222D+00 0.466D+00 0.578D+00
 Coeff-En:   0.000D+00 0.000D+00 0.212D+00 0.788D+00
 Coeff:      0.108D+00-0.135D+00 0.368D+00 0.660D+00
 Gap=     0.275 Goal=   None    Shift=    0.000
 RMSDP=3.31D-03 MaxDP=2.31D-01 DE=-9.76D-02 OVMax= 4.47D-02

 Cycle   5  Pass 1  IDiag  1:
 RMSU=  1.63D-03    CP:  5.37D-01  2.58D+00  1.96D+00  8.15D-01
 E= -3010.52903693490     Delta-E=       -0.043381055219 Rises=F Damp=F
 DIIS: error= 9.95D-03 at cycle   5 NSaved=   5.
 NSaved= 5 IEnMin= 5 EnMin= -3010.52903693490     IErMin= 5 ErrMin= 9.95D-03
 ErrMax= 9.95D-03  0.00D+00 EMaxC= 1.00D-01 BMatC= 1.28D-02 BMatP= 2.40D-01
 IDIUse=3 WtCom= 9.00D-01 WtEn= 9.95D-02
 Coeff-Com: -0.102D+00 0.142D+00 0.139D+00 0.405D+00 0.416D+00
 Coeff-En:   0.000D+00 0.000D+00 0.000D+00 0.000D+00 0.100D+01
 Coeff:     -0.915D-01 0.127D+00 0.125D+00 0.364D+00 0.474D+00
 Gap=     0.267 Goal=   None    Shift=    0.000
 RMSDP=9.98D-04 MaxDP=8.40D-02 DE=-4.34D-02 OVMax= 3.82D-02

 Cycle   6  Pass 1  IDiag  1:
 RMSU=  5.04D-04    CP:  5.32D-01  2.59D+00  1.96D+00  8.66D-01  5.74D-01
 E= -3010.53456504877     Delta-E=       -0.005528113868 Rises=F Damp=F
 DIIS: error= 2.90D-03 at cycle   6 NSaved=   6.
 NSaved= 6 IEnMin= 6 EnMin= -3010.53456504877     IErMin= 6 ErrMin= 2.90D-03
 ErrMax= 2.90D-03  0.00D+00 EMaxC= 1.00D-01 BMatC= 9.94D-04 BMatP= 1.28D-02
 IDIUse=3 WtCom= 9.71D-01 WtEn= 2.90D-02
 Coeff-Com: -0.105D+00 0.141D+00 0.199D-02 0.159D+00 0.313D+00 0.490D+00
 Coeff-En:   0.000D+00 0.000D+00 0.000D+00 0.000D+00 0.833D-01 0.917D+00
 Coeff:     -0.102D+00 0.137D+00 0.194D-02 0.154D+00 0.306D+00 0.502D+00
 Gap=     0.258 Goal=   None    Shift=    0.000
 RMSDP=2.81D-04 MaxDP=1.22D-02 DE=-5.53D-03 OVMax= 9.95D-03

 Cycle   7  Pass 1  IDiag  1:
 RMSU=  1.81D-04    CP:  5.32D-01  2.59D+00  1.96D+00  8.49D-01  6.79D-01
                    CP:  8.40D-01
 E= -3010.53525526029     Delta-E=       -0.000690211519 Rises=F Damp=F
 DIIS: error= 2.64D-04 at cycle   7 NSaved=   7.
 NSaved= 7 IEnMin= 7 EnMin= -3010.53525526029     IErMin= 7 ErrMin= 2.64D-04
 ErrMax= 2.64D-04  0.00D+00 EMaxC= 1.00D-01 BMatC= 1.37D-05 BMatP= 9.94D-04
 IDIUse=3 WtCom= 9.97D-01 WtEn= 2.64D-03
 Coeff-Com: -0.322D-01 0.429D-01-0.120D-01 0.252D-01 0.617D-01 0.150D+00
 Coeff-Com:  0.764D+00
 Coeff-En:   0.000D+00 0.000D+00 0.000D+00 0.000D+00 0.000D+00 0.000D+00
 Coeff-En:   0.100D+01
 Coeff:     -0.321D-01 0.428D-01-0.119D-01 0.251D-01 0.615D-01 0.150D+00
 Coeff:      0.765D+00
 Gap=     0.258 Goal=   None    Shift=    0.000
 RMSDP=1.30D-04 MaxDP=8.34D-03 DE=-6.90D-04 OVMax= 2.89D-03

 Cycle   8  Pass 1  IDiag  1:
 RMSU=  6.20D-05    CP:  5.31D-01  2.58D+00  1.97D+00  8.58D-01  7.01D-01
                    CP:  9.27D-01  9.88D-01
 E= -3010.53527536013     Delta-E=       -0.000020099839 Rises=F Damp=F
 DIIS: error= 1.32D-04 at cycle   8 NSaved=   8.
 NSaved= 8 IEnMin= 8 EnMin= -3010.53527536013     IErMin= 8 ErrMin= 1.32D-04
 ErrMax= 1.32D-04  0.00D+00 EMaxC= 1.00D-01 BMatC= 2.52D-06 BMatP= 1.37D-05
 IDIUse=3 WtCom= 9.99D-01 WtEn= 1.32D-03
 Coeff-Com:  0.571D-02-0.787D-02-0.373D-02-0.139D-01-0.293D-01-0.435D-01
 Coeff-Com:  0.223D+00 0.870D+00
 Coeff-En:   0.000D+00 0.000D+00 0.000D+00 0.000D+00 0.000D+00 0.000D+00
 Coeff-En:   0.000D+00 0.100D+01
 Coeff:      0.570D-02-0.786D-02-0.373D-02-0.139D-01-0.293D-01-0.434D-01
 Coeff:      0.222D+00 0.870D+00
 Gap=     0.258 Goal=   None    Shift=    0.000
 RMSDP=5.48D-05 MaxDP=4.32D-03 DE=-2.01D-05 OVMax= 2.11D-03

 Cycle   9  Pass 1  IDiag  1:
 RMSU=  2.61D-05    CP:  5.32D-01  2.58D+00  1.97D+00  8.59D-01  7.04D-01
                    CP:  9.63D-01  1.19D+00  1.31D+00
 E= -3010.53528108540     Delta-E=       -0.000005725271 Rises=F Damp=F
 DIIS: error= 4.95D-05 at cycle   9 NSaved=   9.
 NSaved= 9 IEnMin= 9 EnMin= -3010.53528108540     IErMin= 9 ErrMin= 4.95D-05
 ErrMax= 4.95D-05  0.00D+00 EMaxC= 1.00D-01 BMatC= 2.47D-07 BMatP= 2.52D-06
 IDIUse=1 WtCom= 1.00D+00 WtEn= 0.00D+00
 Coeff-Com:  0.556D-02-0.746D-02 0.567D-03-0.692D-02-0.137D-01-0.297D-01
 Coeff-Com: -0.619D-01 0.212D+00 0.901D+00
 Coeff:      0.556D-02-0.746D-02 0.567D-03-0.692D-02-0.137D-01-0.297D-01
 Coeff:     -0.619D-01 0.212D+00 0.901D+00
 Gap=     0.258 Goal=   None    Shift=    0.000
 RMSDP=1.92D-05 MaxDP=1.23D-03 DE=-5.73D-06 OVMax= 1.16D-03

 Cycle  10  Pass 1  IDiag  1:
 RMSU=  7.68D-06    CP:  5.32D-01  2.58D+00  1.97D+00  8.59D-01  7.07D-01
                    CP:  9.77D-01  1.24D+00  1.45D+00  1.21D+00
 E= -3010.53528212011     Delta-E=       -0.000001034711 Rises=F Damp=F
 DIIS: error= 1.62D-05 at cycle  10 NSaved=  10.
 NSaved=10 IEnMin=10 EnMin= -3010.53528212011     IErMin=10 ErrMin= 1.62D-05
 ErrMax= 1.62D-05  0.00D+00 EMaxC= 1.00D-01 BMatC= 6.33D-08 BMatP= 2.47D-07
 IDIUse=1 WtCom= 1.00D+00 WtEn= 0.00D+00
 Coeff-Com:  0.336D-03-0.424D-03 0.403D-03-0.864D-04 0.181D-02 0.127D-02
 Coeff-Com: -0.528D-01-0.739D-01 0.276D+00 0.847D+00
 Coeff:      0.336D-03-0.424D-03 0.403D-03-0.864D-04 0.181D-02 0.127D-02
 Coeff:     -0.528D-01-0.739D-01 0.276D+00 0.847D+00
 Gap=     0.258 Goal=   None    Shift=    0.000
 RMSDP=7.93D-06 MaxDP=5.51D-04 DE=-1.03D-06 OVMax= 4.55D-04

 Cycle  11  Pass 1  IDiag  1:
 RMSU=  4.59D-06    CP:  5.32D-01  2.58D+00  1.97D+00  8.59D-01  7.08D-01
                    CP:  9.79D-01  1.26D+00  1.48D+00  1.33D+00  1.19D+00
 E= -3010.53528228562     Delta-E=       -0.000000165513 Rises=F Damp=F
 DIIS: error= 6.53D-06 at cycle  11 NSaved=  11.
 NSaved=11 IEnMin=11 EnMin= -3010.53528228562     IErMin=11 ErrMin= 6.53D-06
 ErrMax= 6.53D-06  0.00D+00 EMaxC= 1.00D-01 BMatC= 3.97D-09 BMatP= 6.33D-08
 IDIUse=1 WtCom= 1.00D+00 WtEn= 0.00D+00
 Coeff-Com: -0.371D-03 0.502D-03 0.714D-04 0.704D-03 0.169D-02 0.357D-02
 Coeff-Com:  0.356D-02-0.288D-01-0.805D-01 0.475D-01 0.105D+01
 Coeff:     -0.371D-03 0.502D-03 0.714D-04 0.704D-03 0.169D-02 0.357D-02
 Coeff:      0.356D-02-0.288D-01-0.805D-01 0.475D-01 0.105D+01
 Gap=     0.258 Goal=   None    Shift=    0.000
 RMSDP=3.91D-06 MaxDP=2.56D-04 DE=-1.66D-07 OVMax= 1.95D-04

 Cycle  12  Pass 1  IDiag  1:
 RMSU=  1.30D-06    CP:  5.32D-01  2.58D+00  1.97D+00  8.59D-01  7.07D-01
                    CP:  9.79D-01  1.26D+00  1.48D+00  1.38D+00  1.37D+00
                    CP:  1.36D+00
 E= -3010.53528230802     Delta-E=       -0.000000022394 Rises=F Damp=F
 DIIS: error= 2.57D-06 at cycle  12 NSaved=  12.
 NSaved=12 IEnMin=12 EnMin= -3010.53528230802     IErMin=12 ErrMin= 2.57D-06
 ErrMax= 2.57D-06  0.00D+00 EMaxC= 1.00D-01 BMatC= 1.88D-09 BMatP= 3.97D-09
 IDIUse=1 WtCom= 1.00D+00 WtEn= 0.00D+00
 Coeff-Com: -0.141D-03 0.187D-03 0.165D-05 0.304D-03 0.309D-03 0.989D-03
 Coeff-Com:  0.104D-01-0.160D-02-0.843D-01-0.130D+00 0.526D+00 0.678D+00
 Coeff:     -0.141D-03 0.187D-03 0.165D-05 0.304D-03 0.309D-03 0.989D-03
 Coeff:      0.104D-01-0.160D-02-0.843D-01-0.130D+00 0.526D+00 0.678D+00
 Gap=     0.258 Goal=   None    Shift=    0.000
 RMSDP=1.28D-06 MaxDP=5.15D-05 DE=-2.24D-08 OVMax= 6.56D-05

 Cycle  13  Pass 1  IDiag  1:
 RMSU=  4.82D-07    CP:  5.32D-01  2.58D+00  1.97D+00  8.59D-01  7.07D-01
                    CP:  9.79D-01  1.26D+00  1.48D+00  1.39D+00  1.42D+00
                    CP:  1.56D+00  8.46D-01
 E= -3010.53528231189     Delta-E=       -0.000000003873 Rises=F Damp=F
 DIIS: error= 4.90D-07 at cycle  13 NSaved=  13.
 NSaved=13 IEnMin=13 EnMin= -3010.53528231189     IErMin=13 ErrMin= 4.90D-07
 ErrMax= 4.90D-07  0.00D+00 EMaxC= 1.00D-01 BMatC= 1.10D-10 BMatP= 1.88D-09
 IDIUse=1 WtCom= 1.00D+00 WtEn= 0.00D+00
 Coeff-Com: -0.361D-04 0.479D-04-0.145D-04 0.265D-04-0.788D-04-0.238D-03
 Coeff-Com:  0.116D-02 0.938D-03-0.312D-02-0.244D-01-0.132D-01 0.882D-01
 Coeff-Com:  0.951D+00
 Coeff:     -0.361D-04 0.479D-04-0.145D-04 0.265D-04-0.788D-04-0.238D-03
 Coeff:      0.116D-02 0.938D-03-0.312D-02-0.244D-01-0.132D-01 0.882D-01
 Coeff:      0.951D+00
 Gap=     0.258 Goal=   None    Shift=    0.000
 RMSDP=4.82D-07 MaxDP=4.34D-05 DE=-3.87D-09 OVMax= 1.50D-05

 Cycle  14  Pass 1  IDiag  1:
 RMSU=  1.50D-07    CP:  5.32D-01  2.58D+00  1.97D+00  8.59D-01  7.07D-01
                    CP:  9.79D-01  1.26D+00  1.48D+00  1.39D+00  1.43D+00
                    CP:  1.62D+00  9.36D-01  1.37D+00
 E= -3010.53528231226     Delta-E=       -0.000000000375 Rises=F Damp=F
 DIIS: error= 2.57D-07 at cycle  14 NSaved=  14.
 NSaved=14 IEnMin=14 EnMin= -3010.53528231226     IErMin=14 ErrMin= 2.57D-07
 ErrMax= 2.57D-07  0.00D+00 EMaxC= 1.00D-01 BMatC= 2.76D-11 BMatP= 1.10D-10
 IDIUse=1 WtCom= 1.00D+00 WtEn= 0.00D+00
 Coeff-Com:  0.459D-06-0.450D-06-0.822D-05-0.334D-04-0.762D-04-0.256D-03
 Coeff-Com: -0.117D-02 0.501D-03 0.132D-01 0.104D-01-0.869D-01-0.886D-01
 Coeff-Com:  0.372D+00 0.781D+00
 Coeff:      0.459D-06-0.450D-06-0.822D-05-0.334D-04-0.762D-04-0.256D-03
 Coeff:     -0.117D-02 0.501D-03 0.132D-01 0.104D-01-0.869D-01-0.886D-01
 Coeff:      0.372D+00 0.781D+00
 Gap=     0.258 Goal=   None    Shift=    0.000
 RMSDP=1.56D-07 MaxDP=7.09D-06 DE=-3.75D-10 OVMax= 7.12D-06

 Cycle  15  Pass 1  IDiag  1:
 RMSU=  5.76D-08    CP:  5.32D-01  2.58D+00  1.97D+00  8.59D-01  7.07D-01
                    CP:  9.79D-01  1.26D+00  1.48D+00  1.39D+00  1.43D+00
                    CP:  1.63D+00  9.40D-01  1.55D+00  1.11D+00
 E= -3010.53528231235     Delta-E=       -0.000000000083 Rises=F Damp=F
 DIIS: error= 9.74D-08 at cycle  15 NSaved=  15.
 NSaved=15 IEnMin=15 EnMin= -3010.53528231235     IErMin=15 ErrMin= 9.74D-08
 ErrMax= 9.74D-08  0.00D+00 EMaxC= 1.00D-01 BMatC= 5.65D-12 BMatP= 2.76D-11
 IDIUse=1 WtCom= 1.00D+00 WtEn= 0.00D+00
 Coeff-Com:  0.668D-05-0.885D-05 0.118D-05-0.106D-04 0.593D-05 0.175D-04
 Coeff-Com: -0.351D-03-0.148D-03 0.304D-02 0.520D-02-0.104D-01-0.460D-01
 Coeff-Com: -0.137D+00 0.197D+00 0.989D+00
 Coeff:      0.668D-05-0.885D-05 0.118D-05-0.106D-04 0.593D-05 0.175D-04
 Coeff:     -0.351D-03-0.148D-03 0.304D-02 0.520D-02-0.104D-01-0.460D-01
 Coeff:     -0.137D+00 0.197D+00 0.989D+00
 Gap=     0.258 Goal=   None    Shift=    0.000
 RMSDP=1.25D-07 MaxDP=9.65D-06 DE=-8.28D-11 OVMax= 4.74D-06

 Cycle  16  Pass 1  IDiag  1:
 RMSU=  5.54D-08    CP:  5.32D-01  2.58D+00  1.97D+00  8.59D-01  7.07D-01
                    CP:  9.79D-01  1.26D+00  1.48D+00  1.39D+00  1.43D+00
                    CP:  1.65D+00  9.48D-01  1.68D+00  1.41D+00  1.17D+00
 E= -3010.53528231238     Delta-E=       -0.000000000037 Rises=F Damp=F
 DIIS: error= 5.02D-08 at cycle  16 NSaved=  16.
 NSaved=16 IEnMin=16 EnMin= -3010.53528231238     IErMin=16 ErrMin= 5.02D-08
 ErrMax= 5.02D-08  0.00D+00 EMaxC= 1.00D-01 BMatC= 8.44D-13 BMatP= 5.65D-12
 IDIUse=1 WtCom= 1.00D+00 WtEn= 0.00D+00
 Coeff-Com:  0.233D-05-0.312D-05 0.213D-05 0.358D-05 0.170D-04 0.567D-04
 Coeff-Com:  0.130D-03-0.230D-03-0.164D-02-0.519D-03 0.166D-01 0.242D-02
 Coeff-Com: -0.961D-01-0.742D-01 0.151D+00 0.100D+01
 Coeff:      0.233D-05-0.312D-05 0.213D-05 0.358D-05 0.170D-04 0.567D-04
 Coeff:      0.130D-03-0.230D-03-0.164D-02-0.519D-03 0.166D-01 0.242D-02
 Coeff:     -0.961D-01-0.742D-01 0.151D+00 0.100D+01
 Gap=     0.258 Goal=   None    Shift=    0.000
 RMSDP=3.78D-08 MaxDP=2.17D-06 DE=-3.73D-11 OVMax= 2.53D-06

 Cycle  17  Pass 1  IDiag  1:
 RMSU=  1.13D-08    CP:  5.32D-01  2.58D+00  1.97D+00  8.59D-01  7.07D-01
                    CP:  9.79D-01  1.26D+00  1.48D+00  1.39D+00  1.43D+00
                    CP:  1.65D+00  9.48D-01  1.71D+00  1.52D+00  1.39D+00
                    CP:  1.34D+00
 E= -3010.53528231237     Delta-E=        0.000000000013 Rises=F Damp=F
 DIIS: error= 2.91D-08 at cycle  17 NSaved=  17.
 NSaved=17 IEnMin=16 EnMin= -3010.53528231238     IErMin=17 ErrMin= 2.91D-08
 ErrMax= 2.91D-08  0.00D+00 EMaxC= 1.00D-01 BMatC= 3.07D-13 BMatP= 8.44D-13
 IDIUse=1 WtCom= 1.00D+00 WtEn= 0.00D+00
 Coeff-Com: -0.695D-06 0.917D-06 0.395D-06 0.322D-05 0.615D-05 0.197D-04
 Coeff-Com:  0.100D-03-0.727D-04-0.107D-02-0.104D-02 0.714D-02 0.689D-02
 Coeff-Com: -0.893D-02-0.539D-01-0.197D+00 0.363D+00 0.885D+00
 Coeff:     -0.695D-06 0.917D-06 0.395D-06 0.322D-05 0.615D-05 0.197D-04
 Coeff:      0.100D-03-0.727D-04-0.107D-02-0.104D-02 0.714D-02 0.689D-02
 Coeff:     -0.893D-02-0.539D-01-0.197D+00 0.363D+00 0.885D+00
 Gap=     0.258 Goal=   None    Shift=    0.000
 RMSDP=2.65D-08 MaxDP=1.71D-06 DE= 1.27D-11 OVMax= 1.23D-06

 Cycle  18  Pass 1  IDiag  1:
 RMSU=  5.57D-09    CP:  5.32D-01  2.58D+00  1.97D+00  8.59D-01  7.07D-01
                    CP:  9.79D-01  1.26D+00  1.48D+00  1.39D+00  1.43D+00
                    CP:  1.65D+00  9.46D-01  1.74D+00  1.56D+00  1.47D+00
                    CP:  1.64D+00  1.29D+00
 E= -3010.53528231243     Delta-E=       -0.000000000055 Rises=F Damp=F
 DIIS: error= 9.11D-09 at cycle  18 NSaved=  18.
 NSaved=18 IEnMin=18 EnMin= -3010.53528231243     IErMin=18 ErrMin= 9.11D-09
 ErrMax= 9.11D-09  0.00D+00 EMaxC= 1.00D-01 BMatC= 2.80D-14 BMatP= 3.07D-13
 IDIUse=1 WtCom= 1.00D+00 WtEn= 0.00D+00
 Coeff-Com: -0.175D-06 0.232D-06-0.291D-06-0.660D-06-0.346D-05-0.953D-05
 Coeff-Com: -0.823D-05 0.516D-04 0.168D-03-0.165D-03-0.211D-02 0.338D-03
 Coeff-Com:  0.208D-01 0.158D-01-0.883D-01-0.116D+00 0.172D+00 0.998D+00
 Coeff:     -0.175D-06 0.232D-06-0.291D-06-0.660D-06-0.346D-05-0.953D-05
 Coeff:     -0.823D-05 0.516D-04 0.168D-03-0.165D-03-0.211D-02 0.338D-03
 Coeff:      0.208D-01 0.158D-01-0.883D-01-0.116D+00 0.172D+00 0.998D+00
 Gap=     0.258 Goal=   None    Shift=    0.000
 RMSDP=1.01D-08 MaxDP=9.67D-07 DE=-5.55D-11 OVMax= 3.62D-07

 Cycle  19  Pass 1  IDiag  1:
 RMSU=  2.08D-09    CP:  5.32D-01  2.58D+00  1.97D+00  8.59D-01  7.07D-01
                    CP:  9.79D-01  1.26D+00  1.48D+00  1.39D+00  1.43D+00
                    CP:  1.65D+00  9.48D-01  1.74D+00  1.57D+00  1.47D+00
                    CP:  1.74D+00  1.53D+00  1.31D+00
 E= -3010.53528231241     Delta-E=        0.000000000019 Rises=F Damp=F
 DIIS: error= 3.08D-09 at cycle  19 NSaved=  19.
 NSaved=19 IEnMin=18 EnMin= -3010.53528231243     IErMin=19 ErrMin= 3.08D-09
 ErrMax= 3.08D-09  0.00D+00 EMaxC= 1.00D-01 BMatC= 1.49D-15 BMatP= 2.80D-14
 IDIUse=1 WtCom= 1.00D+00 WtEn= 0.00D+00
 Large coefficients: NSaved= 19 BigCof=    0.00 CofMax=   10.00 Det=-5.61D-15
 Inversion failed.  Reducing to 18 matrices.
 Large coefficients: NSaved= 18 BigCof=    0.00 CofMax=   10.00 Det=-5.62D-15
 Inversion failed.  Reducing to 17 matrices.
 Large coefficients: NSaved= 17 BigCof=    0.00 CofMax=   10.00 Det=-5.91D-15
 Inversion failed.  Reducing to 16 matrices.
 Large coefficients: NSaved= 16 BigCof=    0.00 CofMax=   10.00 Det=-6.41D-15
 Inversion failed.  Reducing to 15 matrices.
 Coeff-Com: -0.344D-06-0.662D-06 0.205D-05 0.431D-05-0.101D-05-0.503D-04
 Coeff-Com: -0.106D-03 0.213D-03 0.179D-02 0.391D-02-0.836D-02-0.239D-01
 Coeff-Com: -0.593D-02 0.127D+00 0.906D+00
 Coeff:     -0.344D-06-0.662D-06 0.205D-05 0.431D-05-0.101D-05-0.503D-04
 Coeff:     -0.106D-03 0.213D-03 0.179D-02 0.391D-02-0.836D-02-0.239D-01
 Coeff:     -0.593D-02 0.127D+00 0.906D+00
 Gap=     0.258 Goal=   None    Shift=    0.000
 RMSDP=1.57D-09 MaxDP=7.80D-08 DE= 1.91D-11 OVMax= 4.45D-08

 SCF Done:  E(RwB97XD) =  -3010.53528231     A.U. after   19 cycles
            NFock= 19  Conv=0.16D-08     -V/T= 2.0016
 KE= 3.005859711646D+03 PE=-8.632714005480D+03 EE= 1.876682618701D+03
 Leave Link  502 at Wed May  1 15:06:51 2024, MaxMem=  1207959552 cpu:            1078.4 elap:            1078.5
 (Enter /software/gaussian/g16-c01/sse4/g16/l601.exe)
 Copying SCF densities to generalized density rwf, IOpCl= 0 IROHF=0.

 **********************************************************************

            Population analysis using the SCF Density.

 **********************************************************************

 Alpha  occ. eigenvalues -- -483.31682 -62.86716 -56.66397 -56.65840 -56.65838
 Alpha  occ. eigenvalues --  -19.45804 -19.45663 -14.85268 -10.58622 -10.57272
 Alpha  occ. eigenvalues --  -10.57157 -10.57027 -10.56558 -10.52577  -9.02529
 Alpha  occ. eigenvalues --   -6.85175  -6.83350  -6.83338  -2.95087  -2.94601
 Alpha  occ. eigenvalues --   -2.94590  -2.93130  -2.93130  -1.49530  -1.32503
 Alpha  occ. eigenvalues --   -1.22612  -1.14144  -1.11600  -1.04688  -1.00918
 Alpha  occ. eigenvalues --   -0.95426  -0.90852  -0.85144  -0.80646  -0.80527
 Alpha  occ. eigenvalues --   -0.79886  -0.78300  -0.75980  -0.75768  -0.72321
 Alpha  occ. eigenvalues --   -0.69215  -0.67372  -0.63622  -0.60247  -0.57209
 Alpha  occ. eigenvalues --   -0.56789  -0.56042  -0.55577  -0.55424
 Alpha virt. eigenvalues --   -0.29626  -0.21226  -0.15775  -0.13362  -0.09252
 Alpha virt. eigenvalues --   -0.05982  -0.05642  -0.05174  -0.04603  -0.03250
 Alpha virt. eigenvalues --   -0.02774  -0.02090  -0.01878  -0.01412  -0.00470
 Alpha virt. eigenvalues --    0.00816   0.01788   0.01998   0.02526   0.02799
 Alpha virt. eigenvalues --    0.04012   0.04677   0.05265   0.06191   0.06444
 Alpha virt. eigenvalues --    0.07132   0.07983   0.08075   0.08666   0.09757
 Alpha virt. eigenvalues --    0.10504   0.10851   0.11311   0.11897   0.12606
 Alpha virt. eigenvalues --    0.12956   0.13265   0.13760   0.14995   0.16252
 Alpha virt. eigenvalues --    0.16582   0.17721   0.17961   0.18932   0.19191
 Alpha virt. eigenvalues --    0.19651   0.20881   0.21416   0.21776   0.24507
 Alpha virt. eigenvalues --    0.25539   0.27903   0.28036   0.28801   0.30564
 Alpha virt. eigenvalues --    0.32488   0.33365   0.33841   0.35035   0.36154
 Alpha virt. eigenvalues --    0.37142   0.38320   0.39013   0.40589   0.41449
 Alpha virt. eigenvalues --    0.42661   0.43804   0.44383   0.46405   0.47451
 Alpha virt. eigenvalues --    0.47975   0.49882   0.50872   0.52040   0.53659
 Alpha virt. eigenvalues --    0.53993   0.54943   0.56410   0.56869   0.60095
 Alpha virt. eigenvalues --    0.61214   0.62121   0.63754   0.66576   0.68628
 Alpha virt. eigenvalues --    0.70054   0.72114   0.73016   0.73370   0.74286
 Alpha virt. eigenvalues --    0.74816   0.79523   0.79931   0.82711   0.85101
 Alpha virt. eigenvalues --    0.86303   0.88070   0.91785   0.93024   0.98515
 Alpha virt. eigenvalues --    0.99696   1.01201   1.04568   1.05442   1.06545
 Alpha virt. eigenvalues --    1.09027   1.11060   1.12133   1.12540   1.14293
 Alpha virt. eigenvalues --    1.22160   1.24545   1.26755   1.33071   1.36522
 Alpha virt. eigenvalues --    1.36910   1.37848   1.45058   1.54397   1.57150
 Alpha virt. eigenvalues --    1.58521   1.58733   1.60673   1.62338   1.66289
 Alpha virt. eigenvalues --    1.69151   1.69655   1.73646   1.75351   1.79095
 Alpha virt. eigenvalues --    1.81083   1.85555   1.87504   1.92917   1.95024
 Alpha virt. eigenvalues --    1.97710   2.02946   2.03805   2.06550   2.07942
 Alpha virt. eigenvalues --    2.09391   2.14768   2.20537   2.22787   2.29800
 Alpha virt. eigenvalues --    2.37616   2.41122   2.42383   2.43481   2.52541
 Alpha virt. eigenvalues --    2.56744   2.63118   2.66134   2.68239   2.71843
 Alpha virt. eigenvalues --    2.73364   2.76539   2.77431   2.81100   2.81724
 Alpha virt. eigenvalues --    2.93433   2.96235   3.00719   3.05355   3.08945
 Alpha virt. eigenvalues --    3.13057   3.15164   3.19252   3.23803   3.24305
 Alpha virt. eigenvalues --    3.27434   3.39184   3.47864   3.51300   3.54470
 Alpha virt. eigenvalues --    3.56865   3.69998   3.74190   3.82216   3.87163
 Alpha virt. eigenvalues --    4.08361   4.08600   4.16155   4.21348   4.42190
 Alpha virt. eigenvalues --    4.44436   4.57425   4.59958   4.93283   4.95952
 Alpha virt. eigenvalues --    5.04596   5.08772   5.62908   6.15853   6.64086
 Alpha virt. eigenvalues --    7.47039   7.48612   7.58423  23.21329  23.61323
 Alpha virt. eigenvalues --   23.69267  23.79587  23.96153  24.01443  35.32689
 Alpha virt. eigenvalues --   47.90710  49.85654  49.94467 289.80048 289.81717
 Alpha virt. eigenvalues --  289.941661020.91145
          Condensed to atoms (all electrons):
               1          2          3          4          5          6
     1  C    8.693794  -2.119647   0.174675  -1.500792  -0.657039   0.309431
     2  C   -2.119647  12.418819  -1.690339  -2.705388   0.774459  -0.013145
     3  C    0.174675  -1.690339  12.856137  -2.933751  -1.221963   0.023610
     4  C   -1.500792  -2.705388  -2.933751  14.648709   1.132647   0.008657
     5  C   -0.657039   0.774459  -1.221963   1.132647   7.338299   0.011887
     6  H    0.309431  -0.013145   0.023610   0.008657   0.011887   0.321445
     7  H    0.062445   0.238977   0.068648  -0.029459  -0.018106  -0.001589
     8  H    0.004876  -0.014939   0.081952   0.232548  -0.020518   0.000002
     9  H    0.037661  -0.016511   0.004833  -0.010208   0.307777  -0.002244
    10  N   -0.126876   0.322665  -0.908061   0.316389   0.018613  -0.000581
    11  O    0.019388  -0.077311  -0.258178  -0.027080  -0.058414  -0.000024
    12  O    0.311598  -0.017124  -0.282859  -0.086503  -0.041049   0.000010
    13  C    1.334297  -1.617830   0.759903  -3.320575  -1.602872  -0.006568
    14  H   -0.012248   0.003687  -0.000943  -0.038113  -0.017696  -0.000043
    15  Br   0.038390   0.015046   0.023032   0.036636   0.038428  -0.000381
               7          8          9         10         11         12
     1  C    0.062445   0.004876   0.037661  -0.126876   0.019388   0.311598
     2  C    0.238977  -0.014939  -0.016511   0.322665  -0.077311  -0.017124
     3  C    0.068648   0.081952   0.004833  -0.908061  -0.258178  -0.282859
     4  C   -0.029459   0.232548  -0.010208   0.316389  -0.027080  -0.086503
     5  C   -0.018106  -0.020518   0.307777   0.018613  -0.058414  -0.041049
     6  H   -0.001589   0.000002  -0.002244  -0.000581  -0.000024   0.000010
     7  H    0.289812   0.000000   0.000021  -0.024103  -0.001373   0.021085
     8  H    0.000000   0.305485   0.000099  -0.024960   0.023791  -0.000988
     9  H    0.000021   0.000099   0.323770   0.000368   0.000005   0.000006
    10  N   -0.024103  -0.024960   0.000368   7.351034   0.174549   0.169805
    11  O   -0.001373   0.023791   0.000005   0.174549   7.872490   0.000939
    12  O    0.021085  -0.000988   0.000006   0.169805   0.000939   7.835806
    13  C    0.013702   0.053074   0.005830  -0.167263   0.319616   0.037541
    14  H   -0.000019  -0.004461  -0.005393  -0.000160  -0.000239  -0.000075
    15  Br  -0.000054   0.003068   0.002079   0.006378   0.000033   0.002040
              13         14         15
     1  C    1.334297  -0.012248   0.038390
     2  C   -1.617830   0.003687   0.015046
     3  C    0.759903  -0.000943   0.023032
     4  C   -3.320575  -0.038113   0.036636
     5  C   -1.602872  -0.017696   0.038428
     6  H   -0.006568  -0.000043  -0.000381
     7  H    0.013702  -0.000019  -0.000054
     8  H    0.053074  -0.004461   0.003068
     9  H    0.005830  -0.005393   0.002079
    10  N   -0.167263  -0.000160   0.006378
    11  O    0.319616  -0.000239   0.000033
    12  O    0.037541  -0.000075   0.002040
    13  C   10.271581   0.372748   0.010734
    14  H    0.372748   0.353449  -0.044699
    15  Br   0.010734  -0.044699  34.719527
 Mulliken charges:
               1
     1  C   -0.569954
     2  C    0.498582
     3  C   -0.696695
     4  C    0.276284
     5  C    0.015548
     6  H    0.349534
     7  H    0.380013
     8  H    0.360970
     9  H    0.351907
    10  N   -0.107796
    11  O    0.011808
    12  O    0.049770
    13  C   -0.463918
    14  H    0.394205
    15  Br   0.149741
 Sum of Mulliken charges =   1.00000
 Mulliken charges with hydrogens summed into heavy atoms:
               1
     1  C   -0.220420
     2  C    0.878595
     3  C   -0.696695
     4  C    0.637254
     5  C    0.367455
    10  N   -0.107796
    11  O    0.011808
    12  O    0.049770
    13  C   -0.069713
    15  Br   0.149741
 Electronic spatial extent (au):  <R**2>=           2798.8320
 Charge=              1.0000 electrons
 Dipole moment (field-independent basis, Debye):
    X=             -0.6990    Y=              0.5051    Z=              0.1224  Tot=              0.8710
 Quadrupole moment (field-independent basis, Debye-Ang):
   XX=            -71.0382   YY=            -52.4943   ZZ=            -62.9390
   XY=              2.5199   XZ=              0.9886   YZ=              1.1622
 Traceless Quadrupole moment (field-independent basis, Debye-Ang):
   XX=             -8.8810   YY=              9.6629   ZZ=             -0.7819
   XY=              2.5199   XZ=              0.9886   YZ=              1.1622
 Octapole moment (field-independent basis, Debye-Ang**2):
  XXX=           -298.2682  YYY=             94.1282  ZZZ=             78.2316  XYY=            -75.3569
  XXY=             35.8801  XXZ=             32.3640  XZZ=            -77.8239  YZZ=             17.9727
  YYZ=             26.8529  XYZ=             -3.1449
 Hexadecapole moment (field-independent basis, Debye-Ang**3):
 XXXX=          -2274.5852 YYYY=           -682.6171 ZZZZ=           -349.9717 XXXY=            -48.1259
 XXXZ=            -22.0398 YYYX=            -55.8539 YYYZ=           -159.7638 ZZZX=            -18.8490
 ZZZY=           -138.2568 XXYY=           -455.8875 XXZZ=           -370.5576 YYZZ=           -166.4267
 XXYZ=            -55.4434 YYXZ=             -2.9733 ZZXY=             -8.3857
 N-N= 7.396363928203D+02 E-N=-8.632714005231D+03  KE= 3.005859711646D+03
 No NMR shielding tensors so no spin-rotation constants.
 Leave Link  601 at Wed May  1 15:06:58 2024, MaxMem=  1207959552 cpu:               7.1 elap:               7.1
 (Enter /software/gaussian/g16-c01/sse4/g16/l9999.exe)
 Unable to Open any file for archive entry.
 1\1\GINC-BHX0022\SP\RwB97XD\6-311+G(d)\C6H5Br1N1O2(1+)\BWEIGHT\01-May-
 2024\0\\#P wB97XD/6-311+G* NoSymm #P Field=Y-38\\TitleMe\\1,1\C,0,0.02
 95,1.3397,0.0682\C,0,1.4348,1.2867,0.0064\C,0,2.1118,0.0511,-0.0054\C,
 0,1.4451,-1.1372,0.0312\C,0,-0.6879,0.1682,0.11\H,0,-0.4713,2.2984,0.0
 781\H,0,2.0273,2.1965,-0.0322\H,0,1.9897,-2.0764,0.0232\H,0,-1.7716,0.
 1804,0.1582\N,0,3.5864,0.051,-0.0675\O,0,4.1471,-1.0597,-0.0881\O,0,4.
 145,1.1639,-0.0901\C,0,-0.0236,-1.1458,0.0835\H,0,-0.4367,-1.8725,0.78
 89\Br,0,-0.5359,-1.8697,-1.7408\\Version=ES64L-G16RevC.01\HF=-3010.535
 2823\RMSD=1.571e-09\Dipole=-2.1815376,1.3467978,1.194316\Quadrupole=-6
 .6028404,7.1841301,-0.5812897,1.8734541,0.7350046,0.8640593\PG=C01 [X(
 C6H5Br1N1O2)]\\@
 The archive entry for this job was punched.


 "THE TIME HAS COME", THE WALRUS SAID,
 "TO TALK OF MANY THINGS,
 OF SHOES AND SHIPS AND SEALING WAX,
 OF CABBAGES AND KINGS,
 AND WHY THE SEA IS BOILING HOT,
 AND WHETHER PIGS HAVE WINGS."
 Job cpu time:       0 days  0 hours 19 minutes  6.0 seconds.
 Elapsed time:       0 days  0 hours 19 minutes  6.0 seconds.
 File lengths (MBytes):  RWF=     40 Int=      0 D2E=      0 Chk=     32 Scr=      1
 Normal termination of Gaussian 16 at Wed May  1 15:06:59 2024.
