 Entering Gaussian System, Link 0=g16
 Initial command:
 /software/gaussian/g16-c01/sse4/g16/l1.exe "/local_scratch/24665388/Gau-10904.inp" -scrdir="/local_scratch/24665388/"
 Entering Link 1 = /software/gaussian/g16-c01/sse4/g16/l1.exe PID=     10952.
  
 Copyright (c) 1988-2019, Gaussian, Inc.  All Rights Reserved.
  
 This is part of the Gaussian(R) 16 program.  It is based on
 the Gaussian(R) 09 system (copyright 2009, Gaussian, Inc.),
 the Gaussian(R) 03 system (copyright 2003, Gaussian, Inc.),
 the Gaussian(R) 98 system (copyright 1998, Gaussian, Inc.),
 the Gaussian(R) 94 system (copyright 1995, Gaussian, Inc.),
 the Gaussian 92(TM) system (copyright 1992, Gaussian, Inc.),
 the Gaussian 90(TM) system (copyright 1990, Gaussian, Inc.),
 the Gaussian 88(TM) system (copyright 1988, Gaussian, Inc.),
 the Gaussian 86(TM) system (copyright 1986, Carnegie Mellon
 University), and the Gaussian 82(TM) system (copyright 1983,
 Carnegie Mellon University). Gaussian is a federally registered
 trademark of Gaussian, Inc.
  
 This software contains proprietary and confidential information,
 including trade secrets, belonging to Gaussian, Inc.
  
 This software is provided under written license and may be
 used, copied, transmitted, or stored only in accord with that
 written license.
  
 The following legend is applicable only to US Government
 contracts under FAR:
  
                    RESTRICTED RIGHTS LEGEND
  
 Use, reproduction and disclosure by the US Government is
 subject to restrictions as set forth in subparagraphs (a)
 and (c) of the Commercial Computer Software - Restricted
 Rights clause in FAR 52.227-19.
  
 Gaussian, Inc.
 340 Quinnipiac St., Bldg. 40, Wallingford CT 06492
  
  
 ---------------------------------------------------------------
 Warning -- This program may not be used in any manner that
 competes with the business of Gaussian, Inc. or will provide
 assistance to any competitor of Gaussian, Inc.  The licensee
 of this program is prohibited from giving any competitor of
 Gaussian, Inc. access to this program.  By using this program,
 the user acknowledges that Gaussian, Inc. is engaged in the
 business of creating and licensing software in the field of
 computational chemistry and represents and warrants to the
 licensee that it is not a competitor of Gaussian, Inc. and that
 it will not use this program in any manner prohibited above.
 ---------------------------------------------------------------
  

 Cite this work as:
 Gaussian 16, Revision C.01,
 M. J. Frisch, G. W. Trucks, H. B. Schlegel, G. E. Scuseria, 
 M. A. Robb, J. R. Cheeseman, G. Scalmani, V. Barone, 
 G. A. Petersson, H. Nakatsuji, X. Li, M. Caricato, A. V. Marenich, 
 J. Bloino, B. G. Janesko, R. Gomperts, B. Mennucci, H. P. Hratchian, 
 J. V. Ortiz, A. F. Izmaylov, J. L. Sonnenberg, D. Williams-Young, 
 F. Ding, F. Lipparini, F. Egidi, J. Goings, B. Peng, A. Petrone, 
 T. Henderson, D. Ranasinghe, V. G. Zakrzewski, J. Gao, N. Rega, 
 G. Zheng, W. Liang, M. Hada, M. Ehara, K. Toyota, R. Fukuda, 
 J. Hasegawa, M. Ishida, T. Nakajima, Y. Honda, O. Kitao, H. Nakai, 
 T. Vreven, K. Throssell, J. A. Montgomery, Jr., J. E. Peralta, 
 F. Ogliaro, M. J. Bearpark, J. J. Heyd, E. N. Brothers, K. N. Kudin, 
 V. N. Staroverov, T. A. Keith, R. Kobayashi, J. Normand, 
 K. Raghavachari, A. P. Rendell, J. C. Burant, S. S. Iyengar, 
 J. Tomasi, M. Cossi, J. M. Millam, M. Klene, C. Adamo, R. Cammi, 
 J. W. Ochterski, R. L. Martin, K. Morokuma, O. Farkas, 
 J. B. Foresman, and D. J. Fox, Gaussian, Inc., Wallingford CT, 2019.
 
 ******************************************
 Gaussian 16:  ES64L-G16RevC.01  3-Jul-2019
                 2-May-2024 
 ******************************************
 %chk=geometry.chk
 %mem=1GB
 %nprocshared=12
 Will use up to   12 processors via shared memory.
 ---------------------------------------
 #P wB97XD/6-311+G* NoSymm #P Field=Z+48
 ---------------------------------------
 1/38=1,172=1/1;
 2/12=2,15=1,17=6,18=5,40=1/2;
 3/5=4,6=6,7=11,11=2,14=3,15=48,25=1,30=1,74=-58/1,2,3;
 4//1;
 5/5=2,38=5/2;
 6/7=2,8=2,9=2,10=2,28=1/1;
 99/5=1,9=1/99;
 Leave Link    1 at Thu May  2 13:58:19 2024, MaxMem=   134217728 cpu:               2.4 elap:               2.4
 (Enter /software/gaussian/g16-c01/sse4/g16/l101.exe)
 -------
 TitleMe
 -------
 Symbolic Z-matrix:
 Charge =  1 Multiplicity = 1
 C                     0.5193    1.233    -0.0319 
 C                     1.9445    1.2692   -0.0367 
 C                     2.6204    0.0928   -0.025 
 C                    -0.196     0.0301    0.001 
 H                    -0.0207    2.1742   -0.0434 
 H                     2.4828    2.2089   -0.0361 
 H                    -1.2777    0.0399    0.0117 
 N                     4.0921    0.0959    0.0366 
 O                     4.6393   -1.0217    0.1446 
 O                     4.6649    1.1984   -0.0233 
 C                     0.4943   -1.1671    0.021 
 H                    -0.0325   -2.1149    0.0545 
 C                     1.9629   -1.2165   -0.0211 
 H                     2.4436   -1.9631    0.6151 
 Br                    2.173    -1.9491   -1.9062 
 
 ITRead=  0  0  0  0  0  0  0  0  0  0  0  0  0  0  0
 MicOpt= -1 -1 -1 -1 -1 -1 -1 -1 -1 -1 -1 -1 -1 -1 -1
 NAtoms=     15 NQM=       15 NQMF=       0 NMMI=      0 NMMIF=      0
                NMic=       0 NMicF=      0.
                    Isotopes and Nuclear Properties:
 (Nuclear quadrupole moments (NQMom) in fm**2, nuclear magnetic moments (NMagM)
  in nuclear magnetons)

  Atom         1           2           3           4           5           6           7           8           9          10
 IAtWgt=          12          12          12          12           1           1           1          14          16          16
 AtmWgt=  12.0000000  12.0000000  12.0000000  12.0000000   1.0078250   1.0078250   1.0078250  14.0030740  15.9949146  15.9949146
 NucSpn=           0           0           0           0           1           1           1           2           0           0
 AtZEff=  -0.0000000  -0.0000000  -0.0000000  -0.0000000  -0.0000000  -0.0000000  -0.0000000  -0.0000000  -0.0000000  -0.0000000
 NQMom=    0.0000000   0.0000000   0.0000000   0.0000000   0.0000000   0.0000000   0.0000000   2.0440000   0.0000000   0.0000000
 NMagM=    0.0000000   0.0000000   0.0000000   0.0000000   2.7928460   2.7928460   2.7928460   0.4037610   0.0000000   0.0000000
 AtZNuc=   6.0000000   6.0000000   6.0000000   6.0000000   1.0000000   1.0000000   1.0000000   7.0000000   8.0000000   8.0000000

  Atom        11          12          13          14          15
 IAtWgt=          12           1          12           1          79
 AtmWgt=  12.0000000   1.0078250  12.0000000   1.0078250  78.9183361
 NucSpn=           0           1           0           1           3
 AtZEff=  -0.0000000  -0.0000000  -0.0000000  -0.0000000  -0.0000000
 NQMom=    0.0000000   0.0000000   0.0000000   0.0000000  31.3000000
 NMagM=    0.0000000   2.7928460   0.0000000   2.7928460   2.1063990
 AtZNuc=   6.0000000   1.0000000   6.0000000   1.0000000  35.0000000
 Leave Link  101 at Thu May  2 13:58:21 2024, MaxMem=   134217728 cpu:               1.7 elap:               1.7
 (Enter /software/gaussian/g16-c01/sse4/g16/l202.exe)
                          Input orientation:                          
 ---------------------------------------------------------------------
 Center     Atomic      Atomic             Coordinates (Angstroms)
 Number     Number       Type             X           Y           Z
 ---------------------------------------------------------------------
      1          6           0        0.519300    1.233000   -0.031900
      2          6           0        1.944500    1.269200   -0.036700
      3          6           0        2.620400    0.092800   -0.025000
      4          6           0       -0.196000    0.030100    0.001000
      5          1           0       -0.020700    2.174200   -0.043400
      6          1           0        2.482800    2.208900   -0.036100
      7          1           0       -1.277700    0.039900    0.011700
      8          7           0        4.092100    0.095900    0.036600
      9          8           0        4.639300   -1.021700    0.144600
     10          8           0        4.664900    1.198400   -0.023300
     11          6           0        0.494300   -1.167100    0.021000
     12          1           0       -0.032500   -2.114900    0.054500
     13          6           0        1.962900   -1.216500   -0.021100
     14          1           0        2.443600   -1.963100    0.615100
     15         35           0        2.173000   -1.949100   -1.906200
 ---------------------------------------------------------------------
                    Distance matrix (angstroms):
                    1          2          3          4          5
     1  C    0.000000
     2  C    1.425668   0.000000
     3  C    2.390549   1.356796   0.000000
     4  C    1.399895   2.473566   2.817218   0.000000
     5  H    1.085168   2.163581   3.362733   2.151712   0.000000
     6  H    2.192654   1.082960   2.120598   3.453189   2.503751
     7  H    2.157452   3.449071   3.898632   1.081797   2.477564
     8  N    3.750012   2.448304   1.472992   4.288753   4.608780
     9  O    4.699917   3.541615   2.312322   4.950458   5.653735
    10  O    4.145753   2.721354   2.324292   4.999386   4.786171
    11  C    2.400813   2.835836   2.471794   1.382101   3.381369
    12  H    3.394169   3.920329   3.452266   2.151887   4.290233
    13  C    2.843264   2.485817   1.465124   2.493060   3.928360
    14  H    3.786370   3.334922   2.160489   3.364142   4.860416
    15  Br   4.046416   3.728900   2.812194   3.628609   5.028314
                    6          7          8          9         10
     6  H    0.000000
     7  H    4.341452   0.000000
     8  N    2.657047   5.370150   0.000000
     9  O    3.888434   6.012948   1.249048   0.000000
    10  O    2.404752   6.054572   1.243863   2.226587   0.000000
    11  C    3.918516   2.144043   3.813080   4.149391   4.794941
    12  H    5.003018   2.489080   4.679774   4.798846   5.748876
    13  C    3.464662   3.475788   2.501842   2.688591   3.623886
    14  H    4.222698   4.268978   2.700314   2.434893   3.916224
    15  Br   4.569706   4.420610   3.411663   3.338935   4.434144
                   11         12         13         14         15
    11  C    0.000000
    12  H    1.084880   0.000000
    13  C    1.470034   2.189625   0.000000
    14  H    2.187771   2.543302   1.092353   0.000000
    15  Br   2.672762   2.955683   2.033334   2.535818   0.000000
 Symmetry turned off by external request.
 Stoichiometry    C6H5BrNO2(1+)
 Framework group  C1[X(C6H5BrNO2)]
 Deg. of freedom    39
 Full point group                 C1      NOp   1
 Rotational constants (GHZ):           1.1632986           0.9594224           0.5957624
 Leave Link  202 at Thu May  2 13:58:23 2024, MaxMem=   134217728 cpu:               1.3 elap:               1.3
 (Enter /software/gaussian/g16-c01/sse4/g16/l301.exe)
 Standard basis: 6-311+G(d) (5D, 7F)
 Ernie: Thresh=  0.10000D-02 Tol=  0.10000D-05 Strict=F.
 The following finite field(s) will be applied:
 An electric field of              0.0000  0.0000  0.0048
   261 basis functions,   443 primitive gaussians,   273 cartesian basis functions
    49 alpha electrons       49 beta electrons
       nuclear repulsion energy       772.8945969580 Hartrees.
 IExCor= 4639 DFT=T Ex+Corr=wB97XD ExCW=0 ScaHFX=  1.000000
 ScaDFX=  1.000000  1.000000  1.000000  1.000000 ScalE2=  1.000000  1.000000
 IRadAn=      5 IRanWt=     -1 IRanGd=            0 ICorTp=0 IEmpDi=121
 HFx  wShort=  0.000000 wLong=  0.200000 cFull=  0.222036 cShort=  0.000000 cLong=  0.777964
 DFx  wShort=  0.000000 wLong=  0.200000 cFull=  0.000000 cShort=  0.000000 cLong=  1.000000
 NAtoms=   15 NActive=   15 NUniq=   15 SFac= 1.00D+00 NAtFMM=   60 NAOKFM=F Big=F
 Integral buffers will be    131072 words long.
 Raffenetti 2 integral format.
 Two-electron integral symmetry is turned off.
 R6Disp:  Grimme-D2 Dispersion energy=       -0.0080346408 Hartrees.
 Nuclear repulsion after empirical dispersion term =      772.8865623173 Hartrees.
 Leave Link  301 at Thu May  2 13:58:24 2024, MaxMem=   134217728 cpu:               1.3 elap:               1.3
 (Enter /software/gaussian/g16-c01/sse4/g16/l302.exe)
 NPDir=0 NMtPBC=     1 NCelOv=     1 NCel=       1 NClECP=     1 NCelD=      1
         NCelK=      1 NCelE2=     1 NClLst=     1 CellRange=     0.0.
 One-electron integrals computed using PRISM.
 NBasis=   261 RedAO= T EigKep=  2.52D-06  NBF=   261
 NBsUse=   261 1.00D-06 EigRej= -1.00D+00 NBFU=   261
 Precomputing XC quadrature grid using
 IXCGrd= 4 IRadAn=           5 IRanWt=          -1 IRanGd=           0 AccXCQ= 0.00D+00.
 Generated NRdTot=       0 NPtTot=           0 NUsed=           0 NTot=          32
 NSgBfM=   273   273   273   273   273 MxSgAt=    15 MxSgA2=    15.
 Leave Link  302 at Thu May  2 13:58:46 2024, MaxMem=   134217728 cpu:              21.7 elap:              21.7
 (Enter /software/gaussian/g16-c01/sse4/g16/l303.exe)
 DipDrv:  MaxL=1.
 The nuclear repulsion energy is now       772.2929331256 hartrees.
 Leave Link  303 at Thu May  2 13:58:49 2024, MaxMem=   134217728 cpu:               3.3 elap:               3.3
 (Enter /software/gaussian/g16-c01/sse4/g16/l401.exe)
 ExpMin= 3.50D-02 ExpMax= 4.40D+05 ExpMxC= 1.51D+04 IAcc=3 IRadAn=         5 AccDes= 0.00D+00
 Harris functional with IExCor= 4639 and IRadAn=       5 diagonalized for initial guess.
 HarFok:  IExCor= 4639 AccDes= 0.00D+00 IRadAn=         5 IDoV= 1 UseB2=F ITyADJ=14
 ICtDFT=  3500011 ScaDFX=  1.000000  1.000000  1.000000  1.000000
 FoFCou: FMM=F IPFlag=           0 FMFlag=      100000 FMFlg1=           0
         NFxFlg=           0 DoJE=T BraDBF=F KetDBF=T FulRan=T
         wScrn=  0.000000 ICntrl=       500 IOpCl=  0 I1Cent=   200000004 NGrid=           0
         NMat0=    1 NMatS0=      1 NMatT0=    0 NMatD0=    1 NMtDS0=    0 NMtDT0=    0
 Symmetry not used in FoFCou.
 Harris En= -2970.60129100771    
 JPrj=0 DoOrth=F DoCkMO=F.
 Leave Link  401 at Thu May  2 13:59:21 2024, MaxMem=   134217728 cpu:              31.3 elap:              31.3
 (Enter /software/gaussian/g16-c01/sse4/g16/l502.exe)
 Two-electron integral symmetry not used.
 Closed shell SCF:
 Using DIIS extrapolation, IDIIS=  1040.
 NGot=   134217728 LenX=   134063053 LenY=   133988083
 Requested convergence on RMS density matrix=1.00D-08 within 128 cycles.
 Requested convergence on MAX density matrix=1.00D-06.
 Requested convergence on             energy=1.00D-06.
 No special actions if energy rises.
 Fock matrices will be formed incrementally for  20 cycles.

 Cycle   1  Pass 1  IDiag  1:
 FoFJK:  IHMeth= 1 ICntrl=       0 DoSepK=T KAlg= 0 I1Cent=           0 FoldK=F
 IRaf=         1 NMat=       1 IRICut=       1 DoRegI=T DoRafI=F ISym2E= 0 IDoP0=0 IntGTp=1.
 FoFCou: FMM=F IPFlag=           0 FMFlag=      100000 FMFlg1=           0
         NFxFlg=           0 DoJE=T BraDBF=F KetDBF=F FulRan=T
         wScrn=  0.000000 ICntrl=       500 IOpCl=  0 I1Cent=           0 NGrid=           0
         NMat0=    1 NMatS0=      1 NMatT0=    0 NMatD0=    1 NMtDS0=    0 NMtDT0=    0
 Symmetry not used in FoFCou.
 E= -3009.69830374629    
 DIIS: error= 2.90D-01 at cycle   1 NSaved=   1.
 NSaved= 1 IEnMin= 1 EnMin= -3009.69830374629     IErMin= 1 ErrMin= 2.90D-01
 ErrMax= 2.90D-01  0.00D+00 EMaxC= 1.00D-01 BMatC= 1.20D+01 BMatP= 1.20D+01
 IDIUse=3 WtCom= 0.00D+00 WtEn= 1.00D+00
 Coeff-Com:  0.100D+01
 Coeff-En:   0.100D+01
 Coeff:      0.100D+01
 Gap=     0.316 Goal=   None    Shift=    0.000
 GapD=    0.316 DampG=1.000 DampE=0.250 DampFc=0.2500 IDamp=-1.
 Damping current iteration by 2.50D-01
 RMSDP=5.38D-02 MaxDP=5.64D+00              OVMax= 2.61D-01

 Cycle   2  Pass 1  IDiag  1:
 RMSU=  5.78D-03    CP:  9.02D-01
 E= -3009.99137250321     Delta-E=       -0.293068756919 Rises=F Damp=T
 DIIS: error= 2.19D-01 at cycle   2 NSaved=   2.
 NSaved= 2 IEnMin= 2 EnMin= -3009.99137250321     IErMin= 2 ErrMin= 2.19D-01
 ErrMax= 2.19D-01  0.00D+00 EMaxC= 1.00D-01 BMatC= 5.46D+00 BMatP= 1.20D+01
 IDIUse=3 WtCom= 0.00D+00 WtEn= 1.00D+00
 Coeff-Com: -0.182D+01 0.282D+01
 Coeff-En:   0.000D+00 0.100D+01
 Coeff:      0.000D+00 0.100D+01
 Gap=     0.269 Goal=   None    Shift=    0.000
 RMSDP=4.10D-02 MaxDP=4.72D+00 DE=-2.93D-01 OVMax= 7.38D-02

 Cycle   3  Pass 1  IDiag  1:
 RMSU=  4.87D-03    CP:  5.86D-01  2.98D+00
 E= -3010.37574266162     Delta-E=       -0.384370158408 Rises=F Damp=F
 DIIS: error= 6.62D-02 at cycle   3 NSaved=   3.
 NSaved= 3 IEnMin= 3 EnMin= -3010.37574266162     IErMin= 3 ErrMin= 6.62D-02
 ErrMax= 6.62D-02  0.00D+00 EMaxC= 1.00D-01 BMatC= 7.44D-01 BMatP= 5.46D+00
 IDIUse=3 WtCom= 3.38D-01 WtEn= 6.62D-01
 Coeff-Com:  0.261D+01-0.342D+01 0.181D+01
 Coeff-En:   0.430D-01 0.000D+00 0.957D+00
 Coeff:      0.911D+00-0.116D+01 0.125D+01
 Gap=     0.264 Goal=   None    Shift=    0.000
 RMSDP=1.29D-02 MaxDP=1.04D+00 DE=-3.84D-01 OVMax= 8.08D-02

 Cycle   4  Pass 1  IDiag  1:
 RMSU=  4.39D-03    CP:  6.45D-01  1.54D+00  1.98D+00
 E= -3010.48814810255     Delta-E=       -0.112405440934 Rises=F Damp=F
 DIIS: error= 3.73D-02 at cycle   4 NSaved=   4.
 NSaved= 4 IEnMin= 4 EnMin= -3010.48814810255     IErMin= 4 ErrMin= 3.73D-02
 ErrMax= 3.73D-02  0.00D+00 EMaxC= 1.00D-01 BMatC= 2.19D-01 BMatP= 7.44D-01
 IDIUse=3 WtCom= 6.27D-01 WtEn= 3.73D-01
 Coeff-Com: -0.671D-01 0.103D+00 0.324D+00 0.640D+00
 Coeff-En:   0.000D+00 0.000D+00 0.186D+00 0.814D+00
 Coeff:     -0.421D-01 0.646D-01 0.273D+00 0.705D+00
 Gap=     0.251 Goal=   None    Shift=    0.000
 RMSDP=7.25D-03 MaxDP=9.71D-01 DE=-1.12D-01 OVMax= 3.40D-02

 Cycle   5  Pass 1  IDiag  1:
 RMSU=  1.58D-03    CP:  5.94D-01  1.92D+00  1.90D+00  5.03D-01
 E= -3010.53138211306     Delta-E=       -0.043234010508 Rises=F Damp=F
 DIIS: error= 6.66D-03 at cycle   5 NSaved=   5.
 NSaved= 5 IEnMin= 5 EnMin= -3010.53138211306     IErMin= 5 ErrMin= 6.66D-03
 ErrMax= 6.66D-03  0.00D+00 EMaxC= 1.00D-01 BMatC= 8.64D-03 BMatP= 2.19D-01
 IDIUse=3 WtCom= 9.33D-01 WtEn= 6.66D-02
 Coeff-Com: -0.120D+00 0.165D+00 0.918D-01 0.382D+00 0.482D+00
 Coeff-En:   0.000D+00 0.000D+00 0.000D+00 0.000D+00 0.100D+01
 Coeff:     -0.112D+00 0.154D+00 0.857D-01 0.356D+00 0.516D+00
 Gap=     0.241 Goal=   None    Shift=    0.000
 RMSDP=1.81D-03 MaxDP=2.38D-01 DE=-4.32D-02 OVMax= 2.20D-02

 Cycle   6  Pass 1  IDiag  1:
 RMSU=  5.67D-04    CP:  6.05D-01  1.85D+00  1.95D+00  6.81D-01  5.99D-01
 E= -3010.53368653622     Delta-E=       -0.002304423164 Rises=F Damp=F
 DIIS: error= 2.78D-03 at cycle   6 NSaved=   6.
 NSaved= 6 IEnMin= 6 EnMin= -3010.53368653622     IErMin= 6 ErrMin= 2.78D-03
 ErrMax= 2.78D-03  0.00D+00 EMaxC= 1.00D-01 BMatC= 6.07D-04 BMatP= 8.64D-03
 IDIUse=3 WtCom= 9.72D-01 WtEn= 2.78D-02
 Coeff-Com: -0.977D-01 0.132D+00 0.413D-03 0.170D+00 0.353D+00 0.443D+00
 Coeff-En:   0.000D+00 0.000D+00 0.000D+00 0.000D+00 0.936D-01 0.906D+00
 Coeff:     -0.950D-01 0.128D+00 0.401D-03 0.165D+00 0.345D+00 0.456D+00
 Gap=     0.241 Goal=   None    Shift=    0.000
 RMSDP=5.68D-04 MaxDP=6.62D-02 DE=-2.30D-03 OVMax= 8.67D-03

 Cycle   7  Pass 1  IDiag  1:
 RMSU=  2.25D-04    CP:  6.02D-01  1.86D+00  1.95D+00  6.43D-01  7.58D-01
                    CP:  6.41D-01
 E= -3010.53411402003     Delta-E=       -0.000427483805 Rises=F Damp=F
 DIIS: error= 3.78D-04 at cycle   7 NSaved=   7.
 NSaved= 7 IEnMin= 7 EnMin= -3010.53411402003     IErMin= 7 ErrMin= 3.78D-04
 ErrMax= 3.78D-04  0.00D+00 EMaxC= 1.00D-01 BMatC= 1.75D-05 BMatP= 6.07D-04
 IDIUse=3 WtCom= 9.96D-01 WtEn= 3.78D-03
 Coeff-Com: -0.367D-01 0.490D-01-0.121D-01 0.373D-01 0.910D-01 0.189D+00
 Coeff-Com:  0.682D+00
 Coeff-En:   0.000D+00 0.000D+00 0.000D+00 0.000D+00 0.000D+00 0.000D+00
 Coeff-En:   0.100D+01
 Coeff:     -0.366D-01 0.489D-01-0.120D-01 0.372D-01 0.906D-01 0.189D+00
 Coeff:      0.683D+00
 Gap=     0.242 Goal=   None    Shift=    0.000
 RMSDP=1.43D-04 MaxDP=1.28D-02 DE=-4.27D-04 OVMax= 1.37D-03

 Cycle   8  Pass 1  IDiag  1:
 RMSU=  6.15D-05    CP:  6.01D-01  1.85D+00  1.96D+00  6.49D-01  7.96D-01
                    CP:  6.69D-01  8.86D-01
 E= -3010.53413219277     Delta-E=       -0.000018172742 Rises=F Damp=F
 DIIS: error= 1.11D-04 at cycle   8 NSaved=   8.
 NSaved= 8 IEnMin= 8 EnMin= -3010.53413219277     IErMin= 8 ErrMin= 1.11D-04
 ErrMax= 1.11D-04  0.00D+00 EMaxC= 1.00D-01 BMatC= 2.33D-06 BMatP= 1.75D-05
 IDIUse=3 WtCom= 9.99D-01 WtEn= 1.11D-03
 Coeff-Com:  0.361D-02-0.504D-02-0.359D-02-0.126D-01-0.280D-01-0.256D-01
 Coeff-Com:  0.178D+00 0.893D+00
 Coeff-En:   0.000D+00 0.000D+00 0.000D+00 0.000D+00 0.000D+00 0.000D+00
 Coeff-En:   0.000D+00 0.100D+01
 Coeff:      0.360D-02-0.504D-02-0.359D-02-0.126D-01-0.280D-01-0.256D-01
 Coeff:      0.178D+00 0.894D+00
 Gap=     0.242 Goal=   None    Shift=    0.000
 RMSDP=6.44D-05 MaxDP=4.88D-03 DE=-1.82D-05 OVMax= 9.45D-04

 Cycle   9  Pass 1  IDiag  1:
 RMSU=  2.49D-05    CP:  6.01D-01  1.85D+00  1.96D+00  6.53D-01  8.12D-01
                    CP:  6.65D-01  1.04D+00  1.21D+00
 E= -3010.53413628563     Delta-E=       -0.000004092857 Rises=F Damp=F
 DIIS: error= 2.12D-05 at cycle   9 NSaved=   9.
 NSaved= 9 IEnMin= 9 EnMin= -3010.53413628563     IErMin= 9 ErrMin= 2.12D-05
 ErrMax= 2.12D-05  0.00D+00 EMaxC= 1.00D-01 BMatC= 2.18D-07 BMatP= 2.33D-06
 IDIUse=1 WtCom= 1.00D+00 WtEn= 0.00D+00
 Coeff-Com:  0.640D-02-0.860D-02 0.622D-03-0.911D-02-0.192D-01-0.308D-01
 Coeff-Com: -0.510D-01 0.246D+00 0.865D+00
 Coeff:      0.640D-02-0.860D-02 0.622D-03-0.911D-02-0.192D-01-0.308D-01
 Coeff:     -0.510D-01 0.246D+00 0.865D+00
 Gap=     0.242 Goal=   None    Shift=    0.000
 RMSDP=5.03D-05 MaxDP=6.41D-03 DE=-4.09D-06 OVMax= 5.36D-04

 Cycle  10  Pass 1  IDiag  1:
 RMSU=  7.88D-06    CP:  6.01D-01  1.85D+00  1.96D+00  6.52D-01  8.21D-01
                    CP:  6.50D-01  1.09D+00  1.50D+00  1.07D+00
 E= -3010.53413705748     Delta-E=       -0.000000771852 Rises=F Damp=F
 DIIS: error= 1.36D-05 at cycle  10 NSaved=  10.
 NSaved=10 IEnMin=10 EnMin= -3010.53413705748     IErMin=10 ErrMin= 1.36D-05
 ErrMax= 1.36D-05  0.00D+00 EMaxC= 1.00D-01 BMatC= 6.06D-08 BMatP= 2.18D-07
 IDIUse=1 WtCom= 1.00D+00 WtEn= 0.00D+00
 Coeff-Com:  0.683D-03-0.893D-03 0.405D-03-0.458D-03 0.132D-02 0.171D-02
 Coeff-Com: -0.368D-01-0.773D-01 0.220D+00 0.892D+00
 Coeff:      0.683D-03-0.893D-03 0.405D-03-0.458D-03 0.132D-02 0.171D-02
 Coeff:     -0.368D-01-0.773D-01 0.220D+00 0.892D+00
 Gap=     0.242 Goal=   None    Shift=    0.000
 RMSDP=1.19D-05 MaxDP=1.11D-03 DE=-7.72D-07 OVMax= 2.75D-04

 Cycle  11  Pass 1  IDiag  1:
 RMSU=  6.95D-06    CP:  6.01D-01  1.85D+00  1.96D+00  6.52D-01  8.21D-01
                    CP:  6.48D-01  1.07D+00  1.59D+00  1.18D+00  1.21D+00
 E= -3010.53413723998     Delta-E=       -0.000000182500 Rises=F Damp=F
 DIIS: error= 5.11D-06 at cycle  11 NSaved=  11.
 NSaved=11 IEnMin=11 EnMin= -3010.53413723998     IErMin=11 ErrMin= 5.11D-06
 ErrMax= 5.11D-06  0.00D+00 EMaxC= 1.00D-01 BMatC= 7.10D-09 BMatP= 6.06D-08
 IDIUse=1 WtCom= 1.00D+00 WtEn= 0.00D+00
 Coeff-Com: -0.292D-03 0.393D-03 0.618D-04 0.786D-03 0.215D-02 0.427D-02
 Coeff-Com:  0.852D-02-0.273D-01-0.136D+00-0.515D-01 0.120D+01
 Coeff:     -0.292D-03 0.393D-03 0.618D-04 0.786D-03 0.215D-02 0.427D-02
 Coeff:      0.852D-02-0.273D-01-0.136D+00-0.515D-01 0.120D+01
 Gap=     0.242 Goal=   None    Shift=    0.000
 RMSDP=1.21D-05 MaxDP=1.14D-03 DE=-1.83D-07 OVMax= 2.00D-04

 Cycle  12  Pass 1  IDiag  1:
 RMSU=  1.53D-06    CP:  6.01D-01  1.85D+00  1.96D+00  6.51D-01  8.21D-01
                    CP:  6.43D-01  1.07D+00  1.65D+00  1.20D+00  1.51D+00
                    CP:  1.56D+00
 E= -3010.53413729635     Delta-E=       -0.000000056370 Rises=F Damp=F
 DIIS: error= 3.67D-06 at cycle  12 NSaved=  12.
 NSaved=12 IEnMin=12 EnMin= -3010.53413729635     IErMin=12 ErrMin= 3.67D-06
 ErrMax= 3.67D-06  0.00D+00 EMaxC= 1.00D-01 BMatC= 2.87D-09 BMatP= 7.10D-09
 IDIUse=1 WtCom= 1.00D+00 WtEn= 0.00D+00
 Coeff-Com: -0.228D-03 0.301D-03-0.381D-04 0.444D-03 0.532D-03 0.141D-02
 Coeff-Com:  0.132D-01 0.497D-02-0.122D+00-0.252D+00 0.602D+00 0.751D+00
 Coeff:     -0.228D-03 0.301D-03-0.381D-04 0.444D-03 0.532D-03 0.141D-02
 Coeff:      0.132D-01 0.497D-02-0.122D+00-0.252D+00 0.602D+00 0.751D+00
 Gap=     0.242 Goal=   None    Shift=    0.000
 RMSDP=2.72D-06 MaxDP=2.49D-04 DE=-5.64D-08 OVMax= 9.90D-05

 Cycle  13  Pass 1  IDiag  1:
 RMSU=  8.69D-07    CP:  6.01D-01  1.85D+00  1.96D+00  6.51D-01  8.21D-01
                    CP:  6.43D-01  1.07D+00  1.66D+00  1.21D+00  1.59D+00
                    CP:  1.79D+00  1.22D+00
 E= -3010.53413730857     Delta-E=       -0.000000012220 Rises=F Damp=F
 DIIS: error= 1.49D-06 at cycle  13 NSaved=  13.
 NSaved=13 IEnMin=13 EnMin= -3010.53413730857     IErMin=13 ErrMin= 1.49D-06
 ErrMax= 1.49D-06  0.00D+00 EMaxC= 1.00D-01 BMatC= 3.69D-10 BMatP= 2.87D-09
 IDIUse=1 WtCom= 1.00D+00 WtEn= 0.00D+00
 Coeff-Com:  0.158D-05-0.238D-05-0.215D-04-0.106D-03-0.490D-03-0.993D-03
 Coeff-Com: -0.150D-02 0.403D-02 0.276D-01 0.106D-02-0.219D+00 0.892D-01
 Coeff-Com:  0.110D+01
 Coeff:      0.158D-05-0.238D-05-0.215D-04-0.106D-03-0.490D-03-0.993D-03
 Coeff:     -0.150D-02 0.403D-02 0.276D-01 0.106D-02-0.219D+00 0.892D-01
 Coeff:      0.110D+01
 Gap=     0.242 Goal=   None    Shift=    0.000
 RMSDP=9.09D-07 MaxDP=4.73D-05 DE=-1.22D-08 OVMax= 4.16D-05

 Cycle  14  Pass 1  IDiag  1:
 RMSU=  3.58D-07    CP:  6.01D-01  1.85D+00  1.96D+00  6.51D-01  8.21D-01
                    CP:  6.42D-01  1.07D+00  1.66D+00  1.21D+00  1.62D+00
                    CP:  1.81D+00  1.48D+00  1.58D+00
 E= -3010.53413731059     Delta-E=       -0.000000002018 Rises=F Damp=F
 DIIS: error= 5.09D-07 at cycle  14 NSaved=  14.
 NSaved=14 IEnMin=14 EnMin= -3010.53413731059     IErMin=14 ErrMin= 5.09D-07
 ErrMax= 5.09D-07  0.00D+00 EMaxC= 1.00D-01 BMatC= 6.39D-11 BMatP= 3.69D-10
 IDIUse=1 WtCom= 1.00D+00 WtEn= 0.00D+00
 Coeff-Com:  0.169D-04-0.221D-04-0.726D-05-0.884D-04-0.213D-03-0.496D-03
 Coeff-Com: -0.237D-02 0.217D-03 0.285D-01 0.380D-01-0.176D+00-0.777D-01
 Coeff-Com:  0.387D+00 0.803D+00
 Coeff:      0.169D-04-0.221D-04-0.726D-05-0.884D-04-0.213D-03-0.496D-03
 Coeff:     -0.237D-02 0.217D-03 0.285D-01 0.380D-01-0.176D+00-0.777D-01
 Coeff:      0.387D+00 0.803D+00
 Gap=     0.242 Goal=   None    Shift=    0.000
 RMSDP=5.25D-07 MaxDP=6.23D-05 DE=-2.02D-09 OVMax= 1.36D-05

 Cycle  15  Pass 1  IDiag  1:
 RMSU=  1.49D-07    CP:  6.01D-01  1.85D+00  1.96D+00  6.52D-01  8.21D-01
                    CP:  6.43D-01  1.07D+00  1.66D+00  1.21D+00  1.62D+00
                    CP:  1.81D+00  1.57D+00  1.81D+00  1.32D+00
 E= -3010.53413731087     Delta-E=       -0.000000000287 Rises=F Damp=F
 DIIS: error= 2.75D-07 at cycle  15 NSaved=  15.
 NSaved=15 IEnMin=15 EnMin= -3010.53413731087     IErMin=15 ErrMin= 2.75D-07
 ErrMax= 2.75D-07  0.00D+00 EMaxC= 1.00D-01 BMatC= 1.05D-11 BMatP= 6.39D-11
 IDIUse=1 WtCom= 1.00D+00 WtEn= 0.00D+00
 Coeff-Com:  0.691D-05-0.919D-05 0.293D-05 0.131D-05 0.668D-04 0.113D-03
 Coeff-Com: -0.466D-04-0.689D-03-0.112D-04 0.663D-02 0.717D-02-0.321D-01
 Coeff-Com: -0.148D+00 0.197D+00 0.970D+00
 Coeff:      0.691D-05-0.919D-05 0.293D-05 0.131D-05 0.668D-04 0.113D-03
 Coeff:     -0.466D-04-0.689D-03-0.112D-04 0.663D-02 0.717D-02-0.321D-01
 Coeff:     -0.148D+00 0.197D+00 0.970D+00
 Gap=     0.242 Goal=   None    Shift=    0.000
 RMSDP=1.87D-07 MaxDP=1.12D-05 DE=-2.87D-10 OVMax= 5.86D-06

 Cycle  16  Pass 1  IDiag  1:
 RMSU=  5.89D-08    CP:  6.01D-01  1.85D+00  1.96D+00  6.52D-01  8.21D-01
                    CP:  6.42D-01  1.07D+00  1.66D+00  1.21D+00  1.62D+00
                    CP:  1.81D+00  1.60D+00  1.91D+00  1.55D+00  1.45D+00
 E= -3010.53413731090     Delta-E=       -0.000000000025 Rises=F Damp=F
 DIIS: error= 7.16D-08 at cycle  16 NSaved=  16.
 NSaved=16 IEnMin=16 EnMin= -3010.53413731090     IErMin=16 ErrMin= 7.16D-08
 ErrMax= 7.16D-08  0.00D+00 EMaxC= 1.00D-01 BMatC= 8.56D-13 BMatP= 1.05D-11
 IDIUse=1 WtCom= 1.00D+00 WtEn= 0.00D+00
 Coeff-Com: -0.444D-06 0.570D-06 0.124D-05 0.902D-05 0.303D-04 0.580D-04
 Coeff-Com:  0.206D-03-0.176D-03-0.282D-02-0.217D-02 0.177D-01 0.258D-02
 Coeff-Com: -0.521D-01-0.672D-01 0.810D-01 0.102D+01
 Coeff:     -0.444D-06 0.570D-06 0.124D-05 0.902D-05 0.303D-04 0.580D-04
 Coeff:      0.206D-03-0.176D-03-0.282D-02-0.217D-02 0.177D-01 0.258D-02
 Coeff:     -0.521D-01-0.672D-01 0.810D-01 0.102D+01
 Gap=     0.242 Goal=   None    Shift=    0.000
 RMSDP=7.82D-08 MaxDP=5.49D-06 DE=-2.55D-11 OVMax= 1.66D-06

 Cycle  17  Pass 1  IDiag  1:
 RMSU=  2.13D-08    CP:  6.01D-01  1.85D+00  1.96D+00  6.52D-01  8.21D-01
                    CP:  6.42D-01  1.07D+00  1.66D+00  1.21D+00  1.62D+00
                    CP:  1.81D+00  1.60D+00  1.93D+00  1.60D+00  1.73D+00
                    CP:  1.34D+00
 E= -3010.53413731086     Delta-E=        0.000000000040 Rises=F Damp=F
 DIIS: error= 2.52D-08 at cycle  17 NSaved=  17.
 NSaved=17 IEnMin=16 EnMin= -3010.53413731090     IErMin=17 ErrMin= 2.52D-08
 ErrMax= 2.52D-08  0.00D+00 EMaxC= 1.00D-01 BMatC= 1.72D-13 BMatP= 8.56D-13
 IDIUse=1 WtCom= 1.00D+00 WtEn= 0.00D+00
 Coeff-Com: -0.178D-05 0.238D-05-0.304D-06 0.231D-05-0.632D-06-0.266D-05
 Coeff-Com:  0.359D-04 0.846D-04-0.467D-03-0.106D-02 0.232D-02 0.417D-02
 Coeff-Com:  0.122D-01-0.402D-01-0.116D+00 0.177D+00 0.963D+00
 Coeff:     -0.178D-05 0.238D-05-0.304D-06 0.231D-05-0.632D-06-0.266D-05
 Coeff:      0.359D-04 0.846D-04-0.467D-03-0.106D-02 0.232D-02 0.417D-02
 Coeff:      0.122D-01-0.402D-01-0.116D+00 0.177D+00 0.963D+00
 Gap=     0.242 Goal=   None    Shift=    0.000
 RMSDP=5.29D-08 MaxDP=5.02D-06 DE= 4.00D-11 OVMax= 6.46D-07

 Cycle  18  Pass 1  IDiag  1:
 RMSU=  8.61D-09    CP:  6.01D-01  1.85D+00  1.96D+00  6.52D-01  8.21D-01
                    CP:  6.42D-01  1.07D+00  1.66D+00  1.21D+00  1.62D+00
                    CP:  1.81D+00  1.60D+00  1.93D+00  1.59D+00  1.81D+00
                    CP:  1.63D+00  1.30D+00
 E= -3010.53413731085     Delta-E=        0.000000000015 Rises=F Damp=F
 DIIS: error= 1.67D-08 at cycle  18 NSaved=  18.
 NSaved=18 IEnMin=16 EnMin= -3010.53413731090     IErMin=18 ErrMin= 1.67D-08
 ErrMax= 1.67D-08  0.00D+00 EMaxC= 1.00D-01 BMatC= 5.08D-14 BMatP= 1.72D-13
 IDIUse=1 WtCom= 1.00D+00 WtEn= 0.00D+00
 Coeff-Com:  0.644D-07-0.854D-07-0.234D-06-0.172D-05-0.842D-05-0.171D-04
 Coeff-Com: -0.366D-04 0.902D-04 0.390D-03-0.792D-04-0.293D-02 0.858D-03
 Coeff-Com:  0.168D-01-0.273D-02-0.619D-01-0.129D+00 0.393D+00 0.786D+00
 Coeff:      0.644D-07-0.854D-07-0.234D-06-0.172D-05-0.842D-05-0.171D-04
 Coeff:     -0.366D-04 0.902D-04 0.390D-03-0.792D-04-0.293D-02 0.858D-03
 Coeff:      0.168D-01-0.273D-02-0.619D-01-0.129D+00 0.393D+00 0.786D+00
 Gap=     0.242 Goal=   None    Shift=    0.000
 RMSDP=3.20D-08 MaxDP=3.47D-06 DE= 1.46D-11 OVMax= 2.97D-07

 Cycle  19  Pass 1  IDiag  1:
 RMSU=  2.79D-09    CP:  6.01D-01  1.85D+00  1.96D+00  6.52D-01  8.21D-01
                    CP:  6.42D-01  1.07D+00  1.66D+00  1.21D+00  1.62D+00
                    CP:  1.81D+00  1.60D+00  1.93D+00  1.58D+00  1.84D+00
                    CP:  1.72D+00  1.56D+00  1.27D+00
 E= -3010.53413731088     Delta-E=       -0.000000000033 Rises=F Damp=F
 DIIS: error= 9.55D-09 at cycle  19 NSaved=  19.
 NSaved=19 IEnMin=16 EnMin= -3010.53413731090     IErMin=19 ErrMin= 9.55D-09
 ErrMax= 9.55D-09  0.00D+00 EMaxC= 1.00D-01 BMatC= 5.20D-15 BMatP= 5.08D-14
 IDIUse=1 WtCom= 1.00D+00 WtEn= 0.00D+00
 Large coefficients: NSaved= 19 BigCof=    0.00 CofMax=   10.00 Det=-9.25D-15
 Inversion failed.  Reducing to 18 matrices.
 Large coefficients: NSaved= 18 BigCof=    0.00 CofMax=   10.00 Det=-9.36D-15
 Inversion failed.  Reducing to 17 matrices.
 Coeff-Com: -0.529D-09 0.101D-06 0.128D-05 0.225D-05-0.342D-05-0.175D-04
 Coeff-Com:  0.505D-04 0.155D-03-0.128D-03-0.654D-03-0.190D-02 0.536D-02
 Coeff-Com:  0.180D-01-0.287D-01-0.154D+00-0.485D-01 0.121D+01
 Coeff:     -0.529D-09 0.101D-06 0.128D-05 0.225D-05-0.342D-05-0.175D-04
 Coeff:      0.505D-04 0.155D-03-0.128D-03-0.654D-03-0.190D-02 0.536D-02
 Coeff:      0.180D-01-0.287D-01-0.154D+00-0.485D-01 0.121D+01
 Gap=     0.242 Goal=   None    Shift=    0.000
 RMSDP=1.09D-08 MaxDP=1.04D-06 DE=-3.27D-11 OVMax= 2.28D-07

 Cycle  20  Pass 1  IDiag  1:
 RMSU=  1.26D-09    CP:  6.01D-01  1.85D+00  1.96D+00  6.52D-01  8.21D-01
                    CP:  6.42D-01  1.07D+00  1.66D+00  1.21D+00  1.62D+00
                    CP:  1.81D+00  1.61D+00  1.93D+00  1.57D+00  1.85D+00
                    CP:  1.77D+00  1.68D+00  1.57D+00  1.58D+00
 E= -3010.53413731089     Delta-E=       -0.000000000010 Rises=F Damp=F
 DIIS: error= 3.96D-09 at cycle  20 NSaved=  18.
 NSaved=18 IEnMin=14 EnMin= -3010.53413731090     IErMin=18 ErrMin= 3.96D-09
 ErrMax= 3.96D-09  0.00D+00 EMaxC= 1.00D-01 BMatC= 2.28D-15 BMatP= 5.20D-15
 IDIUse=1 WtCom= 1.00D+00 WtEn= 0.00D+00
 Large coefficients: NSaved= 18 BigCof=    0.00 CofMax=   10.00 Det=-3.33D-15
 Inversion failed.  Reducing to 17 matrices.
 Large coefficients: NSaved= 17 BigCof=    0.00 CofMax=   10.00 Det=-3.33D-15
 Inversion failed.  Reducing to 16 matrices.
 Large coefficients: NSaved= 16 BigCof=    0.00 CofMax=   10.00 Det=-3.42D-15
 Inversion failed.  Reducing to 15 matrices.
 Coeff-Com:  0.129D-06-0.632D-06-0.184D-05 0.211D-04 0.159D-04-0.111D-03
 Coeff-Com: -0.151D-03-0.658D-03 0.168D-02 0.706D-02 0.110D-02-0.761D-01
 Coeff-Com: -0.110D+00 0.443D+00 0.735D+00
 Coeff:      0.129D-06-0.632D-06-0.184D-05 0.211D-04 0.159D-04-0.111D-03
 Coeff:     -0.151D-03-0.658D-03 0.168D-02 0.706D-02 0.110D-02-0.761D-01
 Coeff:     -0.110D+00 0.443D+00 0.735D+00
 Gap=     0.242 Goal=   None    Shift=    0.000
 RMSDP=2.72D-09 MaxDP=2.43D-07 DE=-1.00D-11 OVMax= 6.45D-08

 SCF Done:  E(RwB97XD) =  -3010.53413731     A.U. after   20 cycles
            NFock= 20  Conv=0.27D-08     -V/T= 2.0016
 KE= 3.005844834978D+03 PE=-8.698755380574D+03 EE= 1.910083475160D+03
 Leave Link  502 at Thu May  2 14:19:39 2024, MaxMem=   134217728 cpu:            1217.8 elap:            1217.9
 (Enter /software/gaussian/g16-c01/sse4/g16/l601.exe)
 Copying SCF densities to generalized density rwf, IOpCl= 0 IROHF=0.

 **********************************************************************

            Population analysis using the SCF Density.

 **********************************************************************

 Alpha  occ. eigenvalues -- -483.30256 -62.85264 -56.64974 -56.64384 -56.64370
 Alpha  occ. eigenvalues --  -19.46055 -19.46048 -14.85468 -10.58845 -10.57471
 Alpha  occ. eigenvalues --  -10.56902 -10.56513 -10.53014 -10.52391  -9.01059
 Alpha  occ. eigenvalues --   -6.83783  -6.81849  -6.81809  -2.93676  -2.93170
 Alpha  occ. eigenvalues --   -2.93138  -2.91591  -2.91591  -1.49740  -1.32703
 Alpha  occ. eigenvalues --   -1.22001  -1.12442  -1.11957  -1.04106  -0.99863
 Alpha  occ. eigenvalues --   -0.94931  -0.90209  -0.84688  -0.80625  -0.79853
 Alpha  occ. eigenvalues --   -0.79786  -0.77569  -0.75970  -0.75212  -0.71454
 Alpha  occ. eigenvalues --   -0.68143  -0.67192  -0.62768  -0.59259  -0.57219
 Alpha  occ. eigenvalues --   -0.56479  -0.55756  -0.55144  -0.53784
 Alpha virt. eigenvalues --   -0.29589  -0.20114  -0.14951  -0.12739  -0.08719
 Alpha virt. eigenvalues --   -0.06219  -0.05750  -0.04807  -0.03061  -0.02920
 Alpha virt. eigenvalues --   -0.02394  -0.01519  -0.00381   0.00329   0.01153
 Alpha virt. eigenvalues --    0.01423   0.02341   0.03388   0.03618   0.04043
 Alpha virt. eigenvalues --    0.04668   0.05664   0.06024   0.06264   0.07283
 Alpha virt. eigenvalues --    0.07725   0.07854   0.08714   0.09338   0.09978
 Alpha virt. eigenvalues --    0.10069   0.10972   0.11811   0.12487   0.12896
 Alpha virt. eigenvalues --    0.13203   0.13433   0.14157   0.15129   0.15743
 Alpha virt. eigenvalues --    0.16953   0.17175   0.17718   0.18913   0.19029
 Alpha virt. eigenvalues --    0.20387   0.21104   0.21834   0.22567   0.24627
 Alpha virt. eigenvalues --    0.24965   0.26430   0.28462   0.30085   0.32832
 Alpha virt. eigenvalues --    0.33648   0.33721   0.34311   0.34686   0.36876
 Alpha virt. eigenvalues --    0.37783   0.38332   0.39885   0.41088   0.42412
 Alpha virt. eigenvalues --    0.43740   0.44392   0.45826   0.47355   0.47639
 Alpha virt. eigenvalues --    0.48994   0.50859   0.51441   0.52933   0.53939
 Alpha virt. eigenvalues --    0.55545   0.56362   0.58439   0.58572   0.60602
 Alpha virt. eigenvalues --    0.61614   0.62741   0.65129   0.68324   0.68642
 Alpha virt. eigenvalues --    0.71718   0.72015   0.73188   0.74691   0.75124
 Alpha virt. eigenvalues --    0.75340   0.77638   0.79944   0.84102   0.86052
 Alpha virt. eigenvalues --    0.87533   0.88085   0.91832   0.94690   0.99055
 Alpha virt. eigenvalues --    1.00662   1.03005   1.04279   1.06079   1.07298
 Alpha virt. eigenvalues --    1.09162   1.12808   1.13602   1.14344   1.18240
 Alpha virt. eigenvalues --    1.21248   1.23113   1.28510   1.33900   1.36719
 Alpha virt. eigenvalues --    1.37357   1.39431   1.43744   1.55407   1.57097
 Alpha virt. eigenvalues --    1.57665   1.60210   1.61654   1.64362   1.66300
 Alpha virt. eigenvalues --    1.68480   1.71945   1.74261   1.75710   1.79938
 Alpha virt. eigenvalues --    1.84387   1.85799   1.87721   1.96050   1.97041
 Alpha virt. eigenvalues --    1.98349   2.03095   2.03491   2.07749   2.09599
 Alpha virt. eigenvalues --    2.13484   2.15183   2.22750   2.24028   2.27808
 Alpha virt. eigenvalues --    2.33961   2.40242   2.41867   2.44740   2.53737
 Alpha virt. eigenvalues --    2.58497   2.63599   2.66429   2.69196   2.71900
 Alpha virt. eigenvalues --    2.73987   2.76613   2.77815   2.80882   2.82555
 Alpha virt. eigenvalues --    2.93749   2.98532   3.01763   3.06313   3.09468
 Alpha virt. eigenvalues --    3.15310   3.16802   3.17989   3.22750   3.26784
 Alpha virt. eigenvalues --    3.28204   3.38259   3.47085   3.50546   3.54957
 Alpha virt. eigenvalues --    3.57985   3.69090   3.74420   3.84148   3.87866
 Alpha virt. eigenvalues --    4.11078   4.11948   4.20407   4.24572   4.44090
 Alpha virt. eigenvalues --    4.45577   4.55152   4.60134   4.93728   4.96539
 Alpha virt. eigenvalues --    5.05425   5.09881   5.62192   6.15320   6.69076
 Alpha virt. eigenvalues --    7.49986   7.52290   7.62354  23.22687  23.61791
 Alpha virt. eigenvalues --   23.72524  23.78560  23.96174  24.02611  35.31696
 Alpha virt. eigenvalues --   47.95100  49.85406  49.94068 289.82727 289.85065
 Alpha virt. eigenvalues --  289.976741020.96260
          Condensed to atoms (all electrons):
               1          2          3          4          5          6
     1  C    7.763994  -2.304582   0.696726  -0.014522   0.296132   0.058737
     2  C   -2.304582  17.551781  -3.651648   0.398552  -0.010117   0.193127
     3  C    0.696726  -3.651648  19.414852  -1.329943   0.017710   0.115615
     4  C   -0.014522   0.398552  -1.329943   6.399891   0.024984  -0.014911
     5  H    0.296132  -0.010117   0.017710   0.024984   0.332290  -0.001694
     6  H    0.058737   0.193127   0.115615  -0.014911  -0.001694   0.312885
     7  H    0.026960  -0.027390   0.019904   0.305914  -0.002752  -0.000003
     8  N   -0.097983  -0.158957  -1.887441   0.021801  -0.000326  -0.030194
     9  O   -0.006294   0.340510   0.037480  -0.018154  -0.000031  -0.002507
    10  O    0.265380  -0.176530  -0.281957  -0.019279  -0.000005   0.021265
    11  C    0.748887  -0.472639   2.475111  -0.302345  -0.026310   0.008733
    12  H   -0.012650   0.020230   0.005186   0.021354   0.000028  -0.000018
    13  C   -1.306683  -5.685088  -9.373914   0.866790   0.025446  -0.009966
    14  H   -0.001090   0.014003   0.040871   0.000611  -0.000038   0.000062
    15  Br   0.009163  -0.231522  -0.232916  -0.009050   0.000118  -0.000577
               7          8          9         10         11         12
     1  C    0.026960  -0.097983  -0.006294   0.265380   0.748887  -0.012650
     2  C   -0.027390  -0.158957   0.340510  -0.176530  -0.472639   0.020230
     3  C    0.019904  -1.887441   0.037480  -0.281957   2.475111   0.005186
     4  C    0.305914   0.021801  -0.018154  -0.019279  -0.302345   0.021354
     5  H   -0.002752  -0.000326  -0.000031  -0.000005  -0.026310   0.000028
     6  H   -0.000003  -0.030194  -0.002507   0.021265   0.008733  -0.000018
     7  H    0.339594   0.000031  -0.000002   0.000004   0.027977  -0.002338
     8  N    0.000031   7.689681   0.015925   0.217016  -0.328211   0.000591
     9  O   -0.000002   0.015925   7.921860  -0.000648   0.272450   0.000118
    10  O    0.000004   0.217016  -0.000648   7.809510  -0.002980  -0.000029
    11  C    0.027977  -0.328211   0.272450  -0.002980   7.988657   0.306925
    12  H   -0.002338   0.000591   0.000118  -0.000029   0.306925   0.325126
    13  C   -0.016817   1.666661  -0.602741   0.094637  -4.559530  -0.014797
    14  H   -0.000037  -0.035629   0.015244  -0.001710   0.029720  -0.005360
    15  Br  -0.000345   0.177136  -0.061329   0.005920   0.048953   0.000515
              13         14         15
     1  C   -1.306683  -0.001090   0.009163
     2  C   -5.685088   0.014003  -0.231522
     3  C   -9.373914   0.040871  -0.232916
     4  C    0.866790   0.000611  -0.009050
     5  H    0.025446  -0.000038   0.000118
     6  H   -0.009966   0.000062  -0.000577
     7  H   -0.016817  -0.000037  -0.000345
     8  N    1.666661  -0.035629   0.177136
     9  O   -0.602741   0.015244  -0.061329
    10  O    0.094637  -0.001710   0.005920
    11  C   -4.559530   0.029720   0.048953
    12  H   -0.014797  -0.005360   0.000515
    13  C   24.583908   0.245776   0.463546
    14  H    0.245776   0.346706  -0.044857
    15  Br   0.463546  -0.044857  34.644965
 Mulliken charges:
               1
     1  C   -0.122175
     2  C    0.200270
     3  C   -0.065636
     4  C   -0.331693
     5  H    0.344566
     6  H    0.349446
     7  H    0.329299
     8  N   -0.250101
     9  O    0.088118
    10  O    0.069407
    11  C   -0.215400
    12  H    0.355121
    13  C   -0.377229
    14  H    0.395728
    15  Br   0.230278
 Sum of Mulliken charges =   1.00000
 Mulliken charges with hydrogens summed into heavy atoms:
               1
     1  C    0.222391
     2  C    0.549716
     3  C   -0.065636
     4  C   -0.002394
     8  N   -0.250101
     9  O    0.088118
    10  O    0.069407
    11  C    0.139721
    13  C    0.018499
    15  Br   0.230278
 Electronic spatial extent (au):  <R**2>=           3945.1024
 Charge=              1.0000 electrons
 Dipole moment (field-independent basis, Debye):
    X=              2.8524    Y=             -1.0992    Z=             -1.6139  Tot=              3.4567
 Quadrupole moment (field-independent basis, Debye-Ang):
   XX=            -67.8657   YY=            -50.8365   ZZ=            -61.0792
   XY=             -3.3610   XZ=             -4.3411   YZ=              3.3007
 Traceless Quadrupole moment (field-independent basis, Debye-Ang):
   XX=             -7.9386   YY=              9.0907   ZZ=             -1.1521
   XY=             -3.3610   XZ=             -4.3411   YZ=              3.3007
 Octapole moment (field-independent basis, Debye-Ang**2):
  XXX=           -513.9076  YYY=             90.5942  ZZZ=             78.4120  XYY=           -135.6292
  XXY=             23.5259  XXZ=             19.8938  XZZ=           -130.0328  YZZ=             14.7657
  YYZ=             22.8187  XYZ=              9.8834
 Hexadecapole moment (field-independent basis, Debye-Ang**3):
 XXXX=          -3456.2231 YYYY=           -698.5747 ZZZZ=           -384.3480 XXXY=            177.4319
 XXXZ=            164.1663 YYYX=            181.8622 YYYZ=           -166.5234 ZZZX=            157.9006
 ZZZY=           -137.1625 XXYY=           -621.8971 XXZZ=           -520.0046 YYZZ=           -165.9215
 XXYZ=            -36.2609 YYXZ=             43.2430 ZZXY=             23.6709
 N-N= 7.722929331256D+02 E-N=-8.698755380378D+03  KE= 3.005844834978D+03
 No NMR shielding tensors so no spin-rotation constants.
 Leave Link  601 at Thu May  2 14:19:46 2024, MaxMem=   134217728 cpu:               7.2 elap:               7.2
 (Enter /software/gaussian/g16-c01/sse4/g16/l9999.exe)
 Unable to Open any file for archive entry.
 1\1\GINC-BHX0017\SP\RwB97XD\6-311+G(d)\C6H5Br1N1O2(1+)\BWEIGHT\02-May-
 2024\0\\#P wB97XD/6-311+G* NoSymm #P Field=Z+48\\TitleMe\\1,1\C,0,0.51
 93,1.233,-0.0319\C,0,1.9445,1.2692,-0.0367\C,0,2.6204,0.0928,-0.025\C,
 0,-0.196,0.0301,0.001\H,0,-0.0207,2.1742,-0.0434\H,0,2.4828,2.2089,-0.
 0361\H,0,-1.2777,0.0399,0.0117\N,0,4.0921,0.0959,0.0366\O,0,4.6393,-1.
 0217,0.1446\O,0,4.6649,1.1984,-0.0233\C,0,0.4943,-1.1671,0.021\H,0,-0.
 0325,-2.1149,0.0545\C,0,1.9629,-1.2165,-0.0211\H,0,2.4436,-1.9631,0.61
 51\Br,0,2.173,-1.9491,-1.9062\\Version=ES64L-G16RevC.01\HF=-3010.53413
 73\RMSD=2.725e-09\Dipole=-3.2069957,0.7956621,0.6142662\Quadrupole=-5.
 9021244,6.7586858,-0.8565614,-2.4988161,-3.2275277,2.4539748\PG=C01 [X
 (C6H5Br1N1O2)]\\@
 The archive entry for this job was punched.


 STEINBACH'S GUIDELINES FOR SYSTEMS PROGRAMMING:
 NEVER TEST FOR AN ERROR CONDITION YOU DON'T KNOW HOW
 TO HANDLE.
 Job cpu time:       0 days  0 hours 21 minutes 28.9 seconds.
 Elapsed time:       0 days  0 hours 21 minutes 29.0 seconds.
 File lengths (MBytes):  RWF=     40 Int=      0 D2E=      0 Chk=     32 Scr=      1
 Normal termination of Gaussian 16 at Thu May  2 14:19:47 2024.
