 Entering Gaussian System, Link 0=g16
 Initial command:
 /software/gaussian/g16-c01/sse4/g16/l1.exe "/local_scratch/24665316/Gau-8878.inp" -scrdir="/local_scratch/24665316/"
 Entering Link 1 = /software/gaussian/g16-c01/sse4/g16/l1.exe PID=      8885.
  
 Copyright (c) 1988-2019, Gaussian, Inc.  All Rights Reserved.
  
 This is part of the Gaussian(R) 16 program.  It is based on
 the Gaussian(R) 09 system (copyright 2009, Gaussian, Inc.),
 the Gaussian(R) 03 system (copyright 2003, Gaussian, Inc.),
 the Gaussian(R) 98 system (copyright 1998, Gaussian, Inc.),
 the Gaussian(R) 94 system (copyright 1995, Gaussian, Inc.),
 the Gaussian 92(TM) system (copyright 1992, Gaussian, Inc.),
 the Gaussian 90(TM) system (copyright 1990, Gaussian, Inc.),
 the Gaussian 88(TM) system (copyright 1988, Gaussian, Inc.),
 the Gaussian 86(TM) system (copyright 1986, Carnegie Mellon
 University), and the Gaussian 82(TM) system (copyright 1983,
 Carnegie Mellon University). Gaussian is a federally registered
 trademark of Gaussian, Inc.
  
 This software contains proprietary and confidential information,
 including trade secrets, belonging to Gaussian, Inc.
  
 This software is provided under written license and may be
 used, copied, transmitted, or stored only in accord with that
 written license.
  
 The following legend is applicable only to US Government
 contracts under FAR:
  
                    RESTRICTED RIGHTS LEGEND
  
 Use, reproduction and disclosure by the US Government is
 subject to restrictions as set forth in subparagraphs (a)
 and (c) of the Commercial Computer Software - Restricted
 Rights clause in FAR 52.227-19.
  
 Gaussian, Inc.
 340 Quinnipiac St., Bldg. 40, Wallingford CT 06492
  
  
 ---------------------------------------------------------------
 Warning -- This program may not be used in any manner that
 competes with the business of Gaussian, Inc. or will provide
 assistance to any competitor of Gaussian, Inc.  The licensee
 of this program is prohibited from giving any competitor of
 Gaussian, Inc. access to this program.  By using this program,
 the user acknowledges that Gaussian, Inc. is engaged in the
 business of creating and licensing software in the field of
 computational chemistry and represents and warrants to the
 licensee that it is not a competitor of Gaussian, Inc. and that
 it will not use this program in any manner prohibited above.
 ---------------------------------------------------------------
  

 Cite this work as:
 Gaussian 16, Revision C.01,
 M. J. Frisch, G. W. Trucks, H. B. Schlegel, G. E. Scuseria, 
 M. A. Robb, J. R. Cheeseman, G. Scalmani, V. Barone, 
 G. A. Petersson, H. Nakatsuji, X. Li, M. Caricato, A. V. Marenich, 
 J. Bloino, B. G. Janesko, R. Gomperts, B. Mennucci, H. P. Hratchian, 
 J. V. Ortiz, A. F. Izmaylov, J. L. Sonnenberg, D. Williams-Young, 
 F. Ding, F. Lipparini, F. Egidi, J. Goings, B. Peng, A. Petrone, 
 T. Henderson, D. Ranasinghe, V. G. Zakrzewski, J. Gao, N. Rega, 
 G. Zheng, W. Liang, M. Hada, M. Ehara, K. Toyota, R. Fukuda, 
 J. Hasegawa, M. Ishida, T. Nakajima, Y. Honda, O. Kitao, H. Nakai, 
 T. Vreven, K. Throssell, J. A. Montgomery, Jr., J. E. Peralta, 
 F. Ogliaro, M. J. Bearpark, J. J. Heyd, E. N. Brothers, K. N. Kudin, 
 V. N. Staroverov, T. A. Keith, R. Kobayashi, J. Normand, 
 K. Raghavachari, A. P. Rendell, J. C. Burant, S. S. Iyengar, 
 J. Tomasi, M. Cossi, J. M. Millam, M. Klene, C. Adamo, R. Cammi, 
 J. W. Ochterski, R. L. Martin, K. Morokuma, O. Farkas, 
 J. B. Foresman, and D. J. Fox, Gaussian, Inc., Wallingford CT, 2019.
 
 ******************************************
 Gaussian 16:  ES64L-G16RevC.01  3-Jul-2019
                 2-May-2024 
 ******************************************
 %chk=geometry.chk
 %mem=1GB
 %nprocshared=12
 Will use up to   12 processors via shared memory.
 ---------------------------------------
 #P wB97XD/6-311+G* NoSymm #P Field=Y-68
 ---------------------------------------
 1/38=1,172=1/1;
 2/12=2,15=1,17=6,18=5,40=1/2;
 3/5=4,6=6,7=11,11=2,14=2,15=-68,25=1,30=1,74=-58/1,2,3;
 4//1;
 5/5=2,38=5/2;
 6/7=2,8=2,9=2,10=2,28=1/1;
 99/5=1,9=1/99;
 Leave Link    1 at Thu May  2 13:57:41 2024, MaxMem=   134217728 cpu:               1.8 elap:               1.8
 (Enter /software/gaussian/g16-c01/sse4/g16/l101.exe)
 -------
 TitleMe
 -------
 Symbolic Z-matrix:
 Charge =  1 Multiplicity = 1
 C                     0.5193    1.233    -0.0319 
 C                     1.9445    1.2692   -0.0367 
 C                     2.6204    0.0928   -0.025 
 C                    -0.196     0.0301    0.001 
 H                    -0.0207    2.1742   -0.0434 
 H                     2.4828    2.2089   -0.0361 
 H                    -1.2777    0.0399    0.0117 
 N                     4.0921    0.0959    0.0366 
 O                     4.6393   -1.0217    0.1446 
 O                     4.6649    1.1984   -0.0233 
 C                     0.4943   -1.1671    0.021 
 H                    -0.0325   -2.1149    0.0545 
 C                     1.9629   -1.2165   -0.0211 
 H                     2.4436   -1.9631    0.6151 
 Br                    2.173    -1.9491   -1.9062 
 
 ITRead=  0  0  0  0  0  0  0  0  0  0  0  0  0  0  0
 MicOpt= -1 -1 -1 -1 -1 -1 -1 -1 -1 -1 -1 -1 -1 -1 -1
 NAtoms=     15 NQM=       15 NQMF=       0 NMMI=      0 NMMIF=      0
                NMic=       0 NMicF=      0.
                    Isotopes and Nuclear Properties:
 (Nuclear quadrupole moments (NQMom) in fm**2, nuclear magnetic moments (NMagM)
  in nuclear magnetons)

  Atom         1           2           3           4           5           6           7           8           9          10
 IAtWgt=          12          12          12          12           1           1           1          14          16          16
 AtmWgt=  12.0000000  12.0000000  12.0000000  12.0000000   1.0078250   1.0078250   1.0078250  14.0030740  15.9949146  15.9949146
 NucSpn=           0           0           0           0           1           1           1           2           0           0
 AtZEff=  -0.0000000  -0.0000000  -0.0000000  -0.0000000  -0.0000000  -0.0000000  -0.0000000  -0.0000000  -0.0000000  -0.0000000
 NQMom=    0.0000000   0.0000000   0.0000000   0.0000000   0.0000000   0.0000000   0.0000000   2.0440000   0.0000000   0.0000000
 NMagM=    0.0000000   0.0000000   0.0000000   0.0000000   2.7928460   2.7928460   2.7928460   0.4037610   0.0000000   0.0000000
 AtZNuc=   6.0000000   6.0000000   6.0000000   6.0000000   1.0000000   1.0000000   1.0000000   7.0000000   8.0000000   8.0000000

  Atom        11          12          13          14          15
 IAtWgt=          12           1          12           1          79
 AtmWgt=  12.0000000   1.0078250  12.0000000   1.0078250  78.9183361
 NucSpn=           0           1           0           1           3
 AtZEff=  -0.0000000  -0.0000000  -0.0000000  -0.0000000  -0.0000000
 NQMom=    0.0000000   0.0000000   0.0000000   0.0000000  31.3000000
 NMagM=    0.0000000   2.7928460   0.0000000   2.7928460   2.1063990
 AtZNuc=   6.0000000   1.0000000   6.0000000   1.0000000  35.0000000
 Leave Link  101 at Thu May  2 13:57:42 2024, MaxMem=   134217728 cpu:               1.6 elap:               1.7
 (Enter /software/gaussian/g16-c01/sse4/g16/l202.exe)
                          Input orientation:                          
 ---------------------------------------------------------------------
 Center     Atomic      Atomic             Coordinates (Angstroms)
 Number     Number       Type             X           Y           Z
 ---------------------------------------------------------------------
      1          6           0        0.519300    1.233000   -0.031900
      2          6           0        1.944500    1.269200   -0.036700
      3          6           0        2.620400    0.092800   -0.025000
      4          6           0       -0.196000    0.030100    0.001000
      5          1           0       -0.020700    2.174200   -0.043400
      6          1           0        2.482800    2.208900   -0.036100
      7          1           0       -1.277700    0.039900    0.011700
      8          7           0        4.092100    0.095900    0.036600
      9          8           0        4.639300   -1.021700    0.144600
     10          8           0        4.664900    1.198400   -0.023300
     11          6           0        0.494300   -1.167100    0.021000
     12          1           0       -0.032500   -2.114900    0.054500
     13          6           0        1.962900   -1.216500   -0.021100
     14          1           0        2.443600   -1.963100    0.615100
     15         35           0        2.173000   -1.949100   -1.906200
 ---------------------------------------------------------------------
                    Distance matrix (angstroms):
                    1          2          3          4          5
     1  C    0.000000
     2  C    1.425668   0.000000
     3  C    2.390549   1.356796   0.000000
     4  C    1.399895   2.473566   2.817218   0.000000
     5  H    1.085168   2.163581   3.362733   2.151712   0.000000
     6  H    2.192654   1.082960   2.120598   3.453189   2.503751
     7  H    2.157452   3.449071   3.898632   1.081797   2.477564
     8  N    3.750012   2.448304   1.472992   4.288753   4.608780
     9  O    4.699917   3.541615   2.312322   4.950458   5.653735
    10  O    4.145753   2.721354   2.324292   4.999386   4.786171
    11  C    2.400813   2.835836   2.471794   1.382101   3.381369
    12  H    3.394169   3.920329   3.452266   2.151887   4.290233
    13  C    2.843264   2.485817   1.465124   2.493060   3.928360
    14  H    3.786370   3.334922   2.160489   3.364142   4.860416
    15  Br   4.046416   3.728900   2.812194   3.628609   5.028314
                    6          7          8          9         10
     6  H    0.000000
     7  H    4.341452   0.000000
     8  N    2.657047   5.370150   0.000000
     9  O    3.888434   6.012948   1.249048   0.000000
    10  O    2.404752   6.054572   1.243863   2.226587   0.000000
    11  C    3.918516   2.144043   3.813080   4.149391   4.794941
    12  H    5.003018   2.489080   4.679774   4.798846   5.748876
    13  C    3.464662   3.475788   2.501842   2.688591   3.623886
    14  H    4.222698   4.268978   2.700314   2.434893   3.916224
    15  Br   4.569706   4.420610   3.411663   3.338935   4.434144
                   11         12         13         14         15
    11  C    0.000000
    12  H    1.084880   0.000000
    13  C    1.470034   2.189625   0.000000
    14  H    2.187771   2.543302   1.092353   0.000000
    15  Br   2.672762   2.955683   2.033334   2.535818   0.000000
 Symmetry turned off by external request.
 Stoichiometry    C6H5BrNO2(1+)
 Framework group  C1[X(C6H5BrNO2)]
 Deg. of freedom    39
 Full point group                 C1      NOp   1
 Rotational constants (GHZ):           1.1632986           0.9594224           0.5957624
 Leave Link  202 at Thu May  2 13:57:44 2024, MaxMem=   134217728 cpu:               1.3 elap:               1.3
 (Enter /software/gaussian/g16-c01/sse4/g16/l301.exe)
 Standard basis: 6-311+G(d) (5D, 7F)
 Ernie: Thresh=  0.10000D-02 Tol=  0.10000D-05 Strict=F.
 The following finite field(s) will be applied:
 An electric field of              0.0000 -0.0068  0.0000
   261 basis functions,   443 primitive gaussians,   273 cartesian basis functions
    49 alpha electrons       49 beta electrons
       nuclear repulsion energy       772.8945969580 Hartrees.
 IExCor= 4639 DFT=T Ex+Corr=wB97XD ExCW=0 ScaHFX=  1.000000
 ScaDFX=  1.000000  1.000000  1.000000  1.000000 ScalE2=  1.000000  1.000000
 IRadAn=      5 IRanWt=     -1 IRanGd=            0 ICorTp=0 IEmpDi=121
 HFx  wShort=  0.000000 wLong=  0.200000 cFull=  0.222036 cShort=  0.000000 cLong=  0.777964
 DFx  wShort=  0.000000 wLong=  0.200000 cFull=  0.000000 cShort=  0.000000 cLong=  1.000000
 NAtoms=   15 NActive=   15 NUniq=   15 SFac= 1.00D+00 NAtFMM=   60 NAOKFM=F Big=F
 Integral buffers will be    131072 words long.
 Raffenetti 2 integral format.
 Two-electron integral symmetry is turned off.
 R6Disp:  Grimme-D2 Dispersion energy=       -0.0080346408 Hartrees.
 Nuclear repulsion after empirical dispersion term =      772.8865623173 Hartrees.
 Leave Link  301 at Thu May  2 13:57:45 2024, MaxMem=   134217728 cpu:               1.0 elap:               1.0
 (Enter /software/gaussian/g16-c01/sse4/g16/l302.exe)
 NPDir=0 NMtPBC=     1 NCelOv=     1 NCel=       1 NClECP=     1 NCelD=      1
         NCelK=      1 NCelE2=     1 NClLst=     1 CellRange=     0.0.
 One-electron integrals computed using PRISM.
 NBasis=   261 RedAO= T EigKep=  2.52D-06  NBF=   261
 NBsUse=   261 1.00D-06 EigRej= -1.00D+00 NBFU=   261
 Precomputing XC quadrature grid using
 IXCGrd= 4 IRadAn=           5 IRanWt=          -1 IRanGd=           0 AccXCQ= 0.00D+00.
 Generated NRdTot=       0 NPtTot=           0 NUsed=           0 NTot=          32
 NSgBfM=   273   273   273   273   273 MxSgAt=    15 MxSgA2=    15.
 Leave Link  302 at Thu May  2 13:58:07 2024, MaxMem=   134217728 cpu:              22.1 elap:              22.1
 (Enter /software/gaussian/g16-c01/sse4/g16/l303.exe)
 DipDrv:  MaxL=1.
 The nuclear repulsion energy is now       773.7133350334 hartrees.
 Leave Link  303 at Thu May  2 13:58:10 2024, MaxMem=   134217728 cpu:               3.2 elap:               3.2
 (Enter /software/gaussian/g16-c01/sse4/g16/l401.exe)
 ExpMin= 3.50D-02 ExpMax= 4.40D+05 ExpMxC= 1.51D+04 IAcc=3 IRadAn=         5 AccDes= 0.00D+00
 Harris functional with IExCor= 4639 and IRadAn=       5 diagonalized for initial guess.
 HarFok:  IExCor= 4639 AccDes= 0.00D+00 IRadAn=         5 IDoV= 1 UseB2=F ITyADJ=14
 ICtDFT=  3500011 ScaDFX=  1.000000  1.000000  1.000000  1.000000
 FoFCou: FMM=F IPFlag=           0 FMFlag=      100000 FMFlg1=           0
         NFxFlg=           0 DoJE=T BraDBF=F KetDBF=T FulRan=T
         wScrn=  0.000000 ICntrl=       500 IOpCl=  0 I1Cent=   200000004 NGrid=           0
         NMat0=    1 NMatS0=      1 NMatT0=    0 NMatD0=    1 NMtDS0=    0 NMtDT0=    0
 Symmetry not used in FoFCou.
 Harris En= -2970.60443727407    
 JPrj=0 DoOrth=F DoCkMO=F.
 Leave Link  401 at Thu May  2 13:58:42 2024, MaxMem=   134217728 cpu:              31.5 elap:              31.5
 (Enter /software/gaussian/g16-c01/sse4/g16/l502.exe)
 Two-electron integral symmetry not used.
 Closed shell SCF:
 Using DIIS extrapolation, IDIIS=  1040.
 NGot=   134217728 LenX=   134063053 LenY=   133988083
 Requested convergence on RMS density matrix=1.00D-08 within 128 cycles.
 Requested convergence on MAX density matrix=1.00D-06.
 Requested convergence on             energy=1.00D-06.
 No special actions if energy rises.
 Fock matrices will be formed incrementally for  20 cycles.

 Cycle   1  Pass 1  IDiag  1:
 FoFJK:  IHMeth= 1 ICntrl=       0 DoSepK=T KAlg= 0 I1Cent=           0 FoldK=F
 IRaf=         1 NMat=       1 IRICut=       1 DoRegI=T DoRafI=F ISym2E= 0 IDoP0=0 IntGTp=1.
 FoFCou: FMM=F IPFlag=           0 FMFlag=      100000 FMFlg1=           0
         NFxFlg=           0 DoJE=T BraDBF=F KetDBF=F FulRan=T
         wScrn=  0.000000 ICntrl=       500 IOpCl=  0 I1Cent=           0 NGrid=           0
         NMat0=    1 NMatS0=      1 NMatT0=    0 NMatD0=    1 NMtDS0=    0 NMtDT0=    0
 Symmetry not used in FoFCou.
 E= -3009.69709577395    
 DIIS: error= 2.90D-01 at cycle   1 NSaved=   1.
 NSaved= 1 IEnMin= 1 EnMin= -3009.69709577395     IErMin= 1 ErrMin= 2.90D-01
 ErrMax= 2.90D-01  0.00D+00 EMaxC= 1.00D-01 BMatC= 1.19D+01 BMatP= 1.19D+01
 IDIUse=3 WtCom= 0.00D+00 WtEn= 1.00D+00
 Coeff-Com:  0.100D+01
 Coeff-En:   0.100D+01
 Coeff:      0.100D+01
 Gap=     0.348 Goal=   None    Shift=    0.000
 GapD=    0.348 DampG=1.000 DampE=0.250 DampFc=0.2500 IDamp=-1.
 Damping current iteration by 2.50D-01
 RMSDP=5.55D-02 MaxDP=6.48D+00              OVMax= 2.56D-01

 Cycle   2  Pass 1  IDiag  1:
 RMSU=  5.67D-03    CP:  8.97D-01
 E= -3009.98767291112     Delta-E=       -0.290577137162 Rises=F Damp=T
 DIIS: error= 2.19D-01 at cycle   2 NSaved=   2.
 NSaved= 2 IEnMin= 2 EnMin= -3009.98767291112     IErMin= 2 ErrMin= 2.19D-01
 ErrMax= 2.19D-01  0.00D+00 EMaxC= 1.00D-01 BMatC= 5.46D+00 BMatP= 1.19D+01
 IDIUse=3 WtCom= 0.00D+00 WtEn= 1.00D+00
 Coeff-Com: -0.183D+01 0.283D+01
 Coeff-En:   0.000D+00 0.100D+01
 Coeff:      0.000D+00 0.100D+01
 Gap=     0.263 Goal=   None    Shift=    0.000
 RMSDP=4.09D-02 MaxDP=4.91D+00 DE=-2.91D-01 OVMax= 7.03D-02

 Cycle   3  Pass 1  IDiag  1:
 RMSU=  5.43D-03    CP:  5.80D-01  3.00D+00
 E= -3010.37937250652     Delta-E=       -0.391699595403 Rises=F Damp=F
 DIIS: error= 6.56D-02 at cycle   3 NSaved=   3.
 NSaved= 3 IEnMin= 3 EnMin= -3010.37937250652     IErMin= 3 ErrMin= 6.56D-02
 ErrMax= 6.56D-02  0.00D+00 EMaxC= 1.00D-01 BMatC= 7.27D-01 BMatP= 5.46D+00
 IDIUse=3 WtCom= 3.44D-01 WtEn= 6.56D-01
 Coeff-Com:  0.250D+01-0.327D+01 0.177D+01
 Coeff-En:   0.256D-01 0.000D+00 0.974D+00
 Coeff:      0.878D+00-0.113D+01 0.125D+01
 Gap=     0.264 Goal=   None    Shift=    0.000
 RMSDP=1.18D-02 MaxDP=7.05D-01 DE=-3.92D-01 OVMax= 7.43D-02

 Cycle   4  Pass 1  IDiag  1:
 RMSU=  4.63D-03    CP:  6.16D-01  1.58D+00  2.08D+00
 E= -3010.47951302609     Delta-E=       -0.100140519573 Rises=F Damp=F
 DIIS: error= 3.89D-02 at cycle   4 NSaved=   4.
 NSaved= 4 IEnMin= 4 EnMin= -3010.47951302609     IErMin= 4 ErrMin= 3.89D-02
 ErrMax= 3.89D-02  0.00D+00 EMaxC= 1.00D-01 BMatC= 2.41D-01 BMatP= 7.27D-01
 IDIUse=3 WtCom= 6.11D-01 WtEn= 3.89D-01
 Coeff-Com:  0.258D+00-0.328D+00 0.509D+00 0.562D+00
 Coeff-En:   0.000D+00 0.000D+00 0.219D+00 0.781D+00
 Coeff:      0.158D+00-0.201D+00 0.396D+00 0.647D+00
 Gap=     0.270 Goal=   None    Shift=    0.000
 RMSDP=3.87D-03 MaxDP=2.34D-01 DE=-1.00D-01 OVMax= 5.95D-02

 Cycle   5  Pass 1  IDiag  1:
 RMSU=  1.90D-03    CP:  6.02D-01  1.86D+00  2.02D+00  4.76D-01
 E= -3010.52356148168     Delta-E=       -0.044048455590 Rises=F Damp=F
 DIIS: error= 1.28D-02 at cycle   5 NSaved=   5.
 NSaved= 5 IEnMin= 5 EnMin= -3010.52356148168     IErMin= 5 ErrMin= 1.28D-02
 ErrMax= 1.28D-02  0.00D+00 EMaxC= 1.00D-01 BMatC= 1.54D-02 BMatP= 2.41D-01
 IDIUse=3 WtCom= 8.72D-01 WtEn= 1.28D-01
 Coeff-Com: -0.422D-01 0.628D-01 0.179D+00 0.404D+00 0.397D+00
 Coeff-En:   0.000D+00 0.000D+00 0.000D+00 0.367D-01 0.963D+00
 Coeff:     -0.368D-01 0.547D-01 0.156D+00 0.357D+00 0.469D+00
 Gap=     0.263 Goal=   None    Shift=    0.000
 RMSDP=3.29D-03 MaxDP=4.37D-01 DE=-4.40D-02 OVMax= 3.78D-02

 Cycle   6  Pass 1  IDiag  1:
 RMSU=  8.86D-04    CP:  5.81D-01  1.89D+00  2.01D+00  7.56D-01  3.09D-01
 E= -3010.53100871726     Delta-E=       -0.007447235580 Rises=F Damp=F
 DIIS: error= 4.16D-03 at cycle   6 NSaved=   6.
 NSaved= 6 IEnMin= 6 EnMin= -3010.53100871726     IErMin= 6 ErrMin= 4.16D-03
 ErrMax= 4.16D-03  0.00D+00 EMaxC= 1.00D-01 BMatC= 1.56D-03 BMatP= 1.54D-02
 IDIUse=3 WtCom= 9.58D-01 WtEn= 4.16D-02
 Coeff-Com: -0.774D-01 0.104D+00 0.712D-02 0.138D+00 0.316D+00 0.512D+00
 Coeff-En:   0.000D+00 0.000D+00 0.000D+00 0.000D+00 0.124D+00 0.876D+00
 Coeff:     -0.742D-01 0.100D+00 0.682D-02 0.132D+00 0.308D+00 0.527D+00
 Gap=     0.246 Goal=   None    Shift=    0.000
 RMSDP=8.55D-04 MaxDP=1.16D-01 DE=-7.45D-03 OVMax= 9.73D-03

 Cycle   7  Pass 1  IDiag  1:
 RMSU=  2.11D-04    CP:  5.86D-01  1.89D+00  2.03D+00  7.12D-01  5.15D-01
                    CP:  6.89D-01
 E= -3010.53211422866     Delta-E=       -0.001105511401 Rises=F Damp=F
 DIIS: error= 3.38D-04 at cycle   7 NSaved=   7.
 NSaved= 7 IEnMin= 7 EnMin= -3010.53211422866     IErMin= 7 ErrMin= 3.38D-04
 ErrMax= 3.38D-04  0.00D+00 EMaxC= 1.00D-01 BMatC= 1.80D-05 BMatP= 1.56D-03
 IDIUse=3 WtCom= 9.97D-01 WtEn= 3.38D-03
 Coeff-Com: -0.287D-01 0.381D-01-0.116D-01 0.224D-01 0.764D-01 0.185D+00
 Coeff-Com:  0.718D+00
 Coeff-En:   0.000D+00 0.000D+00 0.000D+00 0.000D+00 0.000D+00 0.000D+00
 Coeff-En:   0.100D+01
 Coeff:     -0.286D-01 0.380D-01-0.116D-01 0.223D-01 0.761D-01 0.184D+00
 Coeff:      0.719D+00
 Gap=     0.247 Goal=   None    Shift=    0.000
 RMSDP=3.03D-04 MaxDP=3.93D-02 DE=-1.11D-03 OVMax= 2.48D-03

 Cycle   8  Pass 1  IDiag  1:
 RMSU=  8.60D-05    CP:  5.84D-01  1.88D+00  2.03D+00  7.29D-01  5.16D-01
                    CP:  8.12D-01  9.16D-01
 E= -3010.53214056929     Delta-E=       -0.000026340625 Rises=F Damp=F
 DIIS: error= 9.32D-05 at cycle   8 NSaved=   8.
 NSaved= 8 IEnMin= 8 EnMin= -3010.53214056929     IErMin= 8 ErrMin= 9.32D-05
 ErrMax= 9.32D-05  0.00D+00 EMaxC= 1.00D-01 BMatC= 2.56D-06 BMatP= 1.80D-05
 IDIUse=1 WtCom= 1.00D+00 WtEn= 0.00D+00
 Coeff-Com:  0.649D-02-0.891D-02-0.360D-02-0.154D-01-0.319D-01-0.464D-01
 Coeff-Com:  0.164D+00 0.936D+00
 Coeff:      0.649D-02-0.891D-02-0.360D-02-0.154D-01-0.319D-01-0.464D-01
 Coeff:      0.164D+00 0.936D+00
 Gap=     0.247 Goal=   None    Shift=    0.000
 RMSDP=7.08D-05 MaxDP=2.73D-03 DE=-2.63D-05 OVMax= 2.14D-03

 Cycle   9  Pass 1  IDiag  1:
 RMSU=  3.06D-05    CP:  5.84D-01  1.88D+00  2.03D+00  7.37D-01  5.20D-01
                    CP:  8.28D-01  1.07D+00  1.31D+00
 E= -3010.53214838621     Delta-E=       -0.000007816918 Rises=F Damp=F
 DIIS: error= 4.38D-05 at cycle   9 NSaved=   9.
 NSaved= 9 IEnMin= 9 EnMin= -3010.53214838621     IErMin= 9 ErrMin= 4.38D-05
 ErrMax= 4.38D-05  0.00D+00 EMaxC= 1.00D-01 BMatC= 4.32D-07 BMatP= 2.56D-06
 IDIUse=1 WtCom= 1.00D+00 WtEn= 0.00D+00
 Coeff-Com:  0.738D-02-0.990D-02 0.101D-02-0.854D-02-0.178D-01-0.361D-01
 Coeff-Com: -0.686D-01 0.230D+00 0.903D+00
 Coeff:      0.738D-02-0.990D-02 0.101D-02-0.854D-02-0.178D-01-0.361D-01
 Coeff:     -0.686D-01 0.230D+00 0.903D+00
 Gap=     0.247 Goal=   None    Shift=    0.000
 RMSDP=6.65D-05 MaxDP=8.29D-03 DE=-7.82D-06 OVMax= 1.22D-03

 Cycle  10  Pass 1  IDiag  1:
 RMSU=  1.21D-05    CP:  5.83D-01  1.88D+00  2.03D+00  7.38D-01  5.18D-01
                    CP:  8.43D-01  1.10D+00  1.62D+00  1.10D+00
 E= -3010.53215027276     Delta-E=       -0.000001886553 Rises=F Damp=F
 DIIS: error= 2.12D-05 at cycle  10 NSaved=  10.
 NSaved=10 IEnMin=10 EnMin= -3010.53215027276     IErMin=10 ErrMin= 2.12D-05
 ErrMax= 2.12D-05  0.00D+00 EMaxC= 1.00D-01 BMatC= 1.29D-07 BMatP= 4.32D-07
 IDIUse=1 WtCom= 1.00D+00 WtEn= 0.00D+00
 Coeff-Com:  0.278D-03-0.338D-03 0.690D-03 0.883D-03 0.606D-02 0.100D-01
 Coeff-Com: -0.448D-01-0.182D+00 0.189D+00 0.102D+01
 Coeff:      0.278D-03-0.338D-03 0.690D-03 0.883D-03 0.606D-02 0.100D-01
 Coeff:     -0.448D-01-0.182D+00 0.189D+00 0.102D+01
 Gap=     0.247 Goal=   None    Shift=    0.000
 RMSDP=2.38D-05 MaxDP=2.06D-03 DE=-1.89D-06 OVMax= 7.31D-04

 Cycle  11  Pass 1  IDiag  1:
 RMSU=  1.34D-05    CP:  5.83D-01  1.88D+00  2.03D+00  7.36D-01  5.18D-01
                    CP:  8.43D-01  1.09D+00  1.78D+00  1.33D+00  1.33D+00
 E= -3010.53215080291     Delta-E=       -0.000000530150 Rises=F Damp=F
 DIIS: error= 9.56D-06 at cycle  11 NSaved=  11.
 NSaved=11 IEnMin=11 EnMin= -3010.53215080291     IErMin=11 ErrMin= 9.56D-06
 ErrMax= 9.56D-06  0.00D+00 EMaxC= 1.00D-01 BMatC= 1.41D-08 BMatP= 1.29D-07
 IDIUse=1 WtCom= 1.00D+00 WtEn= 0.00D+00
 Coeff-Com: -0.387D-03 0.524D-03 0.135D-03 0.936D-03 0.267D-02 0.587D-02
 Coeff-Com:  0.615D-02-0.479D-01-0.100D+00 0.730D-01 0.106D+01
 Coeff:     -0.387D-03 0.524D-03 0.135D-03 0.936D-03 0.267D-02 0.587D-02
 Coeff:      0.615D-02-0.479D-01-0.100D+00 0.730D-01 0.106D+01
 Gap=     0.247 Goal=   None    Shift=    0.000
 RMSDP=1.56D-05 MaxDP=1.50D-03 DE=-5.30D-07 OVMax= 2.97D-04

 Cycle  12  Pass 1  IDiag  1:
 RMSU=  2.37D-06    CP:  5.83D-01  1.88D+00  2.03D+00  7.35D-01  5.17D-01
                    CP:  8.43D-01  1.08D+00  1.86D+00  1.37D+00  1.57D+00
                    CP:  1.48D+00
 E= -3010.53215089574     Delta-E=       -0.000000092829 Rises=F Damp=F
 DIIS: error= 6.82D-06 at cycle  12 NSaved=  12.
 NSaved=12 IEnMin=12 EnMin= -3010.53215089574     IErMin=12 ErrMin= 6.82D-06
 ErrMax= 6.82D-06  0.00D+00 EMaxC= 1.00D-01 BMatC= 6.23D-09 BMatP= 1.41D-08
 IDIUse=1 WtCom= 1.00D+00 WtEn= 0.00D+00
 Coeff-Com: -0.166D-03 0.216D-03-0.564D-04 0.227D-03-0.406D-03 0.240D-04
 Coeff-Com:  0.148D-01 0.208D-01-0.104D+00-0.245D+00 0.563D+00 0.750D+00
 Coeff:     -0.166D-03 0.216D-03-0.564D-04 0.227D-03-0.406D-03 0.240D-04
 Coeff:      0.148D-01 0.208D-01-0.104D+00-0.245D+00 0.563D+00 0.750D+00
 Gap=     0.247 Goal=   None    Shift=    0.000
 RMSDP=5.66D-06 MaxDP=5.16D-04 DE=-9.28D-08 OVMax= 1.53D-04

 Cycle  13  Pass 1  IDiag  1:
 RMSU=  1.21D-06    CP:  5.83D-01  1.88D+00  2.03D+00  7.34D-01  5.17D-01
                    CP:  8.42D-01  1.08D+00  1.89D+00  1.40D+00  1.67D+00
                    CP:  1.76D+00  1.21D+00
 E= -3010.53215091888     Delta-E=       -0.000000023145 Rises=F Damp=F
 DIIS: error= 2.13D-06 at cycle  13 NSaved=  13.
 NSaved=13 IEnMin=13 EnMin= -3010.53215091888     IErMin=13 ErrMin= 2.13D-06
 ErrMax= 2.13D-06  0.00D+00 EMaxC= 1.00D-01 BMatC= 4.98D-10 BMatP= 6.23D-09
 IDIUse=1 WtCom= 1.00D+00 WtEn= 0.00D+00
 Coeff-Com:  0.146D-04-0.202D-04-0.275D-04-0.105D-03-0.453D-03-0.101D-02
 Coeff-Com: -0.864D-03 0.642D-02 0.171D-01-0.158D-01-0.150D+00 0.521D-01
 Coeff-Com:  0.109D+01
 Coeff:      0.146D-04-0.202D-04-0.275D-04-0.105D-03-0.453D-03-0.101D-02
 Coeff:     -0.864D-03 0.642D-02 0.171D-01-0.158D-01-0.150D+00 0.521D-01
 Coeff:      0.109D+01
 Gap=     0.247 Goal=   None    Shift=    0.000
 RMSDP=1.48D-06 MaxDP=8.74D-05 DE=-2.31D-08 OVMax= 4.36D-05

 Cycle  14  Pass 1  IDiag  1:
 RMSU=  3.81D-07    CP:  5.83D-01  1.88D+00  2.03D+00  7.34D-01  5.17D-01
                    CP:  8.42D-01  1.07D+00  1.89D+00  1.40D+00  1.69D+00
                    CP:  1.81D+00  1.45D+00  1.57D+00
 E= -3010.53215092169     Delta-E=       -0.000000002802 Rises=F Damp=F
 DIIS: error= 8.65D-07 at cycle  14 NSaved=  14.
 NSaved=14 IEnMin=14 EnMin= -3010.53215092169     IErMin=14 ErrMin= 8.65D-07
 ErrMax= 8.65D-07  0.00D+00 EMaxC= 1.00D-01 BMatC= 1.29D-10 BMatP= 4.98D-10
 IDIUse=1 WtCom= 1.00D+00 WtEn= 0.00D+00
 Coeff-Com:  0.903D-05-0.114D-04-0.958D-05-0.680D-04-0.747D-04-0.329D-03
 Coeff-Com: -0.308D-02-0.139D-02 0.268D-01 0.388D-01-0.168D+00-0.116D+00
 Coeff-Com:  0.436D+00 0.787D+00
 Coeff:      0.903D-05-0.114D-04-0.958D-05-0.680D-04-0.747D-04-0.329D-03
 Coeff:     -0.308D-02-0.139D-02 0.268D-01 0.388D-01-0.168D+00-0.116D+00
 Coeff:      0.436D+00 0.787D+00
 Gap=     0.247 Goal=   None    Shift=    0.000
 RMSDP=6.33D-07 MaxDP=4.42D-05 DE=-2.80D-09 OVMax= 1.60D-05

 Cycle  15  Pass 1  IDiag  1:
 RMSU=  1.77D-07    CP:  5.83D-01  1.88D+00  2.03D+00  7.34D-01  5.17D-01
                    CP:  8.41D-01  1.07D+00  1.89D+00  1.40D+00  1.70D+00
                    CP:  1.83D+00  1.55D+00  1.79D+00  1.37D+00
 E= -3010.53215092221     Delta-E=       -0.000000000526 Rises=F Damp=F
 DIIS: error= 3.55D-07 at cycle  15 NSaved=  15.
 NSaved=15 IEnMin=15 EnMin= -3010.53215092221     IErMin=15 ErrMin= 3.55D-07
 ErrMax= 3.55D-07  0.00D+00 EMaxC= 1.00D-01 BMatC= 1.23D-11 BMatP= 1.29D-10
 IDIUse=1 WtCom= 1.00D+00 WtEn= 0.00D+00
 Coeff-Com:  0.246D-05-0.312D-05 0.400D-05 0.281D-05 0.347D-04 0.973D-04
 Coeff-Com: -0.282D-03-0.563D-03 0.178D-03 0.472D-02 0.550D-02-0.220D-01
 Coeff-Com: -0.132D+00 0.907D-01 0.105D+01
 Coeff:      0.246D-05-0.312D-05 0.400D-05 0.281D-05 0.347D-04 0.973D-04
 Coeff:     -0.282D-03-0.563D-03 0.178D-03 0.472D-02 0.550D-02-0.220D-01
 Coeff:     -0.132D+00 0.907D-01 0.105D+01
 Gap=     0.247 Goal=   None    Shift=    0.000
 RMSDP=3.76D-07 MaxDP=3.04D-05 DE=-5.26D-10 OVMax= 7.69D-06

 Cycle  16  Pass 1  IDiag  1:
 RMSU=  8.11D-08    CP:  5.83D-01  1.88D+00  2.03D+00  7.34D-01  5.17D-01
                    CP:  8.41D-01  1.07D+00  1.90D+00  1.40D+00  1.70D+00
                    CP:  1.84D+00  1.60D+00  1.85D+00  1.56D+00  1.63D+00
 E= -3010.53215092227     Delta-E=       -0.000000000061 Rises=F Damp=F
 DIIS: error= 9.08D-08 at cycle  16 NSaved=  16.
 NSaved=16 IEnMin=16 EnMin= -3010.53215092227     IErMin=16 ErrMin= 9.08D-08
 ErrMax= 9.08D-08  0.00D+00 EMaxC= 1.00D-01 BMatC= 1.50D-12 BMatP= 1.23D-11
 IDIUse=1 WtCom= 1.00D+00 WtEn= 0.00D+00
 Coeff-Com: -0.171D-06 0.215D-06 0.224D-05 0.777D-05 0.114D-04 0.484D-04
 Coeff-Com:  0.193D-03 0.668D-04-0.250D-02-0.236D-02 0.176D-01 0.542D-02
 Coeff-Com: -0.618D-01-0.636D-01 0.178D+00 0.929D+00
 Coeff:     -0.171D-06 0.215D-06 0.224D-05 0.777D-05 0.114D-04 0.484D-04
 Coeff:      0.193D-03 0.668D-04-0.250D-02-0.236D-02 0.176D-01 0.542D-02
 Coeff:     -0.618D-01-0.636D-01 0.178D+00 0.929D+00
 Gap=     0.247 Goal=   None    Shift=    0.000
 RMSDP=9.54D-08 MaxDP=7.08D-06 DE=-6.14D-11 OVMax= 1.68D-06

 Cycle  17  Pass 1  IDiag  1:
 RMSU=  2.23D-08    CP:  5.83D-01  1.88D+00  2.03D+00  7.34D-01  5.17D-01
                    CP:  8.41D-01  1.07D+00  1.90D+00  1.40D+00  1.70D+00
                    CP:  1.84D+00  1.60D+00  1.86D+00  1.61D+00  1.91D+00
                    CP:  1.26D+00
 E= -3010.53215092230     Delta-E=       -0.000000000029 Rises=F Damp=F
 DIIS: error= 3.59D-08 at cycle  17 NSaved=  17.
 NSaved=17 IEnMin=17 EnMin= -3010.53215092230     IErMin=17 ErrMin= 3.59D-08
 ErrMax= 3.59D-08  0.00D+00 EMaxC= 1.00D-01 BMatC= 2.40D-13 BMatP= 1.50D-12
 IDIUse=1 WtCom= 1.00D+00 WtEn= 0.00D+00
 Coeff-Com: -0.144D-05 0.192D-05-0.837D-07 0.241D-05-0.750D-06 0.134D-05
 Coeff-Com:  0.602D-04 0.108D-03-0.667D-03-0.111D-02 0.347D-02 0.281D-02
 Coeff-Com:  0.252D-02-0.278D-01-0.912D-01 0.213D+00 0.899D+00
 Coeff:     -0.144D-05 0.192D-05-0.837D-07 0.241D-05-0.750D-06 0.134D-05
 Coeff:      0.602D-04 0.108D-03-0.667D-03-0.111D-02 0.347D-02 0.281D-02
 Coeff:      0.252D-02-0.278D-01-0.912D-01 0.213D+00 0.899D+00
 Gap=     0.247 Goal=   None    Shift=    0.000
 RMSDP=7.09D-08 MaxDP=7.00D-06 DE=-2.86D-11 OVMax= 5.86D-07

 Cycle  18  Pass 1  IDiag  1:
 RMSU=  5.92D-09    CP:  5.83D-01  1.88D+00  2.03D+00  7.34D-01  5.17D-01
                    CP:  8.41D-01  1.07D+00  1.90D+00  1.40D+00  1.70D+00
                    CP:  1.84D+00  1.61D+00  1.85D+00  1.61D+00  2.00D+00
                    CP:  1.43D+00  1.24D+00
 E= -3010.53215092227     Delta-E=        0.000000000033 Rises=F Damp=F
 DIIS: error= 1.73D-08 at cycle  18 NSaved=  18.
 NSaved=18 IEnMin=17 EnMin= -3010.53215092230     IErMin=18 ErrMin= 1.73D-08
 ErrMax= 1.73D-08  0.00D+00 EMaxC= 1.00D-01 BMatC= 5.32D-14 BMatP= 2.40D-13
 IDIUse=1 WtCom= 1.00D+00 WtEn= 0.00D+00
 Coeff-Com: -0.511D-06 0.684D-06-0.421D-06-0.572D-06-0.292D-05-0.919D-05
 Coeff-Com: -0.153D-04 0.569D-04 0.201D-03 0.610D-06-0.170D-02-0.321D-04
 Coeff-Com:  0.125D-01 0.181D-02-0.626D-01-0.103D+00 0.308D+00 0.845D+00
 Coeff:     -0.511D-06 0.684D-06-0.421D-06-0.572D-06-0.292D-05-0.919D-05
 Coeff:     -0.153D-04 0.569D-04 0.201D-03 0.610D-06-0.170D-02-0.321D-04
 Coeff:      0.125D-01 0.181D-02-0.626D-01-0.103D+00 0.308D+00 0.845D+00
 Gap=     0.247 Goal=   None    Shift=    0.000
 RMSDP=2.70D-08 MaxDP=2.60D-06 DE= 3.27D-11 OVMax= 2.41D-07

 Cycle  19  Pass 1  IDiag  1:
 RMSU=  3.66D-09    CP:  5.83D-01  1.88D+00  2.03D+00  7.34D-01  5.17D-01
                    CP:  8.41D-01  1.07D+00  1.90D+00  1.40D+00  1.70D+00
                    CP:  1.84D+00  1.61D+00  1.85D+00  1.60D+00  2.03D+00
                    CP:  1.51D+00  1.41D+00  1.29D+00
 E= -3010.53215092225     Delta-E=        0.000000000017 Rises=F Damp=F
 DIIS: error= 9.58D-09 at cycle  19 NSaved=  19.
 NSaved=19 IEnMin=17 EnMin= -3010.53215092230     IErMin=19 ErrMin= 9.58D-09
 ErrMax= 9.58D-09  0.00D+00 EMaxC= 1.00D-01 BMatC= 4.76D-15 BMatP= 5.32D-14
 IDIUse=1 WtCom= 1.00D+00 WtEn= 0.00D+00
 Large coefficients: NSaved= 19 BigCof=    0.00 CofMax=   10.00 Det=-1.33D-14
 Inversion failed.  Reducing to 18 matrices.
 Coeff-Com:  0.148D-08-0.785D-08-0.884D-07 0.187D-06 0.134D-07-0.770D-05
 Coeff-Com: -0.200D-04 0.561D-04 0.125D-03-0.341D-03-0.388D-03-0.888D-03
 Coeff-Com:  0.334D-02 0.135D-01-0.255D-01-0.102D+00-0.403D-01 0.115D+01
 Coeff:      0.148D-08-0.785D-08-0.884D-07 0.187D-06 0.134D-07-0.770D-05
 Coeff:     -0.200D-04 0.561D-04 0.125D-03-0.341D-03-0.388D-03-0.888D-03
 Coeff:      0.334D-02 0.135D-01-0.255D-01-0.102D+00-0.403D-01 0.115D+01
 Gap=     0.247 Goal=   None    Shift=    0.000
 RMSDP=5.96D-09 MaxDP=5.86D-07 DE= 1.73D-11 OVMax= 1.51D-07

 SCF Done:  E(RwB97XD) =  -3010.53215092     A.U. after   19 cycles
            NFock= 19  Conv=0.60D-08     -V/T= 2.0016
 KE= 3.005861258729D+03 PE=-8.700644546580D+03 EE= 1.910537801895D+03
 Leave Link  502 at Thu May  2 14:18:36 2024, MaxMem=   134217728 cpu:            1193.6 elap:            1194.0
 (Enter /software/gaussian/g16-c01/sse4/g16/l601.exe)
 Copying SCF densities to generalized density rwf, IOpCl= 0 IROHF=0.

 **********************************************************************

            Population analysis using the SCF Density.

 **********************************************************************

 Alpha  occ. eigenvalues -- -483.32095 -62.87129 -56.66809 -56.66257 -56.66250
 Alpha  occ. eigenvalues --  -19.46311 -19.46186 -14.85678 -10.59314 -10.58892
 Alpha  occ. eigenvalues --  -10.57725 -10.56986 -10.53194 -10.52978  -9.02944
 Alpha  occ. eigenvalues --   -6.85587  -6.83770  -6.83751  -2.95500  -2.95018
 Alpha  occ. eigenvalues --   -2.95002  -2.93548  -2.93547  -1.49937  -1.32894
 Alpha  occ. eigenvalues --   -1.22753  -1.13183  -1.12726  -1.05349  -1.00599
 Alpha  occ. eigenvalues --   -0.95622  -0.90757  -0.85118  -0.81025  -0.80388
 Alpha  occ. eigenvalues --   -0.80114  -0.78163  -0.76225  -0.75820  -0.72356
 Alpha  occ. eigenvalues --   -0.68747  -0.67649  -0.63608  -0.60367  -0.57605
 Alpha  occ. eigenvalues --   -0.57369  -0.56773  -0.55926  -0.55124
 Alpha virt. eigenvalues --   -0.30444  -0.20429  -0.16375  -0.13270  -0.10369
 Alpha virt. eigenvalues --   -0.07031  -0.06240  -0.05955  -0.04324  -0.03233
 Alpha virt. eigenvalues --   -0.03012  -0.02403  -0.02302  -0.01595  -0.00838
 Alpha virt. eigenvalues --    0.00224   0.01282   0.01806   0.02498   0.03055
 Alpha virt. eigenvalues --    0.04002   0.04875   0.05540   0.05926   0.06727
 Alpha virt. eigenvalues --    0.07271   0.07393   0.08559   0.08797   0.09745
 Alpha virt. eigenvalues --    0.10360   0.10817   0.11431   0.11636   0.12731
 Alpha virt. eigenvalues --    0.13088   0.13399   0.14096   0.14657   0.15887
 Alpha virt. eigenvalues --    0.16518   0.17631   0.18106   0.18388   0.19076
 Alpha virt. eigenvalues --    0.20281   0.21534   0.21841   0.22489   0.24125
 Alpha virt. eigenvalues --    0.24841   0.26532   0.27321   0.28888   0.30620
 Alpha virt. eigenvalues --    0.31349   0.33073   0.33511   0.34704   0.36585
 Alpha virt. eigenvalues --    0.36943   0.37469   0.39675   0.40433   0.41397
 Alpha virt. eigenvalues --    0.43273   0.44124   0.45650   0.46895   0.47438
 Alpha virt. eigenvalues --    0.48443   0.49950   0.50624   0.51755   0.53788
 Alpha virt. eigenvalues --    0.54740   0.55299   0.57644   0.58599   0.60004
 Alpha virt. eigenvalues --    0.61212   0.62060   0.63949   0.66618   0.68183
 Alpha virt. eigenvalues --    0.71573   0.71903   0.72551   0.73784   0.74561
 Alpha virt. eigenvalues --    0.74996   0.77807   0.79938   0.82516   0.85327
 Alpha virt. eigenvalues --    0.86935   0.87523   0.91528   0.94085   0.98926
 Alpha virt. eigenvalues --    1.00157   1.02391   1.03933   1.05505   1.06913
 Alpha virt. eigenvalues --    1.08316   1.12603   1.13415   1.14215   1.18107
 Alpha virt. eigenvalues --    1.20648   1.22777   1.28106   1.33165   1.36254
 Alpha virt. eigenvalues --    1.36767   1.38869   1.42828   1.54625   1.56534
 Alpha virt. eigenvalues --    1.57383   1.59819   1.61079   1.63890   1.65560
 Alpha virt. eigenvalues --    1.68079   1.71373   1.73943   1.75133   1.79376
 Alpha virt. eigenvalues --    1.83634   1.85402   1.87539   1.93965   1.95572
 Alpha virt. eigenvalues --    1.97712   2.02044   2.02933   2.07066   2.08575
 Alpha virt. eigenvalues --    2.12545   2.14528   2.22284   2.23642   2.27643
 Alpha virt. eigenvalues --    2.33585   2.39582   2.41567   2.44194   2.53225
 Alpha virt. eigenvalues --    2.57814   2.63146   2.66008   2.68757   2.71692
 Alpha virt. eigenvalues --    2.73732   2.76353   2.77387   2.80592   2.81831
 Alpha virt. eigenvalues --    2.93001   2.97959   3.01324   3.05410   3.08961
 Alpha virt. eigenvalues --    3.14893   3.16416   3.17489   3.22445   3.26628
 Alpha virt. eigenvalues --    3.28051   3.37896   3.46684   3.50128   3.54743
 Alpha virt. eigenvalues --    3.57466   3.68880   3.74216   3.83547   3.87259
 Alpha virt. eigenvalues --    4.09051   4.09894   4.18561   4.22644   4.42471
 Alpha virt. eigenvalues --    4.45137   4.54501   4.59867   4.93615   4.96330
 Alpha virt. eigenvalues --    5.05377   5.09592   5.61991   6.15155   6.67065
 Alpha virt. eigenvalues --    7.47912   7.50243   7.60377  23.22076  23.61245
 Alpha virt. eigenvalues --   23.71267  23.77987  23.95586  24.02266  35.31485
 Alpha virt. eigenvalues --   47.93213  49.85214  49.93875 289.80867 289.83208
 Alpha virt. eigenvalues --  289.958381020.94413
          Condensed to atoms (all electrons):
               1          2          3          4          5          6
     1  C    7.575893  -1.991447   0.645195  -0.012726   0.296424   0.050725
     2  C   -1.991447  16.803244  -3.539406   0.400547  -0.011686   0.209179
     3  C    0.645195  -3.539406  19.527745  -1.305629   0.022280   0.097678
     4  C   -0.012726   0.400547  -1.305629   6.359703   0.016770  -0.012735
     5  H    0.296424  -0.011686   0.022280   0.016770   0.306035  -0.001284
     6  H    0.050725   0.209179   0.097678  -0.012735  -0.001284   0.290738
     7  H    0.035337  -0.026599   0.021873   0.306142  -0.002500   0.000001
     8  N   -0.090305  -0.125016  -1.874782   0.031548  -0.000349  -0.026676
     9  O   -0.002306   0.266867  -0.020950  -0.021632  -0.000028  -0.002243
    10  O    0.251362  -0.149110  -0.254716  -0.020016  -0.000016   0.019350
    11  C    0.714307  -0.582587   2.305818  -0.257222  -0.021693   0.007355
    12  H   -0.017560   0.019760   0.009937   0.029334   0.000026  -0.000017
    13  C   -1.358562  -5.232315  -9.365817   0.821173   0.022907  -0.007218
    14  H    0.001995   0.003901   0.021038  -0.001721  -0.000030   0.000053
    15  Br   0.015181  -0.235291  -0.227062  -0.017646   0.000015  -0.000472
               7          8          9         10         11         12
     1  C    0.035337  -0.090305  -0.002306   0.251362   0.714307  -0.017560
     2  C   -0.026599  -0.125016   0.266867  -0.149110  -0.582587   0.019760
     3  C    0.021873  -1.874782  -0.020950  -0.254716   2.305818   0.009937
     4  C    0.306142   0.031548  -0.021632  -0.020016  -0.257222   0.029334
     5  H   -0.002500  -0.000349  -0.000028  -0.000016  -0.021693   0.000026
     6  H    0.000001  -0.026676  -0.002243   0.019350   0.007355  -0.000017
     7  H    0.336437  -0.000018   0.000006  -0.000000   0.022414  -0.002569
     8  N   -0.000018   7.679776   0.015558   0.220692  -0.364878   0.000220
     9  O    0.000006   0.015558   7.953811   0.008328   0.286344   0.000152
    10  O   -0.000000   0.220692   0.008328   7.746418  -0.002251  -0.000029
    11  C    0.022414  -0.364878   0.286344  -0.002251   8.122691   0.297680
    12  H   -0.002569   0.000220   0.000152  -0.000029   0.297680   0.345633
    13  C   -0.022698   1.626595  -0.489113   0.068375  -4.381873  -0.009646
    14  H   -0.000023  -0.026562   0.011782  -0.001480   0.060851  -0.005234
    15  Br  -0.000406   0.171710  -0.057583   0.004029   0.001324   0.000673
              13         14         15
     1  C   -1.358562   0.001995   0.015181
     2  C   -5.232315   0.003901  -0.235291
     3  C   -9.365817   0.021038  -0.227062
     4  C    0.821173  -0.001721  -0.017646
     5  H    0.022907  -0.000030   0.000015
     6  H   -0.007218   0.000053  -0.000472
     7  H   -0.022698  -0.000023  -0.000406
     8  N    1.626595  -0.026562   0.171710
     9  O   -0.489113   0.011782  -0.057583
    10  O    0.068375  -0.001480   0.004029
    11  C   -4.381873   0.060851   0.001324
    12  H   -0.009646  -0.005234   0.000673
    13  C   23.943127   0.249786   0.487608
    14  H    0.249786   0.338039  -0.047020
    15  Br   0.487608  -0.047020  34.771810
 Mulliken charges:
               1
     1  C   -0.113512
     2  C    0.189961
     3  C   -0.063203
     4  C   -0.315889
     5  H    0.373129
     6  H    0.375566
     7  H    0.332605
     8  N   -0.237515
     9  O    0.051007
    10  O    0.109064
    11  C   -0.208278
    12  H    0.331641
    13  C   -0.352330
    14  H    0.394622
    15  Br   0.133131
 Sum of Mulliken charges =   1.00000
 Mulliken charges with hydrogens summed into heavy atoms:
               1
     1  C    0.259617
     2  C    0.565527
     3  C   -0.063203
     4  C    0.016715
     8  N   -0.237515
     9  O    0.051007
    10  O    0.109064
    11  C    0.123363
    13  C    0.042292
    15  Br   0.133131
 Electronic spatial extent (au):  <R**2>=           3947.5590
 Charge=              1.0000 electrons
 Dipole moment (field-independent basis, Debye):
    X=              2.6809    Y=              1.0897    Z=             -0.4814  Tot=              2.9337
 Quadrupole moment (field-independent basis, Debye-Ang):
   XX=            -67.9536   YY=            -52.2274   ZZ=            -62.9047
   XY=              1.1887   XZ=             -1.9733   YZ=              1.4045
 Traceless Quadrupole moment (field-independent basis, Debye-Ang):
   XX=             -6.9250   YY=              8.8012   ZZ=             -1.8762
   XY=              1.1887   XZ=             -1.9733   YZ=              1.4045
 Octapole moment (field-independent basis, Debye-Ang**2):
  XXX=           -512.8217  YYY=            104.1803  ZZZ=             85.0718  XYY=           -138.9803
  XXY=             39.5397  XXZ=             26.7256  XZZ=           -134.2905  YZZ=             20.7898
  YYZ=             28.7631  XYZ=              5.6804
 Hexadecapole moment (field-independent basis, Debye-Ang**3):
 XXXX=          -3444.0462 YYYY=           -716.0898 ZZZZ=           -401.6792 XXXY=            240.1111
 XXXZ=            186.0339 YYYX=            208.8292 YYYZ=           -181.9883 ZZZX=            172.3478
 ZZZY=           -151.3201 XXYY=           -629.2685 XXZZ=           -530.7997 YYZZ=           -179.0219
 XXYZ=            -46.8476 YYXZ=             56.2377 ZZXY=             36.8006
 N-N= 7.737133350334D+02 E-N=-8.700644546199D+03  KE= 3.005861258729D+03
 No NMR shielding tensors so no spin-rotation constants.
 Leave Link  601 at Thu May  2 14:18:43 2024, MaxMem=   134217728 cpu:               7.3 elap:               7.3
 (Enter /software/gaussian/g16-c01/sse4/g16/l9999.exe)
 Unable to Open any file for archive entry.
 1\1\GINC-BHX0011\SP\RwB97XD\6-311+G(d)\C6H5Br1N1O2(1+)\BWEIGHT\02-May-
 2024\0\\#P wB97XD/6-311+G* NoSymm #P Field=Y-68\\TitleMe\\1,1\C,0,0.51
 93,1.233,-0.0319\C,0,1.9445,1.2692,-0.0367\C,0,2.6204,0.0928,-0.025\C,
 0,-0.196,0.0301,0.001\H,0,-0.0207,2.1742,-0.0434\H,0,2.4828,2.2089,-0.
 0361\H,0,-1.2777,0.0399,0.0117\N,0,4.0921,0.0959,0.0366\O,0,4.6393,-1.
 0217,0.1446\O,0,4.6649,1.1984,-0.0233\C,0,0.4943,-1.1671,0.021\H,0,-0.
 0325,-2.1149,0.0545\C,0,1.9629,-1.2165,-0.0211\H,0,2.4436,-1.9631,0.61
 51\Br,0,2.173,-1.9491,-1.9062\\Version=ES64L-G16RevC.01\HF=-3010.53215
 09\RMSD=5.963e-09\Dipole=-3.2744699,1.6568633,1.0598268\Quadrupole=-5.
 1485963,6.5434686,-1.3948724,0.8837637,-1.4671131,1.0441827\PG=C01 [X(
 C6H5Br1N1O2)]\\@
 The archive entry for this job was punched.


 BE LIKE A POSTAGE STAMP.  STICK TO ONE THING UNTIL
 YOU GET THERE -- JOSH BILLINGS
 Job cpu time:       0 days  0 hours 21 minutes  4.4 seconds.
 Elapsed time:       0 days  0 hours 21 minutes  4.9 seconds.
 File lengths (MBytes):  RWF=     40 Int=      0 D2E=      0 Chk=     32 Scr=      1
 Normal termination of Gaussian 16 at Thu May  2 14:18:44 2024.
