 Entering Gaussian System, Link 0=g16
 Initial command:
 /software/gaussian/g16-c01/sse4/g16/l1.exe "/local_scratch/24657574/Gau-25842.inp" -scrdir="/local_scratch/24657574/"
 Entering Link 1 = /software/gaussian/g16-c01/sse4/g16/l1.exe PID=     25848.
  
 Copyright (c) 1988-2019, Gaussian, Inc.  All Rights Reserved.
  
 This is part of the Gaussian(R) 16 program.  It is based on
 the Gaussian(R) 09 system (copyright 2009, Gaussian, Inc.),
 the Gaussian(R) 03 system (copyright 2003, Gaussian, Inc.),
 the Gaussian(R) 98 system (copyright 1998, Gaussian, Inc.),
 the Gaussian(R) 94 system (copyright 1995, Gaussian, Inc.),
 the Gaussian 92(TM) system (copyright 1992, Gaussian, Inc.),
 the Gaussian 90(TM) system (copyright 1990, Gaussian, Inc.),
 the Gaussian 88(TM) system (copyright 1988, Gaussian, Inc.),
 the Gaussian 86(TM) system (copyright 1986, Carnegie Mellon
 University), and the Gaussian 82(TM) system (copyright 1983,
 Carnegie Mellon University). Gaussian is a federally registered
 trademark of Gaussian, Inc.
  
 This software contains proprietary and confidential information,
 including trade secrets, belonging to Gaussian, Inc.
  
 This software is provided under written license and may be
 used, copied, transmitted, or stored only in accord with that
 written license.
  
 The following legend is applicable only to US Government
 contracts under FAR:
  
                    RESTRICTED RIGHTS LEGEND
  
 Use, reproduction and disclosure by the US Government is
 subject to restrictions as set forth in subparagraphs (a)
 and (c) of the Commercial Computer Software - Restricted
 Rights clause in FAR 52.227-19.
  
 Gaussian, Inc.
 340 Quinnipiac St., Bldg. 40, Wallingford CT 06492
  
  
 ---------------------------------------------------------------
 Warning -- This program may not be used in any manner that
 competes with the business of Gaussian, Inc. or will provide
 assistance to any competitor of Gaussian, Inc.  The licensee
 of this program is prohibited from giving any competitor of
 Gaussian, Inc. access to this program.  By using this program,
 the user acknowledges that Gaussian, Inc. is engaged in the
 business of creating and licensing software in the field of
 computational chemistry and represents and warrants to the
 licensee that it is not a competitor of Gaussian, Inc. and that
 it will not use this program in any manner prohibited above.
 ---------------------------------------------------------------
  

 Cite this work as:
 Gaussian 16, Revision C.01,
 M. J. Frisch, G. W. Trucks, H. B. Schlegel, G. E. Scuseria, 
 M. A. Robb, J. R. Cheeseman, G. Scalmani, V. Barone, 
 G. A. Petersson, H. Nakatsuji, X. Li, M. Caricato, A. V. Marenich, 
 J. Bloino, B. G. Janesko, R. Gomperts, B. Mennucci, H. P. Hratchian, 
 J. V. Ortiz, A. F. Izmaylov, J. L. Sonnenberg, D. Williams-Young, 
 F. Ding, F. Lipparini, F. Egidi, J. Goings, B. Peng, A. Petrone, 
 T. Henderson, D. Ranasinghe, V. G. Zakrzewski, J. Gao, N. Rega, 
 G. Zheng, W. Liang, M. Hada, M. Ehara, K. Toyota, R. Fukuda, 
 J. Hasegawa, M. Ishida, T. Nakajima, Y. Honda, O. Kitao, H. Nakai, 
 T. Vreven, K. Throssell, J. A. Montgomery, Jr., J. E. Peralta, 
 F. Ogliaro, M. J. Bearpark, J. J. Heyd, E. N. Brothers, K. N. Kudin, 
 V. N. Staroverov, T. A. Keith, R. Kobayashi, J. Normand, 
 K. Raghavachari, A. P. Rendell, J. C. Burant, S. S. Iyengar, 
 J. Tomasi, M. Cossi, J. M. Millam, M. Klene, C. Adamo, R. Cammi, 
 J. W. Ochterski, R. L. Martin, K. Morokuma, O. Farkas, 
 J. B. Foresman, and D. J. Fox, Gaussian, Inc., Wallingford CT, 2019.
 
 ******************************************
 Gaussian 16:  ES64L-G16RevC.01  3-Jul-2019
                 1-May-2024 
 ******************************************
 %chk=geometry.chk
 %mem=9GB
 %nprocshared=12
 Will use up to   12 processors via shared memory.
 ----------------------------------------
 #P wB97XD/6-311+G* NoSymm #P Field=Z+126
 ----------------------------------------
 1/38=1,172=1/1;
 2/12=2,15=1,17=6,18=5,40=1/2;
 3/5=4,6=6,7=11,11=2,14=3,15=126,25=1,30=1,74=-58/1,2,3;
 4//1;
 5/5=2,38=5/2;
 6/7=2,8=2,9=2,10=2,28=1/1;
 99/5=1,9=1/99;
 Leave Link    1 at Wed May  1 15:08:03 2024, MaxMem=  1207959552 cpu:               1.7 elap:               1.7
 (Enter /software/gaussian/g16-c01/sse4/g16/l101.exe)
 -------
 TitleMe
 -------
 Symbolic Z-matrix:
 Charge =  1 Multiplicity = 1
 C                     0.0295    1.3397    0.0682 
 C                     1.4348    1.2867    0.0064 
 C                     2.1118    0.0511   -0.0054 
 C                     1.4451   -1.1372    0.0312 
 C                    -0.6879    0.1682    0.11 
 H                    -0.4713    2.2984    0.0781 
 H                     2.0273    2.1965   -0.0322 
 H                     1.9897   -2.0764    0.0232 
 H                    -1.7716    0.1804    0.1582 
 N                     3.5864    0.051    -0.0675 
 O                     4.1471   -1.0597   -0.0881 
 O                     4.145     1.1639   -0.0901 
 C                    -0.0236   -1.1458    0.0835 
 H                    -0.4367   -1.8725    0.7889 
 Br                   -0.5359   -1.8697   -1.7408 
 
 ITRead=  0  0  0  0  0  0  0  0  0  0  0  0  0  0  0
 MicOpt= -1 -1 -1 -1 -1 -1 -1 -1 -1 -1 -1 -1 -1 -1 -1
 NAtoms=     15 NQM=       15 NQMF=       0 NMMI=      0 NMMIF=      0
                NMic=       0 NMicF=      0.
                    Isotopes and Nuclear Properties:
 (Nuclear quadrupole moments (NQMom) in fm**2, nuclear magnetic moments (NMagM)
  in nuclear magnetons)

  Atom         1           2           3           4           5           6           7           8           9          10
 IAtWgt=          12          12          12          12          12           1           1           1           1          14
 AtmWgt=  12.0000000  12.0000000  12.0000000  12.0000000  12.0000000   1.0078250   1.0078250   1.0078250   1.0078250  14.0030740
 NucSpn=           0           0           0           0           0           1           1           1           1           2
 AtZEff=  -0.0000000  -0.0000000  -0.0000000  -0.0000000  -0.0000000  -0.0000000  -0.0000000  -0.0000000  -0.0000000  -0.0000000
 NQMom=    0.0000000   0.0000000   0.0000000   0.0000000   0.0000000   0.0000000   0.0000000   0.0000000   0.0000000   2.0440000
 NMagM=    0.0000000   0.0000000   0.0000000   0.0000000   0.0000000   2.7928460   2.7928460   2.7928460   2.7928460   0.4037610
 AtZNuc=   6.0000000   6.0000000   6.0000000   6.0000000   6.0000000   1.0000000   1.0000000   1.0000000   1.0000000   7.0000000

  Atom        11          12          13          14          15
 IAtWgt=          16          16          12           1          79
 AtmWgt=  15.9949146  15.9949146  12.0000000   1.0078250  78.9183361
 NucSpn=           0           0           0           1           3
 AtZEff=  -0.0000000  -0.0000000  -0.0000000  -0.0000000  -0.0000000
 NQMom=    0.0000000   0.0000000   0.0000000   0.0000000  31.3000000
 NMagM=    0.0000000   0.0000000   0.0000000   2.7928460   2.1063990
 AtZNuc=   8.0000000   8.0000000   6.0000000   1.0000000  35.0000000
 Leave Link  101 at Wed May  1 15:08:04 2024, MaxMem=  1207959552 cpu:               1.2 elap:               1.2
 (Enter /software/gaussian/g16-c01/sse4/g16/l202.exe)
                          Input orientation:                          
 ---------------------------------------------------------------------
 Center     Atomic      Atomic             Coordinates (Angstroms)
 Number     Number       Type             X           Y           Z
 ---------------------------------------------------------------------
      1          6           0        0.029500    1.339700    0.068200
      2          6           0        1.434800    1.286700    0.006400
      3          6           0        2.111800    0.051100   -0.005400
      4          6           0        1.445100   -1.137200    0.031200
      5          6           0       -0.687900    0.168200    0.110000
      6          1           0       -0.471300    2.298400    0.078100
      7          1           0        2.027300    2.196500   -0.032200
      8          1           0        1.989700   -2.076400    0.023200
      9          1           0       -1.771600    0.180400    0.158200
     10          7           0        3.586400    0.051000   -0.067500
     11          8           0        4.147100   -1.059700   -0.088100
     12          8           0        4.145000    1.163900   -0.090100
     13          6           0       -0.023600   -1.145800    0.083500
     14          1           0       -0.436700   -1.872500    0.788900
     15         35           0       -0.535900   -1.869700   -1.740800
 ---------------------------------------------------------------------
                    Distance matrix (angstroms):
                    1          2          3          4          5
     1  C    0.000000
     2  C    1.407656   0.000000
     3  C    2.449874   1.408963   0.000000
     4  C    2.853126   2.424049   1.363043   0.000000
     5  C    1.374344   2.401589   2.804523   2.501993   0.000000
     6  H    1.081667   2.159142   3.424870   3.934226   2.141421
     7  H    2.176095   1.086408   2.147231   3.384750   3.392128
     8  H    3.938800   3.408612   2.131193   1.085702   3.495040
     9  H    2.143837   3.395283   3.888995   3.478413   1.084840
    10  N    3.785591   2.482297   1.475907   2.450862   4.279589
    11  O    4.768247   3.587631   2.320164   2.705743   4.992415
    12  O    4.122294   2.714696   2.319353   3.549540   4.938459
    13  C    2.486114   2.837240   2.449573   1.469656   1.472614
    14  H    3.324903   3.754379   3.290289   2.157764   2.165286
    15  Br   3.727252   4.110867   3.702891   2.756973   2.757100
                    6          7          8          9         10
     6  H    0.000000
     7  H    2.503108   0.000000
     8  H    5.019802   4.273425   0.000000
     9  H    2.486588   4.304945   4.388479   0.000000
    10  N    4.640790   2.652397   2.661486   5.364313   0.000000
    11  O    5.712624   3.885809   2.387560   6.052233   1.244373
    12  O    4.756638   2.356750   3.893289   6.002923   1.245428
    13  C    3.473180   3.923079   2.218790   2.195425   3.806210
    14  H    4.231175   4.827242   2.552506   2.528663   4.540772
    15  Br   4.548146   5.101303   3.087568   3.055498   4.845862
                   11         12         13         14         15
    11  O    0.000000
    12  O    2.223602   0.000000
    13  C    4.175117   4.768865   0.000000
    14  H    4.737193   5.566358   1.093770   0.000000
    15  Br   5.031700   5.817075   2.028436   2.531646   0.000000
 Symmetry turned off by external request.
 Stoichiometry    C6H5BrNO2(1+)
 Framework group  C1[X(C6H5BrNO2)]
 Deg. of freedom    39
 Full point group                 C1      NOp   1
 Rotational constants (GHZ):           1.8252210           0.5518633           0.4576002
 Leave Link  202 at Wed May  1 15:08:06 2024, MaxMem=  1207959552 cpu:               1.2 elap:               1.2
 (Enter /software/gaussian/g16-c01/sse4/g16/l301.exe)
 Standard basis: 6-311+G(d) (5D, 7F)
 Ernie: Thresh=  0.10000D-02 Tol=  0.10000D-05 Strict=F.
 The following finite field(s) will be applied:
 An electric field of              0.0000  0.0000  0.0126
   261 basis functions,   443 primitive gaussians,   273 cartesian basis functions
    49 alpha electrons       49 beta electrons
       nuclear repulsion energy       739.2122215416 Hartrees.
 IExCor= 4639 DFT=T Ex+Corr=wB97XD ExCW=0 ScaHFX=  1.000000
 ScaDFX=  1.000000  1.000000  1.000000  1.000000 ScalE2=  1.000000  1.000000
 IRadAn=      5 IRanWt=     -1 IRanGd=            0 ICorTp=0 IEmpDi=121
 HFx  wShort=  0.000000 wLong=  0.200000 cFull=  0.222036 cShort=  0.000000 cLong=  0.777964
 DFx  wShort=  0.000000 wLong=  0.200000 cFull=  0.000000 cShort=  0.000000 cLong=  1.000000
 NAtoms=   15 NActive=   15 NUniq=   15 SFac= 1.00D+00 NAtFMM=   60 NAOKFM=F Big=F
 Integral buffers will be    131072 words long.
 Raffenetti 2 integral format.
 Two-electron integral symmetry is turned off.
 R6Disp:  Grimme-D2 Dispersion energy=       -0.0077368520 Hartrees.
 Nuclear repulsion after empirical dispersion term =      739.2044846896 Hartrees.
 Leave Link  301 at Wed May  1 15:08:06 2024, MaxMem=  1207959552 cpu:               0.9 elap:               0.9
 (Enter /software/gaussian/g16-c01/sse4/g16/l302.exe)
 NPDir=0 NMtPBC=     1 NCelOv=     1 NCel=       1 NClECP=     1 NCelD=      1
         NCelK=      1 NCelE2=     1 NClLst=     1 CellRange=     0.0.
 One-electron integrals computed using PRISM.
 NBasis=   261 RedAO= T EigKep=  2.35D-06  NBF=   261
 NBsUse=   261 1.00D-06 EigRej= -1.00D+00 NBFU=   261
 Precomputing XC quadrature grid using
 IXCGrd= 4 IRadAn=           5 IRanWt=          -1 IRanGd=           0 AccXCQ= 0.00D+00.
 Generated NRdTot=       0 NPtTot=           0 NUsed=           0 NTot=          32
 NSgBfM=   273   273   273   273   273 MxSgAt=    15 MxSgA2=    15.
 Leave Link  302 at Wed May  1 15:08:28 2024, MaxMem=  1207959552 cpu:              21.3 elap:              21.3
 (Enter /software/gaussian/g16-c01/sse4/g16/l303.exe)
 DipDrv:  MaxL=1.
 The nuclear repulsion energy is now       737.7747445489 hartrees.
 Leave Link  303 at Wed May  1 15:08:31 2024, MaxMem=  1207959552 cpu:               3.3 elap:               3.3
 (Enter /software/gaussian/g16-c01/sse4/g16/l401.exe)
 ExpMin= 3.50D-02 ExpMax= 4.40D+05 ExpMxC= 1.51D+04 IAcc=3 IRadAn=         5 AccDes= 0.00D+00
 Harris functional with IExCor= 4639 and IRadAn=       5 diagonalized for initial guess.
 HarFok:  IExCor= 4639 AccDes= 0.00D+00 IRadAn=         5 IDoV= 1 UseB2=F ITyADJ=14
 ICtDFT=  3500011 ScaDFX=  1.000000  1.000000  1.000000  1.000000
 FoFCou: FMM=F IPFlag=           0 FMFlag=      100000 FMFlg1=           0
         NFxFlg=           0 DoJE=T BraDBF=F KetDBF=T FulRan=T
         wScrn=  0.000000 ICntrl=       500 IOpCl=  0 I1Cent=   200000004 NGrid=           0
         NMat0=    1 NMatS0=      1 NMatT0=    0 NMatD0=    1 NMtDS0=    0 NMtDT0=    0
 Symmetry not used in FoFCou.
 Harris En= -2970.60434160402    
 JPrj=0 DoOrth=F DoCkMO=F.
 Leave Link  401 at Wed May  1 15:09:00 2024, MaxMem=  1207959552 cpu:              29.2 elap:              29.2
 (Enter /software/gaussian/g16-c01/sse4/g16/l502.exe)
 Two-electron integral symmetry not used.
 Closed shell SCF:
 Using DIIS extrapolation, IDIIS=  1040.
 NGot=  1207959552 LenX=  1207804877 LenY=  1207729907
 Requested convergence on RMS density matrix=1.00D-08 within 128 cycles.
 Requested convergence on MAX density matrix=1.00D-06.
 Requested convergence on             energy=1.00D-06.
 No special actions if energy rises.
 Fock matrices will be formed incrementally for  20 cycles.

 Cycle   1  Pass 1  IDiag  1:
 FoFJK:  IHMeth= 1 ICntrl=       0 DoSepK=T KAlg= 0 I1Cent=           0 FoldK=F
 IRaf=         1 NMat=       1 IRICut=       1 DoRegI=T DoRafI=F ISym2E= 0 IDoP0=0 IntGTp=1.
 FoFCou: FMM=F IPFlag=           0 FMFlag=      100000 FMFlg1=           0
         NFxFlg=           0 DoJE=T BraDBF=F KetDBF=F FulRan=T
         wScrn=  0.000000 ICntrl=       500 IOpCl=  0 I1Cent=           0 NGrid=           0
         NMat0=    1 NMatS0=      1 NMatT0=    0 NMatD0=    1 NMtDS0=    0 NMtDT0=    0
 Symmetry not used in FoFCou.
 E= -3009.70966602083    
 DIIS: error= 3.21D-01 at cycle   1 NSaved=   1.
 NSaved= 1 IEnMin= 1 EnMin= -3009.70966602083     IErMin= 1 ErrMin= 3.21D-01
 ErrMax= 3.21D-01  0.00D+00 EMaxC= 1.00D-01 BMatC= 1.20D+01 BMatP= 1.20D+01
 IDIUse=3 WtCom= 0.00D+00 WtEn= 1.00D+00
 Coeff-Com:  0.100D+01
 Coeff-En:   0.100D+01
 Coeff:      0.100D+01
 Gap=     0.328 Goal=   None    Shift=    0.000
 GapD=    0.328 DampG=1.000 DampE=0.250 DampFc=0.2500 IDamp=-1.
 Damping current iteration by 2.50D-01
 RMSDP=7.43D-02 MaxDP=9.97D+00              OVMax= 2.54D-01

 Cycle   2  Pass 1  IDiag  1:
 RMSU=  5.41D-03    CP:  8.56D-01
 E= -3010.00122198752     Delta-E=       -0.291555966693 Rises=F Damp=T
 DIIS: error= 2.25D-01 at cycle   2 NSaved=   2.
 NSaved= 2 IEnMin= 2 EnMin= -3010.00122198752     IErMin= 2 ErrMin= 2.25D-01
 ErrMax= 2.25D-01  0.00D+00 EMaxC= 1.00D-01 BMatC= 5.46D+00 BMatP= 1.20D+01
 IDIUse=3 WtCom= 0.00D+00 WtEn= 1.00D+00
 Coeff-Com: -0.182D+01 0.282D+01
 Coeff-En:   0.000D+00 0.100D+01
 Coeff:      0.000D+00 0.100D+01
 Gap=     0.293 Goal=   None    Shift=    0.000
 RMSDP=5.64D-02 MaxDP=7.54D+00 DE=-2.92D-01 OVMax= 6.80D-02

 Cycle   3  Pass 1  IDiag  1:
 RMSU=  4.66D-03    CP:  4.14D-01  3.00D+00
 E= -3010.38297800978     Delta-E=       -0.381756022263 Rises=F Damp=F
 DIIS: error= 6.62D-02 at cycle   3 NSaved=   3.
 NSaved= 3 IEnMin= 3 EnMin= -3010.38297800978     IErMin= 3 ErrMin= 6.62D-02
 ErrMax= 6.62D-02  0.00D+00 EMaxC= 1.00D-01 BMatC= 7.53D-01 BMatP= 5.46D+00
 IDIUse=3 WtCom= 3.38D-01 WtEn= 6.62D-01
 Coeff-Com:  0.272D+01-0.358D+01 0.186D+01
 Coeff-En:   0.403D-01 0.000D+00 0.960D+00
 Coeff:      0.947D+00-0.121D+01 0.126D+01
 Gap=     0.268 Goal=   None    Shift=    0.000
 RMSDP=8.40D-03 MaxDP=5.09D-01 DE=-3.82D-01 OVMax= 8.08D-02

 Cycle   4  Pass 1  IDiag  1:
 RMSU=  5.67D-03    CP:  4.41D-01  2.56D+00  1.64D+00
 E= -3010.49437378812     Delta-E=       -0.111395778337 Rises=F Damp=F
 DIIS: error= 3.76D-02 at cycle   4 NSaved=   4.
 NSaved= 4 IEnMin= 4 EnMin= -3010.49437378812     IErMin= 4 ErrMin= 3.76D-02
 ErrMax= 3.76D-02  0.00D+00 EMaxC= 1.00D-01 BMatC= 2.24D-01 BMatP= 7.53D-01
 IDIUse=3 WtCom= 6.24D-01 WtEn= 3.76D-01
 Coeff-Com: -0.238D+00 0.331D+00 0.235D+00 0.673D+00
 Coeff-En:   0.000D+00 0.000D+00 0.187D+00 0.813D+00
 Coeff:     -0.149D+00 0.206D+00 0.217D+00 0.726D+00
 Gap=     0.258 Goal=   None    Shift=    0.000
 RMSDP=4.53D-03 MaxDP=5.36D-01 DE=-1.11D-01 OVMax= 3.41D-02

 Cycle   5  Pass 1  IDiag  1:
 RMSU=  1.54D-03    CP:  4.09D-01  2.81D+00  1.51D+00  8.59D-01
 E= -3010.53920621844     Delta-E=       -0.044832430315 Rises=F Damp=F
 DIIS: error= 6.90D-03 at cycle   5 NSaved=   5.
 NSaved= 5 IEnMin= 5 EnMin= -3010.53920621844     IErMin= 5 ErrMin= 6.90D-03
 ErrMax= 6.90D-03  0.00D+00 EMaxC= 1.00D-01 BMatC= 7.44D-03 BMatP= 2.24D-01
 IDIUse=3 WtCom= 9.31D-01 WtEn= 6.90D-02
 Coeff-Com: -0.151D+00 0.205D+00 0.227D-01 0.317D+00 0.607D+00
 Coeff-En:   0.000D+00 0.000D+00 0.000D+00 0.000D+00 0.100D+01
 Coeff:     -0.141D+00 0.191D+00 0.211D-01 0.295D+00 0.634D+00
 Gap=     0.245 Goal=   None    Shift=    0.000
 RMSDP=5.32D-04 MaxDP=3.39D-02 DE=-4.48D-02 OVMax= 1.17D-02

 Cycle   6  Pass 1  IDiag  1:
 RMSU=  3.92D-04    CP:  4.08D-01  2.80D+00  1.53D+00  8.77D-01  8.25D-01
 E= -3010.54078768714     Delta-E=       -0.001581468702 Rises=F Damp=F
 DIIS: error= 3.22D-04 at cycle   6 NSaved=   6.
 NSaved= 6 IEnMin= 6 EnMin= -3010.54078768714     IErMin= 6 ErrMin= 3.22D-04
 ErrMax= 3.22D-04  0.00D+00 EMaxC= 1.00D-01 BMatC= 5.57D-05 BMatP= 7.44D-03
 IDIUse=3 WtCom= 9.97D-01 WtEn= 3.22D-03
 Coeff-Com: -0.702D-01 0.940D-01-0.158D-01 0.908D-01 0.249D+00 0.652D+00
 Coeff-En:   0.000D+00 0.000D+00 0.000D+00 0.000D+00 0.000D+00 0.100D+01
 Coeff:     -0.700D-01 0.937D-01-0.158D-01 0.905D-01 0.249D+00 0.653D+00
 Gap=     0.247 Goal=   None    Shift=    0.000
 RMSDP=1.67D-04 MaxDP=1.06D-02 DE=-1.58D-03 OVMax= 2.90D-03

 Cycle   7  Pass 1  IDiag  1:
 RMSU=  8.42D-05    CP:  4.07D-01  2.79D+00  1.54D+00  8.82D-01  8.98D-01
                    CP:  9.74D-01
 E= -3010.54084792343     Delta-E=       -0.000060236290 Rises=F Damp=F
 DIIS: error= 1.99D-04 at cycle   7 NSaved=   7.
 NSaved= 7 IEnMin= 7 EnMin= -3010.54084792343     IErMin= 7 ErrMin= 1.99D-04
 ErrMax= 1.99D-04  0.00D+00 EMaxC= 1.00D-01 BMatC= 8.03D-06 BMatP= 5.57D-05
 IDIUse=3 WtCom= 9.98D-01 WtEn= 1.99D-03
 Coeff-Com: -0.151D-01 0.200D-01-0.962D-02 0.666D-02 0.289D-01 0.231D+00
 Coeff-Com:  0.739D+00
 Coeff-En:   0.000D+00 0.000D+00 0.000D+00 0.000D+00 0.000D+00 0.000D+00
 Coeff-En:   0.100D+01
 Coeff:     -0.151D-01 0.199D-01-0.961D-02 0.665D-02 0.288D-01 0.230D+00
 Coeff:      0.739D+00
 Gap=     0.246 Goal=   None    Shift=    0.000
 RMSDP=8.45D-05 MaxDP=7.38D-03 DE=-6.02D-05 OVMax= 2.22D-03

 Cycle   8  Pass 1  IDiag  1:
 RMSU=  4.95D-05    CP:  4.07D-01  2.79D+00  1.54D+00  8.85D-01  9.06D-01
                    CP:  1.11D+00  1.41D+00
 E= -3010.54085836549     Delta-E=       -0.000010442068 Rises=F Damp=F
 DIIS: error= 1.83D-04 at cycle   8 NSaved=   8.
 NSaved= 8 IEnMin= 8 EnMin= -3010.54085836549     IErMin= 8 ErrMin= 1.83D-04
 ErrMax= 1.83D-04  0.00D+00 EMaxC= 1.00D-01 BMatC= 3.37D-06 BMatP= 8.03D-06
 IDIUse=3 WtCom= 9.98D-01 WtEn= 1.83D-03
 Coeff-Com:  0.736D-02-0.101D-01-0.262D-02-0.181D-01-0.445D-01-0.147D-01
 Coeff-Com:  0.498D+00 0.585D+00
 Coeff-En:   0.000D+00 0.000D+00 0.000D+00 0.000D+00 0.000D+00 0.000D+00
 Coeff-En:   0.000D+00 0.100D+01
 Coeff:      0.735D-02-0.100D-01-0.262D-02-0.181D-01-0.444D-01-0.146D-01
 Coeff:      0.497D+00 0.586D+00
 Gap=     0.246 Goal=   None    Shift=    0.000
 RMSDP=4.59D-05 MaxDP=3.07D-03 DE=-1.04D-05 OVMax= 1.48D-03

 Cycle   9  Pass 1  IDiag  1:
 RMSU=  2.03D-05    CP:  4.07D-01  2.79D+00  1.55D+00  8.86D-01  9.12D-01
                    CP:  1.19D+00  1.68D+00  1.07D+00
 E= -3010.54086321670     Delta-E=       -0.000004851202 Rises=F Damp=F
 DIIS: error= 6.89D-05 at cycle   9 NSaved=   9.
 NSaved= 9 IEnMin= 9 EnMin= -3010.54086321670     IErMin= 9 ErrMin= 6.89D-05
 ErrMax= 6.89D-05  0.00D+00 EMaxC= 1.00D-01 BMatC= 5.09D-07 BMatP= 3.37D-06
 IDIUse=1 WtCom= 1.00D+00 WtEn= 0.00D+00
 Coeff-Com:  0.713D-02-0.956D-02 0.102D-02-0.105D-01-0.270D-01-0.661D-01
 Coeff-Com:  0.366D-01 0.300D+00 0.768D+00
 Coeff:      0.713D-02-0.956D-02 0.102D-02-0.105D-01-0.270D-01-0.661D-01
 Coeff:      0.366D-01 0.300D+00 0.768D+00
 Gap=     0.246 Goal=   None    Shift=    0.000
 RMSDP=2.35D-05 MaxDP=2.17D-03 DE=-4.85D-06 OVMax= 9.07D-04

 Cycle  10  Pass 1  IDiag  1:
 RMSU=  9.14D-06    CP:  4.08D-01  2.79D+00  1.55D+00  8.86D-01  9.16D-01
                    CP:  1.23D+00  1.79D+00  1.25D+00  1.09D+00
 E= -3010.54086457428     Delta-E=       -0.000001357582 Rises=F Damp=F
 DIIS: error= 1.51D-05 at cycle  10 NSaved=  10.
 NSaved=10 IEnMin=10 EnMin= -3010.54086457428     IErMin=10 ErrMin= 1.51D-05
 ErrMax= 1.51D-05  0.00D+00 EMaxC= 1.00D-01 BMatC= 8.12D-08 BMatP= 5.09D-07
 IDIUse=1 WtCom= 1.00D+00 WtEn= 0.00D+00
 Coeff-Com:  0.944D-04-0.944D-04 0.415D-03 0.370D-03 0.227D-02-0.107D-01
 Coeff-Com: -0.746D-01-0.193D-01 0.228D+00 0.873D+00
 Coeff:      0.944D-04-0.944D-04 0.415D-03 0.370D-03 0.227D-02-0.107D-01
 Coeff:     -0.746D-01-0.193D-01 0.228D+00 0.873D+00
 Gap=     0.246 Goal=   None    Shift=    0.000
 RMSDP=1.31D-05 MaxDP=1.22D-03 DE=-1.36D-06 OVMax= 4.98D-04

 Cycle  11  Pass 1  IDiag  1:
 RMSU=  5.05D-06    CP:  4.08D-01  2.79D+00  1.54D+00  8.85D-01  9.16D-01
                    CP:  1.24D+00  1.80D+00  1.30D+00  1.26D+00  1.33D+00
 E= -3010.54086486446     Delta-E=       -0.000000290178 Rises=F Damp=F
 DIIS: error= 5.56D-06 at cycle  11 NSaved=  11.
 NSaved=11 IEnMin=11 EnMin= -3010.54086486446     IErMin=11 ErrMin= 5.56D-06
 ErrMax= 5.56D-06  0.00D+00 EMaxC= 1.00D-01 BMatC= 9.48D-09 BMatP= 8.12D-08
 IDIUse=1 WtCom= 1.00D+00 WtEn= 0.00D+00
 Coeff-Com: -0.732D-03 0.978D-03-0.586D-04 0.150D-02 0.457D-02 0.143D-01
 Coeff-Com:  0.207D-02-0.596D-01-0.182D+00-0.536D-01 0.127D+01
 Coeff:     -0.732D-03 0.978D-03-0.586D-04 0.150D-02 0.457D-02 0.143D-01
 Coeff:      0.207D-02-0.596D-01-0.182D+00-0.536D-01 0.127D+01
 Gap=     0.246 Goal=   None    Shift=    0.000
 RMSDP=7.21D-06 MaxDP=5.56D-04 DE=-2.90D-07 OVMax= 4.17D-04

 Cycle  12  Pass 1  IDiag  1:
 RMSU=  2.02D-06    CP:  4.08D-01  2.79D+00  1.54D+00  8.85D-01  9.16D-01
                    CP:  1.25D+00  1.79D+00  1.33D+00  1.35D+00  1.68D+00
                    CP:  1.43D+00
 E= -3010.54086495494     Delta-E=       -0.000000090485 Rises=F Damp=F
 DIIS: error= 2.76D-06 at cycle  12 NSaved=  12.
 NSaved=12 IEnMin=12 EnMin= -3010.54086495494     IErMin=12 ErrMin= 2.76D-06
 ErrMax= 2.76D-06  0.00D+00 EMaxC= 1.00D-01 BMatC= 3.30D-09 BMatP= 9.48D-09
 IDIUse=1 WtCom= 1.00D+00 WtEn= 0.00D+00
 Coeff-Com: -0.321D-03 0.425D-03-0.716D-04 0.563D-03 0.118D-02 0.682D-02
 Coeff-Com:  0.117D-01-0.221D-01-0.108D+00-0.149D+00 0.569D+00 0.690D+00
 Coeff:     -0.321D-03 0.425D-03-0.716D-04 0.563D-03 0.118D-02 0.682D-02
 Coeff:      0.117D-01-0.221D-01-0.108D+00-0.149D+00 0.569D+00 0.690D+00
 Gap=     0.246 Goal=   None    Shift=    0.000
 RMSDP=1.49D-06 MaxDP=1.24D-04 DE=-9.05D-08 OVMax= 1.20D-04

 Cycle  13  Pass 1  IDiag  1:
 RMSU=  9.33D-07    CP:  4.08D-01  2.79D+00  1.54D+00  8.85D-01  9.16D-01
                    CP:  1.25D+00  1.79D+00  1.33D+00  1.37D+00  1.73D+00
                    CP:  1.57D+00  1.02D+00
 E= -3010.54086496607     Delta-E=       -0.000000011132 Rises=F Damp=F
 DIIS: error= 1.03D-06 at cycle  13 NSaved=  13.
 NSaved=13 IEnMin=13 EnMin= -3010.54086496607     IErMin=13 ErrMin= 1.03D-06
 ErrMax= 1.03D-06  0.00D+00 EMaxC= 1.00D-01 BMatC= 4.73D-10 BMatP= 3.30D-09
 IDIUse=1 WtCom= 1.00D+00 WtEn= 0.00D+00
 Coeff-Com:  0.198D-04-0.261D-04-0.163D-04-0.218D-03-0.113D-02-0.305D-02
 Coeff-Com: -0.979D-04 0.125D-01 0.334D-01-0.698D-02-0.256D+00 0.684D-01
 Coeff-Com:  0.115D+01
 Coeff:      0.198D-04-0.261D-04-0.163D-04-0.218D-03-0.113D-02-0.305D-02
 Coeff:     -0.979D-04 0.125D-01 0.334D-01-0.698D-02-0.256D+00 0.684D-01
 Coeff:      0.115D+01
 Gap=     0.246 Goal=   None    Shift=    0.000
 RMSDP=9.19D-07 MaxDP=3.29D-05 DE=-1.11D-08 OVMax= 8.81D-05

 Cycle  14  Pass 1  IDiag  1:
 RMSU=  3.11D-07    CP:  4.08D-01  2.79D+00  1.54D+00  8.85D-01  9.16D-01
                    CP:  1.25D+00  1.79D+00  1.34D+00  1.37D+00  1.75D+00
                    CP:  1.61D+00  1.31D+00  1.37D+00
 E= -3010.54086496948     Delta-E=       -0.000000003404 Rises=F Damp=F
 DIIS: error= 6.05D-07 at cycle  14 NSaved=  14.
 NSaved=14 IEnMin=14 EnMin= -3010.54086496948     IErMin=14 ErrMin= 6.05D-07
 ErrMax= 6.05D-07  0.00D+00 EMaxC= 1.00D-01 BMatC= 6.99D-11 BMatP= 4.73D-10
 IDIUse=1 WtCom= 1.00D+00 WtEn= 0.00D+00
 Coeff-Com:  0.481D-04-0.638D-04 0.156D-05-0.126D-03-0.356D-03-0.145D-02
 Coeff-Com: -0.148D-02 0.610D-02 0.227D-01 0.193D-01-0.144D+00-0.897D-01
 Coeff-Com:  0.307D+00 0.882D+00
 Coeff:      0.481D-04-0.638D-04 0.156D-05-0.126D-03-0.356D-03-0.145D-02
 Coeff:     -0.148D-02 0.610D-02 0.227D-01 0.193D-01-0.144D+00-0.897D-01
 Coeff:      0.307D+00 0.882D+00
 Gap=     0.246 Goal=   None    Shift=    0.000
 RMSDP=3.65D-07 MaxDP=2.52D-05 DE=-3.40D-09 OVMax= 2.40D-05

 Cycle  15  Pass 1  IDiag  1:
 RMSU=  1.51D-07    CP:  4.08D-01  2.79D+00  1.54D+00  8.85D-01  9.16D-01
                    CP:  1.25D+00  1.79D+00  1.33D+00  1.37D+00  1.75D+00
                    CP:  1.60D+00  1.38D+00  1.59D+00  1.29D+00
 E= -3010.54086496987     Delta-E=       -0.000000000390 Rises=F Damp=F
 DIIS: error= 2.69D-07 at cycle  15 NSaved=  15.
 NSaved=15 IEnMin=15 EnMin= -3010.54086496987     IErMin=15 ErrMin= 2.69D-07
 ErrMax= 2.69D-07  0.00D+00 EMaxC= 1.00D-01 BMatC= 1.93D-11 BMatP= 6.99D-11
 IDIUse=1 WtCom= 1.00D+00 WtEn= 0.00D+00
 Coeff-Com:  0.159D-04-0.214D-04 0.290D-05-0.301D-06 0.141D-03 0.237D-03
 Coeff-Com: -0.516D-03-0.587D-03 0.579D-03 0.858D-02-0.886D-04-0.485D-01
 Coeff-Com: -0.109D+00 0.370D+00 0.779D+00
 Coeff:      0.159D-04-0.214D-04 0.290D-05-0.301D-06 0.141D-03 0.237D-03
 Coeff:     -0.516D-03-0.587D-03 0.579D-03 0.858D-02-0.886D-04-0.485D-01
 Coeff:     -0.109D+00 0.370D+00 0.779D+00
 Gap=     0.246 Goal=   None    Shift=    0.000
 RMSDP=1.19D-07 MaxDP=4.73D-06 DE=-3.90D-10 OVMax= 7.35D-06

 Cycle  16  Pass 1  IDiag  1:
 RMSU=  5.85D-08    CP:  4.08D-01  2.79D+00  1.54D+00  8.85D-01  9.16D-01
                    CP:  1.25D+00  1.79D+00  1.34D+00  1.37D+00  1.75D+00
                    CP:  1.60D+00  1.40D+00  1.64D+00  1.52D+00  1.10D+00
 E= -3010.54086496994     Delta-E=       -0.000000000072 Rises=F Damp=F
 DIIS: error= 9.59D-08 at cycle  16 NSaved=  16.
 NSaved=16 IEnMin=16 EnMin= -3010.54086496994     IErMin=16 ErrMin= 9.59D-08
 ErrMax= 9.59D-08  0.00D+00 EMaxC= 1.00D-01 BMatC= 1.62D-12 BMatP= 1.93D-11
 IDIUse=1 WtCom= 1.00D+00 WtEn= 0.00D+00
 Coeff-Com:  0.913D-06-0.127D-05 0.123D-05 0.126D-04 0.777D-04 0.243D-03
 Coeff-Com: -0.149D-04-0.973D-03-0.266D-02 0.964D-03 0.175D-01-0.392D-02
 Coeff-Com: -0.734D-01-0.168D-01 0.173D+00 0.906D+00
 Coeff:      0.913D-06-0.127D-05 0.123D-05 0.126D-04 0.777D-04 0.243D-03
 Coeff:     -0.149D-04-0.973D-03-0.266D-02 0.964D-03 0.175D-01-0.392D-02
 Coeff:     -0.734D-01-0.168D-01 0.173D+00 0.906D+00
 Gap=     0.246 Goal=   None    Shift=    0.000
 RMSDP=6.43D-08 MaxDP=4.63D-06 DE=-7.19D-11 OVMax= 2.57D-06

 Cycle  17  Pass 1  IDiag  1:
 RMSU=  1.72D-08    CP:  4.08D-01  2.79D+00  1.54D+00  8.85D-01  9.16D-01
                    CP:  1.25D+00  1.79D+00  1.34D+00  1.37D+00  1.76D+00
                    CP:  1.59D+00  1.41D+00  1.65D+00  1.60D+00  1.30D+00
                    CP:  1.14D+00
 E= -3010.54086496995     Delta-E=       -0.000000000009 Rises=F Damp=F
 DIIS: error= 4.60D-08 at cycle  17 NSaved=  17.
 NSaved=17 IEnMin=17 EnMin= -3010.54086496995     IErMin=17 ErrMin= 4.60D-08
 ErrMax= 4.60D-08  0.00D+00 EMaxC= 1.00D-01 BMatC= 2.78D-13 BMatP= 1.62D-12
 IDIUse=1 WtCom= 1.00D+00 WtEn= 0.00D+00
 Coeff-Com: -0.173D-05 0.231D-05-0.674D-07 0.271D-05 0.505D-06 0.325D-04
 Coeff-Com:  0.740D-04-0.142D-03-0.694D-03-0.658D-03 0.384D-02 0.513D-02
 Coeff-Com: -0.376D-02-0.472D-01-0.717D-01 0.263D+00 0.852D+00
 Coeff:     -0.173D-05 0.231D-05-0.674D-07 0.271D-05 0.505D-06 0.325D-04
 Coeff:      0.740D-04-0.142D-03-0.694D-03-0.658D-03 0.384D-02 0.513D-02
 Coeff:     -0.376D-02-0.472D-01-0.717D-01 0.263D+00 0.852D+00
 Gap=     0.246 Goal=   None    Shift=    0.000
 RMSDP=1.92D-08 MaxDP=1.34D-06 DE=-9.09D-12 OVMax= 8.45D-07

 Cycle  18  Pass 1  IDiag  1:
 RMSU=  5.65D-09    CP:  4.08D-01  2.79D+00  1.54D+00  8.85D-01  9.16D-01
                    CP:  1.25D+00  1.79D+00  1.33D+00  1.37D+00  1.76D+00
                    CP:  1.59D+00  1.41D+00  1.65D+00  1.62D+00  1.36D+00
                    CP:  1.27D+00  1.28D+00
 E= -3010.54086496989     Delta-E=        0.000000000056 Rises=F Damp=F
 DIIS: error= 1.01D-08 at cycle  18 NSaved=  18.
 NSaved=18 IEnMin=17 EnMin= -3010.54086496995     IErMin=18 ErrMin= 1.01D-08
 ErrMax= 1.01D-08  0.00D+00 EMaxC= 1.00D-01 BMatC= 5.02D-14 BMatP= 2.78D-13
 IDIUse=1 WtCom= 1.00D+00 WtEn= 0.00D+00
 Coeff-Com: -0.579D-07 0.793D-07-0.106D-06-0.183D-05-0.134D-04-0.288D-04
 Coeff-Com:  0.312D-04 0.115D-03 0.170D-03-0.402D-03-0.158D-02 0.266D-02
 Coeff-Com:  0.107D-01-0.105D-01-0.569D-01-0.670D-01 0.287D+00 0.836D+00
 Coeff:     -0.579D-07 0.793D-07-0.106D-06-0.183D-05-0.134D-04-0.288D-04
 Coeff:      0.312D-04 0.115D-03 0.170D-03-0.402D-03-0.158D-02 0.266D-02
 Coeff:      0.107D-01-0.105D-01-0.569D-01-0.670D-01 0.287D+00 0.836D+00
 Gap=     0.246 Goal=   None    Shift=    0.000
 RMSDP=8.19D-09 MaxDP=4.17D-07 DE= 5.64D-11 OVMax= 2.29D-07

 SCF Done:  E(RwB97XD) =  -3010.54086497     A.U. after   18 cycles
            NFock= 18  Conv=0.82D-08     -V/T= 2.0016
 KE= 3.005835944470D+03 PE=-8.630290964757D+03 EE= 1.876139410768D+03
 Leave Link  502 at Wed May  1 15:26:16 2024, MaxMem=  1207959552 cpu:            1035.9 elap:            1036.1
 (Enter /software/gaussian/g16-c01/sse4/g16/l601.exe)
 Copying SCF densities to generalized density rwf, IOpCl= 0 IROHF=0.

 **********************************************************************

            Population analysis using the SCF Density.

 **********************************************************************

 Alpha  occ. eigenvalues -- -483.29243 -62.84237 -56.63963 -56.63344 -56.63342
 Alpha  occ. eigenvalues --  -19.45192 -19.45130 -14.84693 -10.57184 -10.56620
 Alpha  occ. eigenvalues --  -10.56404 -10.56189 -10.55983 -10.52244  -9.00021
 Alpha  occ. eigenvalues --   -6.82788  -6.80772  -6.80759  -2.92670  -2.92137
 Alpha  occ. eigenvalues --   -2.92125  -2.90514  -2.90514  -1.48958  -1.31936
 Alpha  occ. eigenvalues --   -1.21766  -1.13012  -1.10894  -1.02678  -1.00291
 Alpha  occ. eigenvalues --   -0.94549  -0.90162  -0.84577  -0.80063  -0.79855
 Alpha  occ. eigenvalues --   -0.79267  -0.77603  -0.75385  -0.75155  -0.71151
 Alpha  occ. eigenvalues --   -0.68532  -0.66770  -0.62434  -0.58981  -0.56394
 Alpha  occ. eigenvalues --   -0.55478  -0.54946  -0.53989  -0.53218
 Alpha virt. eigenvalues --   -0.28577  -0.20632  -0.14517  -0.12594  -0.10327
 Alpha virt. eigenvalues --   -0.07630  -0.07237  -0.05569  -0.03839  -0.03453
 Alpha virt. eigenvalues --   -0.02329  -0.00940  -0.00517   0.00457   0.01230
 Alpha virt. eigenvalues --    0.01788   0.02807   0.03888   0.03965   0.04352
 Alpha virt. eigenvalues --    0.05344   0.05493   0.06143   0.07030   0.07434
 Alpha virt. eigenvalues --    0.07626   0.08382   0.08685   0.09727   0.10619
 Alpha virt. eigenvalues --    0.11265   0.11732   0.11821   0.12294   0.13115
 Alpha virt. eigenvalues --    0.13635   0.14461   0.14982   0.15593   0.16464
 Alpha virt. eigenvalues --    0.17189   0.17885   0.18374   0.18868   0.19228
 Alpha virt. eigenvalues --    0.20181   0.21800   0.22110   0.22621   0.25387
 Alpha virt. eigenvalues --    0.25807   0.28350   0.29082   0.31081   0.33929
 Alpha virt. eigenvalues --    0.34435   0.34744   0.35349   0.36599   0.36975
 Alpha virt. eigenvalues --    0.38289   0.38742   0.40194   0.41117   0.43262
 Alpha virt. eigenvalues --    0.43361   0.44559   0.44783   0.46703   0.48120
 Alpha virt. eigenvalues --    0.48481   0.51172   0.51970   0.53107   0.54072
 Alpha virt. eigenvalues --    0.55014   0.56063   0.57074   0.57873   0.60109
 Alpha virt. eigenvalues --    0.62007   0.63049   0.65064   0.67883   0.69449
 Alpha virt. eigenvalues --    0.70807   0.72932   0.73166   0.74011   0.74863
 Alpha virt. eigenvalues --    0.75512   0.79898   0.80634   0.84668   0.85925
 Alpha virt. eigenvalues --    0.87424   0.88703   0.92413   0.93988   0.99346
 Alpha virt. eigenvalues --    1.00290   1.01784   1.05432   1.05980   1.07280
 Alpha virt. eigenvalues --    1.10077   1.11461   1.12741   1.13164   1.14863
 Alpha virt. eigenvalues --    1.22652   1.25100   1.27334   1.33657   1.37155
 Alpha virt. eigenvalues --    1.37515   1.38779   1.46044   1.55052   1.57773
 Alpha virt. eigenvalues --    1.59163   1.59461   1.61268   1.63048   1.67060
 Alpha virt. eigenvalues --    1.69793   1.70516   1.74216   1.75915   1.79719
 Alpha virt. eigenvalues --    1.81771   1.86084   1.88129   1.95415   1.97492
 Alpha virt. eigenvalues --    1.99144   2.03593   2.04595   2.07998   2.09015
 Alpha virt. eigenvalues --    2.10601   2.15493   2.21009   2.23276   2.29900
 Alpha virt. eigenvalues --    2.38143   2.41788   2.43009   2.44103   2.53140
 Alpha virt. eigenvalues --    2.57250   2.63681   2.66751   2.68848   2.72367
 Alpha virt. eigenvalues --    2.74034   2.77155   2.77993   2.81703   2.82539
 Alpha virt. eigenvalues --    2.94326   2.97061   3.01295   3.06310   3.09648
 Alpha virt. eigenvalues --    3.13610   3.15604   3.19679   3.24337   3.24918
 Alpha virt. eigenvalues --    3.27999   3.39769   3.48266   3.51895   3.55157
 Alpha virt. eigenvalues --    3.57516   3.70587   3.74770   3.82868   3.87901
 Alpha virt. eigenvalues --    4.11123   4.11341   4.18650   4.23900   4.44665
 Alpha virt. eigenvalues --    4.45000   4.58196   4.60561   4.93844   4.96507
 Alpha virt. eigenvalues --    5.05159   5.09327   5.63482   6.16414   6.66734
 Alpha virt. eigenvalues --    7.49830   7.51387   7.61048  23.22056  23.61982
 Alpha virt. eigenvalues --   23.70566  23.80242  23.96710  24.02101  35.33264
 Alpha virt. eigenvalues --   47.93218  49.86226  49.95037 289.82518 289.84185
 Alpha virt. eigenvalues --  289.965991020.93595
          Condensed to atoms (all electrons):
               1          2          3          4          5          6
     1  C    8.826466  -1.992561  -0.132644  -1.351456  -0.641159   0.305462
     2  C   -1.992561  12.692220  -1.414876  -3.364724   0.613531  -0.015423
     3  C   -0.132644  -1.414876  13.351437  -3.566672  -1.011436   0.027823
     4  C   -1.351456  -3.364724  -3.566672  16.222380   1.003767   0.005233
     5  C   -0.641159   0.613531  -1.011436   1.003767   7.525708   0.014913
     6  H    0.305462  -0.015423   0.027823   0.005233   0.014913   0.338877
     7  H    0.066513   0.230696   0.077422  -0.032470  -0.022157  -0.001750
     8  H    0.005170  -0.009487   0.075807   0.228955  -0.021455   0.000003
     9  H    0.036306  -0.019661   0.002800  -0.006187   0.298766  -0.002379
    10  N   -0.123479   0.346471  -0.947675   0.293154   0.000405  -0.000678
    11  O    0.018478  -0.053043  -0.253058  -0.050660  -0.058657  -0.000021
    12  O    0.311236  -0.087093  -0.272761  -0.030275  -0.044321   0.000050
    13  C    1.210741  -1.417205   0.717862  -3.584893  -1.634328  -0.002959
    14  H   -0.021014   0.000415   0.001772  -0.024863   0.004179  -0.000046
    15  Br   0.036968   0.020583   0.044475  -0.008913   0.010685  -0.000180
               7          8          9         10         11         12
     1  C    0.066513   0.005170   0.036306  -0.123479   0.018478   0.311236
     2  C    0.230696  -0.009487  -0.019661   0.346471  -0.053043  -0.087093
     3  C    0.077422   0.075807   0.002800  -0.947675  -0.253058  -0.272761
     4  C   -0.032470   0.228955  -0.006187   0.293154  -0.050660  -0.030275
     5  C   -0.022157  -0.021455   0.298766   0.000405  -0.058657  -0.044321
     6  H   -0.001750   0.000003  -0.002379  -0.000678  -0.000021   0.000050
     7  H    0.301700   0.000013   0.000040  -0.025790  -0.001490   0.021928
     8  H    0.000013   0.300356   0.000151  -0.023958   0.023474  -0.000945
     9  H    0.000040   0.000151   0.335259   0.000501  -0.000009   0.000010
    10  N   -0.025790  -0.023958   0.000501   7.372868   0.192507   0.146459
    11  O   -0.001490   0.023474  -0.000009   0.192507   7.837806  -0.002318
    12  O    0.021928  -0.000945   0.000010   0.146459  -0.002318   7.883722
    13  C    0.018691   0.051659   0.011033  -0.123236   0.313719   0.042249
    14  H   -0.000040  -0.006479  -0.007793  -0.000918  -0.000138  -0.000019
    15  Br   0.000177   0.005500   0.004126   0.003890   0.001326   0.002649
              13         14         15
     1  C    1.210741  -0.021014   0.036968
     2  C   -1.417205   0.000415   0.020583
     3  C    0.717862   0.001772   0.044475
     4  C   -3.584893  -0.024863  -0.008913
     5  C   -1.634328   0.004179   0.010685
     6  H   -0.002959  -0.000046  -0.000180
     7  H    0.018691  -0.000040   0.000177
     8  H    0.051659  -0.006479   0.005500
     9  H    0.011033  -0.007793   0.004126
    10  N   -0.123236  -0.000918   0.003890
    11  O    0.313719  -0.000138   0.001326
    12  O    0.042249  -0.000019   0.002649
    13  C   10.433577   0.333824   0.090993
    14  H    0.333824   0.413401  -0.051877
    15  Br   0.090993  -0.051877  34.548364
 Mulliken charges:
               1
     1  C   -0.555026
     2  C    0.470157
     3  C   -0.700276
     4  C    0.267624
     5  C   -0.038442
     6  H    0.331075
     7  H    0.366518
     8  H    0.371236
     9  H    0.347038
    10  N   -0.110522
    11  O    0.032083
    12  O    0.029430
    13  C   -0.461727
    14  H    0.359596
    15  Br   0.291236
 Sum of Mulliken charges =   1.00000
 Mulliken charges with hydrogens summed into heavy atoms:
               1
     1  C   -0.223951
     2  C    0.836675
     3  C   -0.700276
     4  C    0.638860
     5  C    0.308596
    10  N   -0.110522
    11  O    0.032083
    12  O    0.029430
    13  C   -0.102131
    15  Br   0.291236
 Electronic spatial extent (au):  <R**2>=           2796.5808
 Charge=              1.0000 electrons
 Dipole moment (field-independent basis, Debye):
    X=             -1.1374    Y=             -1.0716    Z=             -2.2128  Tot=              2.7090
 Quadrupole moment (field-independent basis, Debye-Ang):
   XX=            -71.6939   YY=            -51.3474   ZZ=            -60.4023
   XY=              1.6571   XZ=              0.0981   YZ=              3.5235
 Traceless Quadrupole moment (field-independent basis, Debye-Ang):
   XX=            -10.5461   YY=              9.8005   ZZ=              0.7456
   XY=              1.6571   XZ=              0.0981   YZ=              3.5235
 Octapole moment (field-independent basis, Debye-Ang**2):
  XXX=           -301.8809  YYY=             84.2173  ZZZ=             67.4667  XYY=            -77.3797
  XXY=             29.4537  XXZ=             24.8854  XZZ=            -79.6505  YZZ=             11.2899
  YYZ=             18.6703  XYZ=             -4.6616
 Hexadecapole moment (field-independent basis, Debye-Ang**3):
 XXXX=          -2287.5504 YYYY=           -669.8191 ZZZZ=           -327.1124 XXXY=            -66.9914
 XXXZ=            -41.7975 YYYX=            -57.3393 YYYZ=           -143.9537 ZZZX=            -16.7358
 ZZZY=           -121.3244 XXYY=           -456.2982 XXZZ=           -367.8918 YYZZ=           -152.5316
 XXYZ=            -52.8345 YYXZ=             -1.8708 ZZXY=             -5.6372
 N-N= 7.377747445489D+02 E-N=-8.630290966969D+03  KE= 3.005835944470D+03
 No NMR shielding tensors so no spin-rotation constants.
 Leave Link  601 at Wed May  1 15:26:24 2024, MaxMem=  1207959552 cpu:               7.4 elap:               7.4
 (Enter /software/gaussian/g16-c01/sse4/g16/l9999.exe)
 Unable to Open any file for archive entry.
 1\1\GINC-BHX0029\SP\RwB97XD\6-311+G(d)\C6H5Br1N1O2(1+)\BWEIGHT\01-May-
 2024\0\\#P wB97XD/6-311+G* NoSymm #P Field=Z+126\\TitleMe\\1,1\C,0,0.0
 295,1.3397,0.0682\C,0,1.4348,1.2867,0.0064\C,0,2.1118,0.0511,-0.0054\C
 ,0,1.4451,-1.1372,0.0312\C,0,-0.6879,0.1682,0.11\H,0,-0.4713,2.2984,0.
 0781\H,0,2.0273,2.1965,-0.0322\H,0,1.9897,-2.0764,0.0232\H,0,-1.7716,0
 .1804,0.1582\N,0,3.5864,0.051,-0.0675\O,0,4.1471,-1.0597,-0.0881\O,0,4
 .145,1.1639,-0.0901\C,0,-0.0236,-1.1458,0.0835\H,0,-0.4367,-1.8725,0.7
 889\Br,0,-0.5359,-1.8697,-1.7408\\Version=ES64L-G16RevC.01\HF=-3010.54
 0865\RMSD=8.188e-09\Dipole=-2.3540404,0.7264709,0.2755743\Quadrupole=-
 7.8407459,7.2864226,0.5543233,1.2319957,0.0729076,2.6196159\PG=C01 [X(
 C6H5Br1N1O2)]\\@
 The archive entry for this job was punched.


 A DANDELION FROM A LOVER MEANS MORE THAN AN ORCHID FROM A FRIEND.
 Job cpu time:       0 days  0 hours 18 minutes 22.9 seconds.
 Elapsed time:       0 days  0 hours 18 minutes 23.0 seconds.
 File lengths (MBytes):  RWF=     40 Int=      0 D2E=      0 Chk=     32 Scr=      1
 Normal termination of Gaussian 16 at Wed May  1 15:26:25 2024.
