 Entering Gaussian System, Link 0=g16
 Initial command:
 /software/gaussian/g16-c01/sse4/g16/l1.exe "/local_scratch/24665390/Gau-8011.inp" -scrdir="/local_scratch/24665390/"
 Entering Link 1 = /software/gaussian/g16-c01/sse4/g16/l1.exe PID=      8047.
  
 Copyright (c) 1988-2019, Gaussian, Inc.  All Rights Reserved.
  
 This is part of the Gaussian(R) 16 program.  It is based on
 the Gaussian(R) 09 system (copyright 2009, Gaussian, Inc.),
 the Gaussian(R) 03 system (copyright 2003, Gaussian, Inc.),
 the Gaussian(R) 98 system (copyright 1998, Gaussian, Inc.),
 the Gaussian(R) 94 system (copyright 1995, Gaussian, Inc.),
 the Gaussian 92(TM) system (copyright 1992, Gaussian, Inc.),
 the Gaussian 90(TM) system (copyright 1990, Gaussian, Inc.),
 the Gaussian 88(TM) system (copyright 1988, Gaussian, Inc.),
 the Gaussian 86(TM) system (copyright 1986, Carnegie Mellon
 University), and the Gaussian 82(TM) system (copyright 1983,
 Carnegie Mellon University). Gaussian is a federally registered
 trademark of Gaussian, Inc.
  
 This software contains proprietary and confidential information,
 including trade secrets, belonging to Gaussian, Inc.
  
 This software is provided under written license and may be
 used, copied, transmitted, or stored only in accord with that
 written license.
  
 The following legend is applicable only to US Government
 contracts under FAR:
  
                    RESTRICTED RIGHTS LEGEND
  
 Use, reproduction and disclosure by the US Government is
 subject to restrictions as set forth in subparagraphs (a)
 and (c) of the Commercial Computer Software - Restricted
 Rights clause in FAR 52.227-19.
  
 Gaussian, Inc.
 340 Quinnipiac St., Bldg. 40, Wallingford CT 06492
  
  
 ---------------------------------------------------------------
 Warning -- This program may not be used in any manner that
 competes with the business of Gaussian, Inc. or will provide
 assistance to any competitor of Gaussian, Inc.  The licensee
 of this program is prohibited from giving any competitor of
 Gaussian, Inc. access to this program.  By using this program,
 the user acknowledges that Gaussian, Inc. is engaged in the
 business of creating and licensing software in the field of
 computational chemistry and represents and warrants to the
 licensee that it is not a competitor of Gaussian, Inc. and that
 it will not use this program in any manner prohibited above.
 ---------------------------------------------------------------
  

 Cite this work as:
 Gaussian 16, Revision C.01,
 M. J. Frisch, G. W. Trucks, H. B. Schlegel, G. E. Scuseria, 
 M. A. Robb, J. R. Cheeseman, G. Scalmani, V. Barone, 
 G. A. Petersson, H. Nakatsuji, X. Li, M. Caricato, A. V. Marenich, 
 J. Bloino, B. G. Janesko, R. Gomperts, B. Mennucci, H. P. Hratchian, 
 J. V. Ortiz, A. F. Izmaylov, J. L. Sonnenberg, D. Williams-Young, 
 F. Ding, F. Lipparini, F. Egidi, J. Goings, B. Peng, A. Petrone, 
 T. Henderson, D. Ranasinghe, V. G. Zakrzewski, J. Gao, N. Rega, 
 G. Zheng, W. Liang, M. Hada, M. Ehara, K. Toyota, R. Fukuda, 
 J. Hasegawa, M. Ishida, T. Nakajima, Y. Honda, O. Kitao, H. Nakai, 
 T. Vreven, K. Throssell, J. A. Montgomery, Jr., J. E. Peralta, 
 F. Ogliaro, M. J. Bearpark, J. J. Heyd, E. N. Brothers, K. N. Kudin, 
 V. N. Staroverov, T. A. Keith, R. Kobayashi, J. Normand, 
 K. Raghavachari, A. P. Rendell, J. C. Burant, S. S. Iyengar, 
 J. Tomasi, M. Cossi, J. M. Millam, M. Klene, C. Adamo, R. Cammi, 
 J. W. Ochterski, R. L. Martin, K. Morokuma, O. Farkas, 
 J. B. Foresman, and D. J. Fox, Gaussian, Inc., Wallingford CT, 2019.
 
 ******************************************
 Gaussian 16:  ES64L-G16RevC.01  3-Jul-2019
                 2-May-2024 
 ******************************************
 %chk=geometry.chk
 %mem=1GB
 %nprocshared=12
 Will use up to   12 processors via shared memory.
 ---------------------------------------
 #P wB97XD/6-311+G* NoSymm #P Field=Z+68
 ---------------------------------------
 1/38=1,172=1/1;
 2/12=2,15=1,17=6,18=5,40=1/2;
 3/5=4,6=6,7=11,11=2,14=3,15=68,25=1,30=1,74=-58/1,2,3;
 4//1;
 5/5=2,38=5/2;
 6/7=2,8=2,9=2,10=2,28=1/1;
 99/5=1,9=1/99;
 Leave Link    1 at Thu May  2 13:58:20 2024, MaxMem=   134217728 cpu:               1.0 elap:               1.0
 (Enter /software/gaussian/g16-c01/sse4/g16/l101.exe)
 -------
 TitleMe
 -------
 Symbolic Z-matrix:
 Charge =  1 Multiplicity = 1
 C                     0.5193    1.233    -0.0319 
 C                     1.9445    1.2692   -0.0367 
 C                     2.6204    0.0928   -0.025 
 C                    -0.196     0.0301    0.001 
 H                    -0.0207    2.1742   -0.0434 
 H                     2.4828    2.2089   -0.0361 
 H                    -1.2777    0.0399    0.0117 
 N                     4.0921    0.0959    0.0366 
 O                     4.6393   -1.0217    0.1446 
 O                     4.6649    1.1984   -0.0233 
 C                     0.4943   -1.1671    0.021 
 H                    -0.0325   -2.1149    0.0545 
 C                     1.9629   -1.2165   -0.0211 
 H                     2.4436   -1.9631    0.6151 
 Br                    2.173    -1.9491   -1.9062 
 
 ITRead=  0  0  0  0  0  0  0  0  0  0  0  0  0  0  0
 MicOpt= -1 -1 -1 -1 -1 -1 -1 -1 -1 -1 -1 -1 -1 -1 -1
 NAtoms=     15 NQM=       15 NQMF=       0 NMMI=      0 NMMIF=      0
                NMic=       0 NMicF=      0.
                    Isotopes and Nuclear Properties:
 (Nuclear quadrupole moments (NQMom) in fm**2, nuclear magnetic moments (NMagM)
  in nuclear magnetons)

  Atom         1           2           3           4           5           6           7           8           9          10
 IAtWgt=          12          12          12          12           1           1           1          14          16          16
 AtmWgt=  12.0000000  12.0000000  12.0000000  12.0000000   1.0078250   1.0078250   1.0078250  14.0030740  15.9949146  15.9949146
 NucSpn=           0           0           0           0           1           1           1           2           0           0
 AtZEff=  -0.0000000  -0.0000000  -0.0000000  -0.0000000  -0.0000000  -0.0000000  -0.0000000  -0.0000000  -0.0000000  -0.0000000
 NQMom=    0.0000000   0.0000000   0.0000000   0.0000000   0.0000000   0.0000000   0.0000000   2.0440000   0.0000000   0.0000000
 NMagM=    0.0000000   0.0000000   0.0000000   0.0000000   2.7928460   2.7928460   2.7928460   0.4037610   0.0000000   0.0000000
 AtZNuc=   6.0000000   6.0000000   6.0000000   6.0000000   1.0000000   1.0000000   1.0000000   7.0000000   8.0000000   8.0000000

  Atom        11          12          13          14          15
 IAtWgt=          12           1          12           1          79
 AtmWgt=  12.0000000   1.0078250  12.0000000   1.0078250  78.9183361
 NucSpn=           0           1           0           1           3
 AtZEff=  -0.0000000  -0.0000000  -0.0000000  -0.0000000  -0.0000000
 NQMom=    0.0000000   0.0000000   0.0000000   0.0000000  31.3000000
 NMagM=    0.0000000   2.7928460   0.0000000   2.7928460   2.1063990
 AtZNuc=   6.0000000   1.0000000   6.0000000   1.0000000  35.0000000
 Leave Link  101 at Thu May  2 13:58:22 2024, MaxMem=   134217728 cpu:               1.5 elap:               1.6
 (Enter /software/gaussian/g16-c01/sse4/g16/l202.exe)
                          Input orientation:                          
 ---------------------------------------------------------------------
 Center     Atomic      Atomic             Coordinates (Angstroms)
 Number     Number       Type             X           Y           Z
 ---------------------------------------------------------------------
      1          6           0        0.519300    1.233000   -0.031900
      2          6           0        1.944500    1.269200   -0.036700
      3          6           0        2.620400    0.092800   -0.025000
      4          6           0       -0.196000    0.030100    0.001000
      5          1           0       -0.020700    2.174200   -0.043400
      6          1           0        2.482800    2.208900   -0.036100
      7          1           0       -1.277700    0.039900    0.011700
      8          7           0        4.092100    0.095900    0.036600
      9          8           0        4.639300   -1.021700    0.144600
     10          8           0        4.664900    1.198400   -0.023300
     11          6           0        0.494300   -1.167100    0.021000
     12          1           0       -0.032500   -2.114900    0.054500
     13          6           0        1.962900   -1.216500   -0.021100
     14          1           0        2.443600   -1.963100    0.615100
     15         35           0        2.173000   -1.949100   -1.906200
 ---------------------------------------------------------------------
                    Distance matrix (angstroms):
                    1          2          3          4          5
     1  C    0.000000
     2  C    1.425668   0.000000
     3  C    2.390549   1.356796   0.000000
     4  C    1.399895   2.473566   2.817218   0.000000
     5  H    1.085168   2.163581   3.362733   2.151712   0.000000
     6  H    2.192654   1.082960   2.120598   3.453189   2.503751
     7  H    2.157452   3.449071   3.898632   1.081797   2.477564
     8  N    3.750012   2.448304   1.472992   4.288753   4.608780
     9  O    4.699917   3.541615   2.312322   4.950458   5.653735
    10  O    4.145753   2.721354   2.324292   4.999386   4.786171
    11  C    2.400813   2.835836   2.471794   1.382101   3.381369
    12  H    3.394169   3.920329   3.452266   2.151887   4.290233
    13  C    2.843264   2.485817   1.465124   2.493060   3.928360
    14  H    3.786370   3.334922   2.160489   3.364142   4.860416
    15  Br   4.046416   3.728900   2.812194   3.628609   5.028314
                    6          7          8          9         10
     6  H    0.000000
     7  H    4.341452   0.000000
     8  N    2.657047   5.370150   0.000000
     9  O    3.888434   6.012948   1.249048   0.000000
    10  O    2.404752   6.054572   1.243863   2.226587   0.000000
    11  C    3.918516   2.144043   3.813080   4.149391   4.794941
    12  H    5.003018   2.489080   4.679774   4.798846   5.748876
    13  C    3.464662   3.475788   2.501842   2.688591   3.623886
    14  H    4.222698   4.268978   2.700314   2.434893   3.916224
    15  Br   4.569706   4.420610   3.411663   3.338935   4.434144
                   11         12         13         14         15
    11  C    0.000000
    12  H    1.084880   0.000000
    13  C    1.470034   2.189625   0.000000
    14  H    2.187771   2.543302   1.092353   0.000000
    15  Br   2.672762   2.955683   2.033334   2.535818   0.000000
 Symmetry turned off by external request.
 Stoichiometry    C6H5BrNO2(1+)
 Framework group  C1[X(C6H5BrNO2)]
 Deg. of freedom    39
 Full point group                 C1      NOp   1
 Rotational constants (GHZ):           1.1632986           0.9594224           0.5957624
 Leave Link  202 at Thu May  2 13:58:23 2024, MaxMem=   134217728 cpu:               1.2 elap:               1.2
 (Enter /software/gaussian/g16-c01/sse4/g16/l301.exe)
 Standard basis: 6-311+G(d) (5D, 7F)
 Ernie: Thresh=  0.10000D-02 Tol=  0.10000D-05 Strict=F.
 The following finite field(s) will be applied:
 An electric field of              0.0000  0.0000  0.0068
   261 basis functions,   443 primitive gaussians,   273 cartesian basis functions
    49 alpha electrons       49 beta electrons
       nuclear repulsion energy       772.8945969580 Hartrees.
 IExCor= 4639 DFT=T Ex+Corr=wB97XD ExCW=0 ScaHFX=  1.000000
 ScaDFX=  1.000000  1.000000  1.000000  1.000000 ScalE2=  1.000000  1.000000
 IRadAn=      5 IRanWt=     -1 IRanGd=            0 ICorTp=0 IEmpDi=121
 HFx  wShort=  0.000000 wLong=  0.200000 cFull=  0.222036 cShort=  0.000000 cLong=  0.777964
 DFx  wShort=  0.000000 wLong=  0.200000 cFull=  0.000000 cShort=  0.000000 cLong=  1.000000
 NAtoms=   15 NActive=   15 NUniq=   15 SFac= 1.00D+00 NAtFMM=   60 NAOKFM=F Big=F
 Integral buffers will be    131072 words long.
 Raffenetti 2 integral format.
 Two-electron integral symmetry is turned off.
 R6Disp:  Grimme-D2 Dispersion energy=       -0.0080346408 Hartrees.
 Nuclear repulsion after empirical dispersion term =      772.8865623173 Hartrees.
 Leave Link  301 at Thu May  2 13:58:24 2024, MaxMem=   134217728 cpu:               1.0 elap:               1.0
 (Enter /software/gaussian/g16-c01/sse4/g16/l302.exe)
 NPDir=0 NMtPBC=     1 NCelOv=     1 NCel=       1 NClECP=     1 NCelD=      1
         NCelK=      1 NCelE2=     1 NClLst=     1 CellRange=     0.0.
 One-electron integrals computed using PRISM.
 NBasis=   261 RedAO= T EigKep=  2.52D-06  NBF=   261
 NBsUse=   261 1.00D-06 EigRej= -1.00D+00 NBFU=   261
 Precomputing XC quadrature grid using
 IXCGrd= 4 IRadAn=           5 IRanWt=          -1 IRanGd=           0 AccXCQ= 0.00D+00.
 Generated NRdTot=       0 NPtTot=           0 NUsed=           0 NTot=          32
 NSgBfM=   273   273   273   273   273 MxSgAt=    15 MxSgA2=    15.
 Leave Link  302 at Thu May  2 13:58:46 2024, MaxMem=   134217728 cpu:              21.6 elap:              21.6
 (Enter /software/gaussian/g16-c01/sse4/g16/l303.exe)
 DipDrv:  MaxL=1.
 The nuclear repulsion energy is now       772.0455876290 hartrees.
 Leave Link  303 at Thu May  2 13:58:49 2024, MaxMem=   134217728 cpu:               3.3 elap:               3.3
 (Enter /software/gaussian/g16-c01/sse4/g16/l401.exe)
 ExpMin= 3.50D-02 ExpMax= 4.40D+05 ExpMxC= 1.51D+04 IAcc=3 IRadAn=         5 AccDes= 0.00D+00
 Harris functional with IExCor= 4639 and IRadAn=       5 diagonalized for initial guess.
 HarFok:  IExCor= 4639 AccDes= 0.00D+00 IRadAn=         5 IDoV= 1 UseB2=F ITyADJ=14
 ICtDFT=  3500011 ScaDFX=  1.000000  1.000000  1.000000  1.000000
 FoFCou: FMM=F IPFlag=           0 FMFlag=      100000 FMFlg1=           0
         NFxFlg=           0 DoJE=T BraDBF=F KetDBF=T FulRan=T
         wScrn=  0.000000 ICntrl=       500 IOpCl=  0 I1Cent=   200000004 NGrid=           0
         NMat0=    1 NMatS0=      1 NMatT0=    0 NMatD0=    1 NMtDS0=    0 NMtDT0=    0
 Symmetry not used in FoFCou.
 Harris En= -2970.60312648643    
 JPrj=0 DoOrth=F DoCkMO=F.
 Leave Link  401 at Thu May  2 13:59:20 2024, MaxMem=   134217728 cpu:              31.2 elap:              31.2
 (Enter /software/gaussian/g16-c01/sse4/g16/l502.exe)
 Two-electron integral symmetry not used.
 Closed shell SCF:
 Using DIIS extrapolation, IDIIS=  1040.
 NGot=   134217728 LenX=   134063053 LenY=   133988083
 Requested convergence on RMS density matrix=1.00D-08 within 128 cycles.
 Requested convergence on MAX density matrix=1.00D-06.
 Requested convergence on             energy=1.00D-06.
 No special actions if energy rises.
 Fock matrices will be formed incrementally for  20 cycles.

 Cycle   1  Pass 1  IDiag  1:
 FoFJK:  IHMeth= 1 ICntrl=       0 DoSepK=T KAlg= 0 I1Cent=           0 FoldK=F
 IRaf=         1 NMat=       1 IRICut=       1 DoRegI=T DoRafI=F ISym2E= 0 IDoP0=0 IntGTp=1.
 FoFCou: FMM=F IPFlag=           0 FMFlag=      100000 FMFlg1=           0
         NFxFlg=           0 DoJE=T BraDBF=F KetDBF=F FulRan=T
         wScrn=  0.000000 ICntrl=       500 IOpCl=  0 I1Cent=           0 NGrid=           0
         NMat0=    1 NMatS0=      1 NMatT0=    0 NMatD0=    1 NMtDS0=    0 NMtDT0=    0
 Symmetry not used in FoFCou.
 E= -3009.69620963571    
 DIIS: error= 2.91D-01 at cycle   1 NSaved=   1.
 NSaved= 1 IEnMin= 1 EnMin= -3009.69620963571     IErMin= 1 ErrMin= 2.91D-01
 ErrMax= 2.91D-01  0.00D+00 EMaxC= 1.00D-01 BMatC= 1.20D+01 BMatP= 1.20D+01
 IDIUse=3 WtCom= 0.00D+00 WtEn= 1.00D+00
 Coeff-Com:  0.100D+01
 Coeff-En:   0.100D+01
 Coeff:      0.100D+01
 Gap=     0.317 Goal=   None    Shift=    0.000
 GapD=    0.317 DampG=1.000 DampE=0.250 DampFc=0.2500 IDamp=-1.
 Damping current iteration by 2.50D-01
 RMSDP=6.29D-02 MaxDP=7.06D+00              OVMax= 2.61D-01

 Cycle   2  Pass 1  IDiag  1:
 RMSU=  6.18D-03    CP:  8.92D-01
 E= -3009.99077681174     Delta-E=       -0.294567176028 Rises=F Damp=T
 DIIS: error= 2.19D-01 at cycle   2 NSaved=   2.
 NSaved= 2 IEnMin= 2 EnMin= -3009.99077681174     IErMin= 2 ErrMin= 2.19D-01
 ErrMax= 2.19D-01  0.00D+00 EMaxC= 1.00D-01 BMatC= 5.46D+00 BMatP= 1.20D+01
 IDIUse=3 WtCom= 0.00D+00 WtEn= 1.00D+00
 Coeff-Com: -0.182D+01 0.282D+01
 Coeff-En:   0.000D+00 0.100D+01
 Coeff:      0.000D+00 0.100D+01
 Gap=     0.269 Goal=   None    Shift=    0.000
 RMSDP=4.70D-02 MaxDP=5.70D+00 DE=-2.95D-01 OVMax= 7.46D-02

 Cycle   3  Pass 1  IDiag  1:
 RMSU=  4.82D-03    CP:  5.56D-01  3.00D+00
 E= -3010.37558323377     Delta-E=       -0.384806422028 Rises=F Damp=F
 DIIS: error= 6.63D-02 at cycle   3 NSaved=   3.
 NSaved= 3 IEnMin= 3 EnMin= -3010.37558323377     IErMin= 3 ErrMin= 6.63D-02
 ErrMax= 6.63D-02  0.00D+00 EMaxC= 1.00D-01 BMatC= 7.48D-01 BMatP= 5.46D+00
 IDIUse=3 WtCom= 3.37D-01 WtEn= 6.63D-01
 Coeff-Com:  0.261D+01-0.342D+01 0.181D+01
 Coeff-En:   0.456D-01 0.000D+00 0.954D+00
 Coeff:      0.908D+00-0.115D+01 0.124D+01
 Gap=     0.265 Goal=   None    Shift=    0.000
 RMSDP=1.38D-02 MaxDP=1.20D+00 DE=-3.85D-01 OVMax= 8.46D-02

 Cycle   4  Pass 1  IDiag  1:
 RMSU=  4.18D-03    CP:  6.22D-01  1.63D+00  1.96D+00
 E= -3010.48951512347     Delta-E=       -0.113931889709 Rises=F Damp=F
 DIIS: error= 3.72D-02 at cycle   4 NSaved=   4.
 NSaved= 4 IEnMin= 4 EnMin= -3010.48951512347     IErMin= 4 ErrMin= 3.72D-02
 ErrMax= 3.72D-02  0.00D+00 EMaxC= 1.00D-01 BMatC= 2.18D-01 BMatP= 7.48D-01
 IDIUse=3 WtCom= 6.28D-01 WtEn= 3.72D-01
 Coeff-Com: -0.834D-01 0.125D+00 0.314D+00 0.645D+00
 Coeff-En:   0.000D+00 0.000D+00 0.185D+00 0.815D+00
 Coeff:     -0.524D-01 0.784D-01 0.266D+00 0.708D+00
 Gap=     0.250 Goal=   None    Shift=    0.000
 RMSDP=8.06D-03 MaxDP=1.10D+00 DE=-1.14D-01 OVMax= 3.48D-02

 Cycle   5  Pass 1  IDiag  1:
 RMSU=  1.63D-03    CP:  5.68D-01  2.00D+00  1.90D+00  5.00D-01
 E= -3010.53289738981     Delta-E=       -0.043382266335 Rises=F Damp=F
 DIIS: error= 6.69D-03 at cycle   5 NSaved=   5.
 NSaved= 5 IEnMin= 5 EnMin= -3010.53289738981     IErMin= 5 ErrMin= 6.69D-03
 ErrMax= 6.69D-03  0.00D+00 EMaxC= 1.00D-01 BMatC= 8.52D-03 BMatP= 2.18D-01
 IDIUse=3 WtCom= 9.33D-01 WtEn= 6.69D-02
 Coeff-Com: -0.126D+00 0.173D+00 0.846D-01 0.379D+00 0.490D+00
 Coeff-En:   0.000D+00 0.000D+00 0.000D+00 0.000D+00 0.100D+01
 Coeff:     -0.118D+00 0.161D+00 0.790D-01 0.354D+00 0.524D+00
 Gap=     0.240 Goal=   None    Shift=    0.000
 RMSDP=1.95D-03 MaxDP=2.58D-01 DE=-4.34D-02 OVMax= 2.13D-02

 Cycle   6  Pass 1  IDiag  1:
 RMSU=  5.63D-04    CP:  5.79D-01  1.92D+00  1.94D+00  6.62D-01  6.08D-01
 E= -3010.53511569313     Delta-E=       -0.002218303319 Rises=F Damp=F
 DIIS: error= 2.73D-03 at cycle   6 NSaved=   6.
 NSaved= 6 IEnMin= 6 EnMin= -3010.53511569313     IErMin= 6 ErrMin= 2.73D-03
 ErrMax= 2.73D-03  0.00D+00 EMaxC= 1.00D-01 BMatC= 5.80D-04 BMatP= 8.52D-03
 IDIUse=3 WtCom= 9.73D-01 WtEn= 2.73D-02
 Coeff-Com: -0.989D-01 0.133D+00-0.393D-03 0.172D+00 0.356D+00 0.438D+00
 Coeff-En:   0.000D+00 0.000D+00 0.000D+00 0.000D+00 0.873D-01 0.913D+00
 Coeff:     -0.962D-01 0.130D+00-0.382D-03 0.167D+00 0.349D+00 0.451D+00
 Gap=     0.239 Goal=   None    Shift=    0.000
 RMSDP=6.25D-04 MaxDP=7.59D-02 DE=-2.22D-03 OVMax= 8.72D-03

 Cycle   7  Pass 1  IDiag  1:
 RMSU=  2.29D-04    CP:  5.76D-01  1.94D+00  1.95D+00  6.31D-01  7.77D-01
                    CP:  6.58D-01
 E= -3010.53552483401     Delta-E=       -0.000409140885 Rises=F Damp=F
 DIIS: error= 3.95D-04 at cycle   7 NSaved=   7.
 NSaved= 7 IEnMin= 7 EnMin= -3010.53552483401     IErMin= 7 ErrMin= 3.95D-04
 ErrMax= 3.95D-04  0.00D+00 EMaxC= 1.00D-01 BMatC= 1.83D-05 BMatP= 5.80D-04
 IDIUse=3 WtCom= 9.96D-01 WtEn= 3.95D-03
 Coeff-Com: -0.374D-01 0.499D-01-0.122D-01 0.383D-01 0.927D-01 0.192D+00
 Coeff-Com:  0.677D+00
 Coeff-En:   0.000D+00 0.000D+00 0.000D+00 0.000D+00 0.000D+00 0.000D+00
 Coeff-En:   0.100D+01
 Coeff:     -0.372D-01 0.497D-01-0.122D-01 0.382D-01 0.923D-01 0.191D+00
 Coeff:      0.678D+00
 Gap=     0.241 Goal=   None    Shift=    0.000
 RMSDP=1.54D-04 MaxDP=1.66D-02 DE=-4.09D-04 OVMax= 1.48D-03

 Cycle   8  Pass 1  IDiag  1:
 RMSU=  6.27D-05    CP:  5.75D-01  1.94D+00  1.95D+00  6.36D-01  8.14D-01
                    CP:  6.78D-01  8.87D-01
 E= -3010.53554369448     Delta-E=       -0.000018860464 Rises=F Damp=F
 DIIS: error= 1.15D-04 at cycle   8 NSaved=   8.
 NSaved= 8 IEnMin= 8 EnMin= -3010.53554369448     IErMin= 8 ErrMin= 1.15D-04
 ErrMax= 1.15D-04  0.00D+00 EMaxC= 1.00D-01 BMatC= 2.45D-06 BMatP= 1.83D-05
 IDIUse=3 WtCom= 9.99D-01 WtEn= 1.15D-03
 Coeff-Com:  0.343D-02-0.480D-02-0.369D-02-0.127D-01-0.287D-01-0.245D-01
 Coeff-Com:  0.182D+00 0.889D+00
 Coeff-En:   0.000D+00 0.000D+00 0.000D+00 0.000D+00 0.000D+00 0.000D+00
 Coeff-En:   0.000D+00 0.100D+01
 Coeff:      0.342D-02-0.480D-02-0.369D-02-0.126D-01-0.287D-01-0.245D-01
 Coeff:      0.182D+00 0.889D+00
 Gap=     0.241 Goal=   None    Shift=    0.000
 RMSDP=6.79D-05 MaxDP=5.67D-03 DE=-1.89D-05 OVMax= 9.34D-04

 Cycle   9  Pass 1  IDiag  1:
 RMSU=  2.57D-05    CP:  5.75D-01  1.93D+00  1.96D+00  6.41D-01  8.32D-01
                    CP:  6.76D-01  1.06D+00  1.22D+00
 E= -3010.53554802782     Delta-E=       -0.000004333338 Rises=F Damp=F
 DIIS: error= 2.14D-05 at cycle   9 NSaved=   9.
 NSaved= 9 IEnMin= 9 EnMin= -3010.53554802782     IErMin= 9 ErrMin= 2.14D-05
 ErrMax= 2.14D-05  0.00D+00 EMaxC= 1.00D-01 BMatC= 2.22D-07 BMatP= 2.45D-06
 IDIUse=1 WtCom= 1.00D+00 WtEn= 0.00D+00
 Coeff-Com:  0.642D-02-0.863D-02 0.616D-03-0.929D-02-0.197D-01-0.312D-01
 Coeff-Com: -0.495D-01 0.241D+00 0.870D+00
 Coeff:      0.642D-02-0.863D-02 0.616D-03-0.929D-02-0.197D-01-0.312D-01
 Coeff:     -0.495D-01 0.241D+00 0.870D+00
 Gap=     0.241 Goal=   None    Shift=    0.000
 RMSDP=5.63D-05 MaxDP=7.30D-03 DE=-4.33D-06 OVMax= 5.76D-04

 Cycle  10  Pass 1  IDiag  1:
 RMSU=  8.28D-06    CP:  5.75D-01  1.93D+00  1.96D+00  6.39D-01  8.42D-01
                    CP:  6.62D-01  1.10D+00  1.51D+00  1.09D+00
 E= -3010.53554885847     Delta-E=       -0.000000830649 Rises=F Damp=F
 DIIS: error= 1.39D-05 at cycle  10 NSaved=  10.
 NSaved=10 IEnMin=10 EnMin= -3010.53554885847     IErMin=10 ErrMin= 1.39D-05
 ErrMax= 1.39D-05  0.00D+00 EMaxC= 1.00D-01 BMatC= 6.24D-08 BMatP= 2.22D-07
 IDIUse=1 WtCom= 1.00D+00 WtEn= 0.00D+00
 Coeff-Com:  0.629D-03-0.820D-03 0.397D-03-0.418D-03 0.135D-02 0.152D-02
 Coeff-Com: -0.363D-01-0.792D-01 0.222D+00 0.891D+00
 Coeff:      0.629D-03-0.820D-03 0.397D-03-0.418D-03 0.135D-02 0.152D-02
 Coeff:     -0.363D-01-0.792D-01 0.222D+00 0.891D+00
 Gap=     0.241 Goal=   None    Shift=    0.000
 RMSDP=1.11D-05 MaxDP=9.46D-04 DE=-8.31D-07 OVMax= 3.38D-04

 Cycle  11  Pass 1  IDiag  1:
 RMSU=  6.85D-06    CP:  5.75D-01  1.94D+00  1.96D+00  6.40D-01  8.42D-01
                    CP:  6.61D-01  1.09D+00  1.58D+00  1.19D+00  1.23D+00
 E= -3010.53554905781     Delta-E=       -0.000000199346 Rises=F Damp=F
 DIIS: error= 4.73D-06 at cycle  11 NSaved=  11.
 NSaved=11 IEnMin=11 EnMin= -3010.53554905781     IErMin=11 ErrMin= 4.73D-06
 ErrMax= 4.73D-06  0.00D+00 EMaxC= 1.00D-01 BMatC= 7.64D-09 BMatP= 6.24D-08
 IDIUse=1 WtCom= 1.00D+00 WtEn= 0.00D+00
 Coeff-Com: -0.347D-03 0.467D-03 0.569D-04 0.859D-03 0.235D-02 0.450D-02
 Coeff-Com:  0.801D-02-0.306D-01-0.135D+00-0.148D-01 0.116D+01
 Coeff:     -0.347D-03 0.467D-03 0.569D-04 0.859D-03 0.235D-02 0.450D-02
 Coeff:      0.801D-02-0.306D-01-0.135D+00-0.148D-01 0.116D+01
 Gap=     0.241 Goal=   None    Shift=    0.000
 RMSDP=1.13D-05 MaxDP=1.01D-03 DE=-1.99D-07 OVMax= 2.45D-04

 Cycle  12  Pass 1  IDiag  1:
 RMSU=  1.51D-06    CP:  5.75D-01  1.94D+00  1.96D+00  6.39D-01  8.43D-01
                    CP:  6.57D-01  1.09D+00  1.64D+00  1.21D+00  1.53D+00
                    CP:  1.50D+00
 E= -3010.53554912034     Delta-E=       -0.000000062526 Rises=F Damp=F
 DIIS: error= 3.68D-06 at cycle  12 NSaved=  12.
 NSaved=12 IEnMin=12 EnMin= -3010.53554912034     IErMin=12 ErrMin= 3.68D-06
 ErrMax= 3.68D-06  0.00D+00 EMaxC= 1.00D-01 BMatC= 3.29D-09 BMatP= 7.64D-09
 IDIUse=1 WtCom= 1.00D+00 WtEn= 0.00D+00
 Coeff-Com: -0.258D-03 0.342D-03-0.456D-04 0.487D-03 0.606D-03 0.156D-02
 Coeff-Com:  0.138D-01 0.487D-02-0.129D+00-0.249D+00 0.594D+00 0.762D+00
 Coeff:     -0.258D-03 0.342D-03-0.456D-04 0.487D-03 0.606D-03 0.156D-02
 Coeff:      0.138D-01 0.487D-02-0.129D+00-0.249D+00 0.594D+00 0.762D+00
 Gap=     0.241 Goal=   None    Shift=    0.000
 RMSDP=2.49D-06 MaxDP=1.82D-04 DE=-6.25D-08 OVMax= 1.30D-04

 Cycle  13  Pass 1  IDiag  1:
 RMSU=  9.30D-07    CP:  5.75D-01  1.94D+00  1.96D+00  6.39D-01  8.43D-01
                    CP:  6.56D-01  1.09D+00  1.65D+00  1.23D+00  1.64D+00
                    CP:  1.72D+00  1.23D+00
 E= -3010.53554913491     Delta-E=       -0.000000014569 Rises=F Damp=F
 DIIS: error= 1.41D-06 at cycle  13 NSaved=  13.
 NSaved=13 IEnMin=13 EnMin= -3010.53554913491     IErMin=13 ErrMin= 1.41D-06
 ErrMax= 1.41D-06  0.00D+00 EMaxC= 1.00D-01 BMatC= 4.09D-10 BMatP= 3.29D-09
 IDIUse=1 WtCom= 1.00D+00 WtEn= 0.00D+00
 Coeff-Com: -0.516D-05 0.662D-05-0.235D-04-0.105D-03-0.518D-03-0.104D-02
 Coeff-Com: -0.140D-02 0.403D-02 0.274D-01-0.603D-03-0.215D+00 0.752D-01
 Coeff-Com:  0.111D+01
 Coeff:     -0.516D-05 0.662D-05-0.235D-04-0.105D-03-0.518D-03-0.104D-02
 Coeff:     -0.140D-02 0.403D-02 0.274D-01-0.603D-03-0.215D+00 0.752D-01
 Coeff:      0.111D+01
 Gap=     0.241 Goal=   None    Shift=    0.000
 RMSDP=1.24D-06 MaxDP=7.24D-05 DE=-1.46D-08 OVMax= 5.40D-05

 Cycle  14  Pass 1  IDiag  1:
 RMSU=  3.91D-07    CP:  5.75D-01  1.94D+00  1.96D+00  6.39D-01  8.43D-01
                    CP:  6.56D-01  1.09D+00  1.64D+00  1.22D+00  1.67D+00
                    CP:  1.73D+00  1.51D+00  1.61D+00
 E= -3010.53554913709     Delta-E=       -0.000000002184 Rises=F Damp=F
 DIIS: error= 4.77D-07 at cycle  14 NSaved=  14.
 NSaved=14 IEnMin=14 EnMin= -3010.53554913709     IErMin=14 ErrMin= 4.77D-07
 ErrMax= 4.77D-07  0.00D+00 EMaxC= 1.00D-01 BMatC= 6.49D-11 BMatP= 4.09D-10
 IDIUse=1 WtCom= 1.00D+00 WtEn= 0.00D+00
 Coeff-Com:  0.160D-04-0.210D-04-0.734D-05-0.896D-04-0.224D-03-0.518D-03
 Coeff-Com: -0.231D-02 0.171D-03 0.285D-01 0.363D-01-0.168D+00-0.808D-01
 Coeff-Com:  0.380D+00 0.807D+00
 Coeff:      0.160D-04-0.210D-04-0.734D-05-0.896D-04-0.224D-03-0.518D-03
 Coeff:     -0.231D-02 0.171D-03 0.285D-01 0.363D-01-0.168D+00-0.808D-01
 Coeff:      0.380D+00 0.807D+00
 Gap=     0.241 Goal=   None    Shift=    0.000
 RMSDP=6.62D-07 MaxDP=7.55D-05 DE=-2.18D-09 OVMax= 1.67D-05

 Cycle  15  Pass 1  IDiag  1:
 RMSU=  1.55D-07    CP:  5.75D-01  1.94D+00  1.96D+00  6.39D-01  8.43D-01
                    CP:  6.57D-01  1.09D+00  1.64D+00  1.22D+00  1.68D+00
                    CP:  1.73D+00  1.60D+00  1.85D+00  1.33D+00
 E= -3010.53554913734     Delta-E=       -0.000000000248 Rises=F Damp=F
 DIIS: error= 2.70D-07 at cycle  15 NSaved=  15.
 NSaved=15 IEnMin=15 EnMin= -3010.53554913734     IErMin=15 ErrMin= 2.70D-07
 ErrMax= 2.70D-07  0.00D+00 EMaxC= 1.00D-01 BMatC= 1.07D-11 BMatP= 6.49D-11
 IDIUse=1 WtCom= 1.00D+00 WtEn= 0.00D+00
 Coeff-Com:  0.629D-05-0.835D-05 0.268D-05 0.172D-05 0.685D-04 0.112D-03
 Coeff-Com: -0.299D-04-0.713D-03 0.787D-04 0.671D-02 0.634D-02-0.291D-01
 Coeff-Com: -0.144D+00 0.204D+00 0.957D+00
 Coeff:      0.629D-05-0.835D-05 0.268D-05 0.172D-05 0.685D-04 0.112D-03
 Coeff:     -0.299D-04-0.713D-03 0.787D-04 0.671D-02 0.634D-02-0.291D-01
 Coeff:     -0.144D+00 0.204D+00 0.957D+00
 Gap=     0.241 Goal=   None    Shift=    0.000
 RMSDP=2.45D-07 MaxDP=1.97D-05 DE=-2.48D-10 OVMax= 6.53D-06

 Cycle  16  Pass 1  IDiag  1:
 RMSU=  5.46D-08    CP:  5.75D-01  1.94D+00  1.96D+00  6.39D-01  8.43D-01
                    CP:  6.57D-01  1.09D+00  1.64D+00  1.22D+00  1.68D+00
                    CP:  1.72D+00  1.62D+00  1.95D+00  1.55D+00  1.41D+00
 E= -3010.53554913742     Delta-E=       -0.000000000078 Rises=F Damp=F
 DIIS: error= 7.38D-08 at cycle  16 NSaved=  16.
 NSaved=16 IEnMin=16 EnMin= -3010.53554913742     IErMin=16 ErrMin= 7.38D-08
 ErrMax= 7.38D-08  0.00D+00 EMaxC= 1.00D-01 BMatC= 8.45D-13 BMatP= 1.07D-11
 IDIUse=1 WtCom= 1.00D+00 WtEn= 0.00D+00
 Coeff-Com: -0.120D-05 0.158D-05 0.102D-05 0.984D-05 0.321D-04 0.605D-04
 Coeff-Com:  0.218D-03-0.180D-03-0.287D-02-0.198D-02 0.169D-01 0.351D-02
 Coeff-Com: -0.512D-01-0.652D-01 0.762D-01 0.102D+01
 Coeff:     -0.120D-05 0.158D-05 0.102D-05 0.984D-05 0.321D-04 0.605D-04
 Coeff:      0.218D-03-0.180D-03-0.287D-02-0.198D-02 0.169D-01 0.351D-02
 Coeff:     -0.512D-01-0.652D-01 0.762D-01 0.102D+01
 Gap=     0.241 Goal=   None    Shift=    0.000
 RMSDP=7.98D-08 MaxDP=6.81D-06 DE=-7.82D-11 OVMax= 1.53D-06

 Cycle  17  Pass 1  IDiag  1:
 RMSU=  2.07D-08    CP:  5.75D-01  1.94D+00  1.96D+00  6.39D-01  8.43D-01
                    CP:  6.57D-01  1.09D+00  1.64D+00  1.22D+00  1.68D+00
                    CP:  1.72D+00  1.63D+00  1.97D+00  1.60D+00  1.66D+00
                    CP:  1.35D+00
 E= -3010.53554913742     Delta-E=        0.000000000000 Rises=F Damp=F
 DIIS: error= 2.73D-08 at cycle  17 NSaved=  17.
 NSaved=17 IEnMin=16 EnMin= -3010.53554913742     IErMin=17 ErrMin= 2.73D-08
 ErrMax= 2.73D-08  0.00D+00 EMaxC= 1.00D-01 BMatC= 1.50D-13 BMatP= 8.45D-13
 IDIUse=1 WtCom= 1.00D+00 WtEn= 0.00D+00
 Coeff-Com: -0.206D-05 0.276D-05-0.369D-06 0.254D-05-0.505D-06-0.236D-05
 Coeff-Com:  0.377D-04 0.762D-04-0.479D-03-0.988D-03 0.212D-02 0.375D-02
 Coeff-Com:  0.110D-01-0.374D-01-0.110D+00 0.154D+00 0.979D+00
 Coeff:     -0.206D-05 0.276D-05-0.369D-06 0.254D-05-0.505D-06-0.236D-05
 Coeff:      0.377D-04 0.762D-04-0.479D-03-0.988D-03 0.212D-02 0.375D-02
 Coeff:      0.110D-01-0.374D-01-0.110D+00 0.154D+00 0.979D+00
 Gap=     0.241 Goal=   None    Shift=    0.000
 RMSDP=4.26D-08 MaxDP=4.18D-06 DE= 0.00D+00 OVMax= 6.58D-07

 Cycle  18  Pass 1  IDiag  1:
 RMSU=  7.63D-09    CP:  5.75D-01  1.94D+00  1.96D+00  6.39D-01  8.43D-01
                    CP:  6.57D-01  1.09D+00  1.64D+00  1.22D+00  1.68D+00
                    CP:  1.72D+00  1.63D+00  1.97D+00  1.59D+00  1.73D+00
                    CP:  1.61D+00  1.29D+00
 E= -3010.53554913739     Delta-E=        0.000000000024 Rises=F Damp=F
 DIIS: error= 1.66D-08 at cycle  18 NSaved=  18.
 NSaved=18 IEnMin=16 EnMin= -3010.53554913742     IErMin=18 ErrMin= 1.66D-08
 ErrMax= 1.66D-08  0.00D+00 EMaxC= 1.00D-01 BMatC= 4.21D-14 BMatP= 1.50D-13
 IDIUse=1 WtCom= 1.00D+00 WtEn= 0.00D+00
 Coeff-Com: -0.216D-07 0.294D-07-0.225D-06-0.154D-05-0.810D-05-0.162D-04
 Coeff-Com: -0.320D-04 0.818D-04 0.342D-03-0.955D-04-0.249D-02 0.617D-03
 Coeff-Com:  0.151D-01-0.236D-02-0.568D-01-0.125D+00 0.397D+00 0.774D+00
 Coeff:     -0.216D-07 0.294D-07-0.225D-06-0.154D-05-0.810D-05-0.162D-04
 Coeff:     -0.320D-04 0.818D-04 0.342D-03-0.955D-04-0.249D-02 0.617D-03
 Coeff:      0.151D-01-0.236D-02-0.568D-01-0.125D+00 0.397D+00 0.774D+00
 Gap=     0.241 Goal=   None    Shift=    0.000
 RMSDP=2.51D-08 MaxDP=2.77D-06 DE= 2.36D-11 OVMax= 2.55D-07

 Cycle  19  Pass 1  IDiag  1:
 RMSU=  2.55D-09    CP:  5.75D-01  1.94D+00  1.96D+00  6.39D-01  8.43D-01
                    CP:  6.57D-01  1.09D+00  1.64D+00  1.22D+00  1.68D+00
                    CP:  1.72D+00  1.63D+00  1.97D+00  1.58D+00  1.76D+00
                    CP:  1.69D+00  1.52D+00  1.20D+00
 E= -3010.53554913744     Delta-E=       -0.000000000045 Rises=F Damp=F
 DIIS: error= 9.37D-09 at cycle  19 NSaved=  19.
 NSaved=19 IEnMin=19 EnMin= -3010.53554913744     IErMin=19 ErrMin= 9.37D-09
 ErrMax= 9.37D-09  0.00D+00 EMaxC= 1.00D-01 BMatC= 4.36D-15 BMatP= 4.21D-14
 IDIUse=1 WtCom= 1.00D+00 WtEn= 0.00D+00
 Large coefficients: NSaved= 19 BigCof=    0.00 CofMax=   10.00 Det=-8.06D-15
 Inversion failed.  Reducing to 18 matrices.
 Large coefficients: NSaved= 18 BigCof=    0.00 CofMax=   10.00 Det=-7.98D-15
 Inversion failed.  Reducing to 17 matrices.
 Coeff-Com: -0.833D-08 0.461D-07 0.930D-06 0.147D-05-0.369D-05-0.131D-04
 Coeff-Com:  0.523D-04 0.132D-03-0.168D-03-0.568D-03-0.136D-02 0.485D-02
 Coeff-Com:  0.143D-01-0.293D-01-0.141D+00-0.244D-02 0.116D+01
 Coeff:     -0.833D-08 0.461D-07 0.930D-06 0.147D-05-0.369D-05-0.131D-04
 Coeff:      0.523D-04 0.132D-03-0.168D-03-0.568D-03-0.136D-02 0.485D-02
 Coeff:      0.143D-01-0.293D-01-0.141D+00-0.244D-02 0.116D+01
 Gap=     0.241 Goal=   None    Shift=    0.000
 RMSDP=8.15D-09 MaxDP=7.91D-07 DE=-4.55D-11 OVMax= 1.86D-07

 SCF Done:  E(RwB97XD) =  -3010.53554914     A.U. after   19 cycles
            NFock= 19  Conv=0.81D-08     -V/T= 2.0016
 KE= 3.005841484856D+03 PE=-8.698432488961D+03 EE= 1.910009867338D+03
 Leave Link  502 at Thu May  2 14:19:13 2024, MaxMem=   134217728 cpu:            1192.2 elap:            1192.5
 (Enter /software/gaussian/g16-c01/sse4/g16/l601.exe)
 Copying SCF densities to generalized density rwf, IOpCl= 0 IROHF=0.

 **********************************************************************

            Population analysis using the SCF Density.

 **********************************************************************

 Alpha  occ. eigenvalues -- -483.29947 -62.84949 -56.64665 -56.64067 -56.64052
 Alpha  occ. eigenvalues --  -19.46010 -19.46006 -14.85419 -10.58733 -10.57294
 Alpha  occ. eigenvalues --  -10.56783 -10.56373 -10.52906 -10.52290  -9.00740
 Alpha  occ. eigenvalues --   -6.83479  -6.81522  -6.81479  -2.93368  -2.92858
 Alpha  occ. eigenvalues --   -2.92823  -2.91258  -2.91257  -1.49694  -1.32659
 Alpha  occ. eigenvalues --   -1.21872  -1.12327  -1.11797  -1.03886  -0.99719
 Alpha  occ. eigenvalues --   -0.94803  -0.90101  -0.84616  -0.80547  -0.79782
 Alpha  occ. eigenvalues --   -0.79695  -0.77469  -0.75906  -0.75100  -0.71289
 Alpha  occ. eigenvalues --   -0.68029  -0.67079  -0.62577  -0.59089  -0.57170
 Alpha  occ. eigenvalues --   -0.56418  -0.55708  -0.54767  -0.53491
 Alpha virt. eigenvalues --   -0.29434  -0.20042  -0.14737  -0.12650  -0.08987
 Alpha virt. eigenvalues --   -0.06403  -0.06015  -0.04972  -0.03099  -0.02767
 Alpha virt. eigenvalues --   -0.02061  -0.01672  -0.00314   0.00491   0.01456
 Alpha virt. eigenvalues --    0.01487   0.02632   0.03611   0.04174   0.04451
 Alpha virt. eigenvalues --    0.04710   0.05666   0.06233   0.06527   0.07422
 Alpha virt. eigenvalues --    0.07790   0.07973   0.08977   0.09326   0.09981
 Alpha virt. eigenvalues --    0.10165   0.11086   0.11874   0.12696   0.12979
 Alpha virt. eigenvalues --    0.13301   0.13480   0.14412   0.15300   0.15769
 Alpha virt. eigenvalues --    0.17055   0.17139   0.17856   0.18944   0.19066
 Alpha virt. eigenvalues --    0.20538   0.21201   0.21909   0.22627   0.24812
 Alpha virt. eigenvalues --    0.25058   0.26373   0.28616   0.30274   0.32929
 Alpha virt. eigenvalues --    0.33725   0.34159   0.34685   0.34801   0.36992
 Alpha virt. eigenvalues --    0.37939   0.38572   0.39960   0.41194   0.42561
 Alpha virt. eigenvalues --    0.43885   0.44470   0.45943   0.47500   0.47698
 Alpha virt. eigenvalues --    0.49117   0.50968   0.51608   0.53134   0.54030
 Alpha virt. eigenvalues --    0.55650   0.56479   0.58529   0.58679   0.60707
 Alpha virt. eigenvalues --    0.61747   0.62867   0.65314   0.68535   0.68790
 Alpha virt. eigenvalues --    0.71813   0.72122   0.73276   0.74759   0.75249
 Alpha virt. eigenvalues --    0.75493   0.77716   0.80022   0.84368   0.86172
 Alpha virt. eigenvalues --    0.87644   0.88237   0.91915   0.94829   0.99131
 Alpha virt. eigenvalues --    1.00733   1.03128   1.04377   1.06188   1.07385
 Alpha virt. eigenvalues --    1.09254   1.12852   1.13660   1.14415   1.18329
 Alpha virt. eigenvalues --    1.21297   1.23172   1.28606   1.34008   1.36818
 Alpha virt. eigenvalues --    1.37459   1.39534   1.43895   1.55527   1.57189
 Alpha virt. eigenvalues --    1.57746   1.60288   1.61755   1.64457   1.66426
 Alpha virt. eigenvalues --    1.68562   1.72063   1.74322   1.75812   1.80049
 Alpha virt. eigenvalues --    1.84487   1.85899   1.87822   1.96418   1.97270
 Alpha virt. eigenvalues --    1.98484   2.03245   2.03643   2.07871   2.09776
 Alpha virt. eigenvalues --    2.13654   2.15319   2.22843   2.24103   2.27900
 Alpha virt. eigenvalues --    2.34059   2.40316   2.41940   2.44822   2.53843
 Alpha virt. eigenvalues --    2.58587   2.63696   2.66536   2.69297   2.71946
 Alpha virt. eigenvalues --    2.74054   2.76668   2.77900   2.80938   2.82679
 Alpha virt. eigenvalues --    2.93876   2.98620   3.01848   3.06429   3.09580
 Alpha virt. eigenvalues --    3.15412   3.16902   3.18083   3.22808   3.26832
 Alpha virt. eigenvalues --    3.28295   3.38332   3.47193   3.50633   3.55016
 Alpha virt. eigenvalues --    3.58075   3.69137   3.74469   3.84261   3.87984
 Alpha virt. eigenvalues --    4.11424   4.12300   4.20721   4.24899   4.44317
 Alpha virt. eigenvalues --    4.45713   4.55269   4.60204   4.93771   4.96575
 Alpha virt. eigenvalues --    5.05468   5.09918   5.62238   6.15361   6.69415
 Alpha virt. eigenvalues --    7.50346   7.52642   7.62692  23.22809  23.61903
 Alpha virt. eigenvalues --   23.72690  23.78691  23.96283  24.02721  35.31746
 Alpha virt. eigenvalues --   47.95420  49.85450  49.94112 289.83041 289.85378
 Alpha virt. eigenvalues --  289.979831020.96571
          Condensed to atoms (all electrons):
               1          2          3          4          5          6
     1  C    7.755428  -2.213360   0.652202   0.001077   0.295659   0.058948
     2  C   -2.213360  17.775957  -3.505552   0.390489  -0.008239   0.193981
     3  C    0.652202  -3.505552  19.748971  -1.336718   0.015134   0.114612
     4  C    0.001077   0.390489  -1.336718   6.402157   0.026075  -0.014680
     5  H    0.295659  -0.008239   0.015134   0.026075   0.332581  -0.001704
     6  H    0.058948   0.193981   0.114612  -0.014680  -0.001704   0.313149
     7  H    0.026585  -0.027498   0.019084   0.306456  -0.002734  -0.000002
     8  N   -0.099206  -0.220493  -1.970352   0.022743  -0.000278  -0.030382
     9  O   -0.001391   0.376286   0.089418  -0.018687  -0.000030  -0.002522
    10  O    0.262392  -0.174148  -0.294966  -0.018043  -0.000009   0.021258
    11  C    0.754875  -0.419484   2.522457  -0.311193  -0.026962   0.008702
    12  H   -0.013367   0.021378   0.003832   0.022811   0.000033  -0.000019
    13  C   -1.361618  -6.168374  -9.805568   0.872714   0.026012  -0.010037
    14  H    0.000230   0.015296   0.048835  -0.000849  -0.000041   0.000071
    15  Br   0.009039  -0.243127  -0.240028  -0.012776   0.000189  -0.000588
               7          8          9         10         11         12
     1  C    0.026585  -0.099206  -0.001391   0.262392   0.754875  -0.013367
     2  C   -0.027498  -0.220493   0.376286  -0.174148  -0.419484   0.021378
     3  C    0.019084  -1.970352   0.089418  -0.294966   2.522457   0.003832
     4  C    0.306456   0.022743  -0.018687  -0.018043  -0.311193   0.022811
     5  H   -0.002734  -0.000278  -0.000030  -0.000009  -0.026962   0.000033
     6  H   -0.000002  -0.030382  -0.002522   0.021258   0.008702  -0.000019
     7  H    0.340046   0.000044  -0.000004   0.000006   0.026374  -0.002334
     8  N    0.000044   7.718238  -0.002457   0.224276  -0.332482   0.000628
     9  O   -0.000004  -0.002457   7.935958  -0.003033   0.274530   0.000125
    10  O    0.000006   0.224276  -0.003033   7.807585  -0.006140  -0.000032
    11  C    0.026374  -0.332482   0.274530  -0.006140   8.031587   0.304146
    12  H   -0.002334   0.000628   0.000125  -0.000032   0.304146   0.326353
    13  C   -0.014531   1.799854  -0.689671   0.106530  -4.685065  -0.013540
    14  H   -0.000039  -0.038079   0.016439  -0.001702   0.035737  -0.005662
    15  Br  -0.000308   0.182350  -0.063045   0.006678   0.043378   0.001092
              13         14         15
     1  C   -1.361618   0.000230   0.009039
     2  C   -6.168374   0.015296  -0.243127
     3  C   -9.805568   0.048835  -0.240028
     4  C    0.872714  -0.000849  -0.012776
     5  H    0.026012  -0.000041   0.000189
     6  H   -0.010037   0.000071  -0.000588
     7  H   -0.014531  -0.000039  -0.000308
     8  N    1.799854  -0.038079   0.182350
     9  O   -0.689671   0.016439  -0.063045
    10  O    0.106530  -0.001702   0.006678
    11  C   -4.685065   0.035737   0.043378
    12  H   -0.013540  -0.005662   0.001092
    13  C   25.606706   0.230199   0.491446
    14  H    0.230199   0.356880  -0.046580
    15  Br   0.491446  -0.046580  34.622450
 Mulliken charges:
               1
     1  C   -0.127492
     2  C    0.206887
     3  C   -0.061362
     4  C   -0.331577
     5  H    0.344314
     6  H    0.349213
     7  H    0.328855
     8  N   -0.254404
     9  O    0.088085
    10  O    0.069347
    11  C   -0.220460
    12  H    0.354555
    13  C   -0.385057
    14  H    0.389264
    15  Br   0.249830
 Sum of Mulliken charges =   1.00000
 Mulliken charges with hydrogens summed into heavy atoms:
               1
     1  C    0.216822
     2  C    0.556101
     3  C   -0.061362
     4  C   -0.002721
     8  N   -0.254404
     9  O    0.088085
    10  O    0.069347
    11  C    0.134095
    13  C    0.004207
    15  Br   0.249830
 Electronic spatial extent (au):  <R**2>=           3944.6845
 Charge=              1.0000 electrons
 Dipole moment (field-independent basis, Debye):
    X=              2.8827    Y=             -1.1809    Z=             -1.9748  Tot=              3.6884
 Quadrupole moment (field-independent basis, Debye-Ang):
   XX=            -67.8709   YY=            -50.7100   ZZ=            -60.6384
   XY=             -3.5267   XZ=             -5.0852   YZ=              3.6524
 Traceless Quadrupole moment (field-independent basis, Debye-Ang):
   XX=             -8.1311   YY=              9.0297   ZZ=             -0.8986
   XY=             -3.5267   XZ=             -5.0852   YZ=              3.6524
 Octapole moment (field-independent basis, Debye-Ang**2):
  XXX=           -514.2178  YYY=             89.9850  ZZZ=             76.5726  XYY=           -135.2587
  XXY=             23.1651  XXZ=             17.5799  XZZ=           -129.0323  YZZ=             13.8017
  YYZ=             21.6412  XYZ=             10.6753
 Hexadecapole moment (field-independent basis, Debye-Ang**3):
 XXXX=          -3458.9986 YYYY=           -697.2142 ZZZZ=           -380.0032 XXXY=            176.7145
 XXXZ=            156.1407 YYYX=            180.5108 YYYZ=           -164.2968 ZZZX=            153.9984
 ZZZY=           -134.2491 XXYY=           -621.0617 XXZZ=           -517.5702 YYZZ=           -163.7126
 XXYZ=            -34.2373 YYXZ=             40.7012 ZZXY=             21.5502
 N-N= 7.720455876290D+02 E-N=-8.698432488513D+03  KE= 3.005841484856D+03
 No NMR shielding tensors so no spin-rotation constants.
 Leave Link  601 at Thu May  2 14:19:21 2024, MaxMem=   134217728 cpu:               7.6 elap:               7.6
 (Enter /software/gaussian/g16-c01/sse4/g16/l9999.exe)
 Unable to Open any file for archive entry.
 1\1\GINC-BHX0018\SP\RwB97XD\6-311+G(d)\C6H5Br1N1O2(1+)\BWEIGHT\02-May-
 2024\0\\#P wB97XD/6-311+G* NoSymm #P Field=Z+68\\TitleMe\\1,1\C,0,0.51
 93,1.233,-0.0319\C,0,1.9445,1.2692,-0.0367\C,0,2.6204,0.0928,-0.025\C,
 0,-0.196,0.0301,0.001\H,0,-0.0207,2.1742,-0.0434\H,0,2.4828,2.2089,-0.
 0361\H,0,-1.2777,0.0399,0.0117\N,0,4.0921,0.0959,0.0366\O,0,4.6393,-1.
 0217,0.1446\O,0,4.6649,1.1984,-0.0233\C,0,0.4943,-1.1671,0.021\H,0,-0.
 0325,-2.1149,0.0545\C,0,1.9629,-1.2165,-0.0211\H,0,2.4436,-1.9631,0.61
 51\Br,0,2.173,-1.9491,-1.9062\\Version=ES64L-G16RevC.01\HF=-3010.53554
 91\RMSD=8.147e-09\Dipole=-3.1950846,0.7635022,0.4722869\Quadrupole=-6.
 0452829,6.7133756,-0.6680926,-2.6220231,-3.7807361,2.7154618\PG=C01 [X
 (C6H5Br1N1O2)]\\@
 The archive entry for this job was punched.


 "PERFECTION IS NOT AN ACCIDENT"
         --  EAGLE ELECTRIC MANUFACTURING CO.,INC. NY
 Job cpu time:       0 days  0 hours 21 minutes  1.6 seconds.
 Elapsed time:       0 days  0 hours 21 minutes  1.9 seconds.
 File lengths (MBytes):  RWF=     40 Int=      0 D2E=      0 Chk=     32 Scr=      1
 Normal termination of Gaussian 16 at Thu May  2 14:19:22 2024.
