 Entering Gaussian System, Link 0=g16
 Initial command:
 /software/gaussian/g16-c01/sse4/g16/l1.exe "/local_scratch/24665251/Gau-12838.inp" -scrdir="/local_scratch/24665251/"
 Entering Link 1 = /software/gaussian/g16-c01/sse4/g16/l1.exe PID=     13078.
  
 Copyright (c) 1988-2019, Gaussian, Inc.  All Rights Reserved.
  
 This is part of the Gaussian(R) 16 program.  It is based on
 the Gaussian(R) 09 system (copyright 2009, Gaussian, Inc.),
 the Gaussian(R) 03 system (copyright 2003, Gaussian, Inc.),
 the Gaussian(R) 98 system (copyright 1998, Gaussian, Inc.),
 the Gaussian(R) 94 system (copyright 1995, Gaussian, Inc.),
 the Gaussian 92(TM) system (copyright 1992, Gaussian, Inc.),
 the Gaussian 90(TM) system (copyright 1990, Gaussian, Inc.),
 the Gaussian 88(TM) system (copyright 1988, Gaussian, Inc.),
 the Gaussian 86(TM) system (copyright 1986, Carnegie Mellon
 University), and the Gaussian 82(TM) system (copyright 1983,
 Carnegie Mellon University). Gaussian is a federally registered
 trademark of Gaussian, Inc.
  
 This software contains proprietary and confidential information,
 including trade secrets, belonging to Gaussian, Inc.
  
 This software is provided under written license and may be
 used, copied, transmitted, or stored only in accord with that
 written license.
  
 The following legend is applicable only to US Government
 contracts under FAR:
  
                    RESTRICTED RIGHTS LEGEND
  
 Use, reproduction and disclosure by the US Government is
 subject to restrictions as set forth in subparagraphs (a)
 and (c) of the Commercial Computer Software - Restricted
 Rights clause in FAR 52.227-19.
  
 Gaussian, Inc.
 340 Quinnipiac St., Bldg. 40, Wallingford CT 06492
  
  
 ---------------------------------------------------------------
 Warning -- This program may not be used in any manner that
 competes with the business of Gaussian, Inc. or will provide
 assistance to any competitor of Gaussian, Inc.  The licensee
 of this program is prohibited from giving any competitor of
 Gaussian, Inc. access to this program.  By using this program,
 the user acknowledges that Gaussian, Inc. is engaged in the
 business of creating and licensing software in the field of
 computational chemistry and represents and warrants to the
 licensee that it is not a competitor of Gaussian, Inc. and that
 it will not use this program in any manner prohibited above.
 ---------------------------------------------------------------
  

 Cite this work as:
 Gaussian 16, Revision C.01,
 M. J. Frisch, G. W. Trucks, H. B. Schlegel, G. E. Scuseria, 
 M. A. Robb, J. R. Cheeseman, G. Scalmani, V. Barone, 
 G. A. Petersson, H. Nakatsuji, X. Li, M. Caricato, A. V. Marenich, 
 J. Bloino, B. G. Janesko, R. Gomperts, B. Mennucci, H. P. Hratchian, 
 J. V. Ortiz, A. F. Izmaylov, J. L. Sonnenberg, D. Williams-Young, 
 F. Ding, F. Lipparini, F. Egidi, J. Goings, B. Peng, A. Petrone, 
 T. Henderson, D. Ranasinghe, V. G. Zakrzewski, J. Gao, N. Rega, 
 G. Zheng, W. Liang, M. Hada, M. Ehara, K. Toyota, R. Fukuda, 
 J. Hasegawa, M. Ishida, T. Nakajima, Y. Honda, O. Kitao, H. Nakai, 
 T. Vreven, K. Throssell, J. A. Montgomery, Jr., J. E. Peralta, 
 F. Ogliaro, M. J. Bearpark, J. J. Heyd, E. N. Brothers, K. N. Kudin, 
 V. N. Staroverov, T. A. Keith, R. Kobayashi, J. Normand, 
 K. Raghavachari, A. P. Rendell, J. C. Burant, S. S. Iyengar, 
 J. Tomasi, M. Cossi, J. M. Millam, M. Klene, C. Adamo, R. Cammi, 
 J. W. Ochterski, R. L. Martin, K. Morokuma, O. Farkas, 
 J. B. Foresman, and D. J. Fox, Gaussian, Inc., Wallingford CT, 2019.
 
 ******************************************
 Gaussian 16:  ES64L-G16RevC.01  3-Jul-2019
                 2-May-2024 
 ******************************************
 %chk=geometry.chk
 %mem=1GB
 %nprocshared=12
 Will use up to   12 processors via shared memory.
 ----------------------------------------
 #P wB97XD/6-311+G* NoSymm #P Field=X-116
 ----------------------------------------
 1/38=1,172=1/1;
 2/12=2,15=1,17=6,18=5,40=1/2;
 3/5=4,6=6,7=11,11=2,14=1,15=-116,25=1,30=1,74=-58/1,2,3;
 4//1;
 5/5=2,38=5/2;
 6/7=2,8=2,9=2,10=2,28=1/1;
 99/5=1,9=1/99;
 Leave Link    1 at Thu May  2 13:57:33 2024, MaxMem=   134217728 cpu:               3.6 elap:               3.6
 (Enter /software/gaussian/g16-c01/sse4/g16/l101.exe)
 -------
 TitleMe
 -------
 Symbolic Z-matrix:
 Charge =  1 Multiplicity = 1
 C                     0.5193    1.233    -0.0319 
 C                     1.9445    1.2692   -0.0367 
 C                     2.6204    0.0928   -0.025 
 C                    -0.196     0.0301    0.001 
 H                    -0.0207    2.1742   -0.0434 
 H                     2.4828    2.2089   -0.0361 
 H                    -1.2777    0.0399    0.0117 
 N                     4.0921    0.0959    0.0366 
 O                     4.6393   -1.0217    0.1446 
 O                     4.6649    1.1984   -0.0233 
 C                     0.4943   -1.1671    0.021 
 H                    -0.0325   -2.1149    0.0545 
 C                     1.9629   -1.2165   -0.0211 
 H                     2.4436   -1.9631    0.6151 
 Br                    2.173    -1.9491   -1.9062 
 
 ITRead=  0  0  0  0  0  0  0  0  0  0  0  0  0  0  0
 MicOpt= -1 -1 -1 -1 -1 -1 -1 -1 -1 -1 -1 -1 -1 -1 -1
 NAtoms=     15 NQM=       15 NQMF=       0 NMMI=      0 NMMIF=      0
                NMic=       0 NMicF=      0.
                    Isotopes and Nuclear Properties:
 (Nuclear quadrupole moments (NQMom) in fm**2, nuclear magnetic moments (NMagM)
  in nuclear magnetons)

  Atom         1           2           3           4           5           6           7           8           9          10
 IAtWgt=          12          12          12          12           1           1           1          14          16          16
 AtmWgt=  12.0000000  12.0000000  12.0000000  12.0000000   1.0078250   1.0078250   1.0078250  14.0030740  15.9949146  15.9949146
 NucSpn=           0           0           0           0           1           1           1           2           0           0
 AtZEff=  -0.0000000  -0.0000000  -0.0000000  -0.0000000  -0.0000000  -0.0000000  -0.0000000  -0.0000000  -0.0000000  -0.0000000
 NQMom=    0.0000000   0.0000000   0.0000000   0.0000000   0.0000000   0.0000000   0.0000000   2.0440000   0.0000000   0.0000000
 NMagM=    0.0000000   0.0000000   0.0000000   0.0000000   2.7928460   2.7928460   2.7928460   0.4037610   0.0000000   0.0000000
 AtZNuc=   6.0000000   6.0000000   6.0000000   6.0000000   1.0000000   1.0000000   1.0000000   7.0000000   8.0000000   8.0000000

  Atom        11          12          13          14          15
 IAtWgt=          12           1          12           1          79
 AtmWgt=  12.0000000   1.0078250  12.0000000   1.0078250  78.9183361
 NucSpn=           0           1           0           1           3
 AtZEff=  -0.0000000  -0.0000000  -0.0000000  -0.0000000  -0.0000000
 NQMom=    0.0000000   0.0000000   0.0000000   0.0000000  31.3000000
 NMagM=    0.0000000   2.7928460   0.0000000   2.7928460   2.1063990
 AtZNuc=   6.0000000   1.0000000   6.0000000   1.0000000  35.0000000
 Leave Link  101 at Thu May  2 13:57:35 2024, MaxMem=   134217728 cpu:               1.8 elap:               1.8
 (Enter /software/gaussian/g16-c01/sse4/g16/l202.exe)
                          Input orientation:                          
 ---------------------------------------------------------------------
 Center     Atomic      Atomic             Coordinates (Angstroms)
 Number     Number       Type             X           Y           Z
 ---------------------------------------------------------------------
      1          6           0        0.519300    1.233000   -0.031900
      2          6           0        1.944500    1.269200   -0.036700
      3          6           0        2.620400    0.092800   -0.025000
      4          6           0       -0.196000    0.030100    0.001000
      5          1           0       -0.020700    2.174200   -0.043400
      6          1           0        2.482800    2.208900   -0.036100
      7          1           0       -1.277700    0.039900    0.011700
      8          7           0        4.092100    0.095900    0.036600
      9          8           0        4.639300   -1.021700    0.144600
     10          8           0        4.664900    1.198400   -0.023300
     11          6           0        0.494300   -1.167100    0.021000
     12          1           0       -0.032500   -2.114900    0.054500
     13          6           0        1.962900   -1.216500   -0.021100
     14          1           0        2.443600   -1.963100    0.615100
     15         35           0        2.173000   -1.949100   -1.906200
 ---------------------------------------------------------------------
                    Distance matrix (angstroms):
                    1          2          3          4          5
     1  C    0.000000
     2  C    1.425668   0.000000
     3  C    2.390549   1.356796   0.000000
     4  C    1.399895   2.473566   2.817218   0.000000
     5  H    1.085168   2.163581   3.362733   2.151712   0.000000
     6  H    2.192654   1.082960   2.120598   3.453189   2.503751
     7  H    2.157452   3.449071   3.898632   1.081797   2.477564
     8  N    3.750012   2.448304   1.472992   4.288753   4.608780
     9  O    4.699917   3.541615   2.312322   4.950458   5.653735
    10  O    4.145753   2.721354   2.324292   4.999386   4.786171
    11  C    2.400813   2.835836   2.471794   1.382101   3.381369
    12  H    3.394169   3.920329   3.452266   2.151887   4.290233
    13  C    2.843264   2.485817   1.465124   2.493060   3.928360
    14  H    3.786370   3.334922   2.160489   3.364142   4.860416
    15  Br   4.046416   3.728900   2.812194   3.628609   5.028314
                    6          7          8          9         10
     6  H    0.000000
     7  H    4.341452   0.000000
     8  N    2.657047   5.370150   0.000000
     9  O    3.888434   6.012948   1.249048   0.000000
    10  O    2.404752   6.054572   1.243863   2.226587   0.000000
    11  C    3.918516   2.144043   3.813080   4.149391   4.794941
    12  H    5.003018   2.489080   4.679774   4.798846   5.748876
    13  C    3.464662   3.475788   2.501842   2.688591   3.623886
    14  H    4.222698   4.268978   2.700314   2.434893   3.916224
    15  Br   4.569706   4.420610   3.411663   3.338935   4.434144
                   11         12         13         14         15
    11  C    0.000000
    12  H    1.084880   0.000000
    13  C    1.470034   2.189625   0.000000
    14  H    2.187771   2.543302   1.092353   0.000000
    15  Br   2.672762   2.955683   2.033334   2.535818   0.000000
 Symmetry turned off by external request.
 Stoichiometry    C6H5BrNO2(1+)
 Framework group  C1[X(C6H5BrNO2)]
 Deg. of freedom    39
 Full point group                 C1      NOp   1
 Rotational constants (GHZ):           1.1632986           0.9594224           0.5957624
 Leave Link  202 at Thu May  2 13:57:36 2024, MaxMem=   134217728 cpu:               1.2 elap:               1.2
 (Enter /software/gaussian/g16-c01/sse4/g16/l301.exe)
 Standard basis: 6-311+G(d) (5D, 7F)
 Ernie: Thresh=  0.10000D-02 Tol=  0.10000D-05 Strict=F.
 The following finite field(s) will be applied:
 An electric field of             -0.0116  0.0000  0.0000
   261 basis functions,   443 primitive gaussians,   273 cartesian basis functions
    49 alpha electrons       49 beta electrons
       nuclear repulsion energy       772.8945969580 Hartrees.
 IExCor= 4639 DFT=T Ex+Corr=wB97XD ExCW=0 ScaHFX=  1.000000
 ScaDFX=  1.000000  1.000000  1.000000  1.000000 ScalE2=  1.000000  1.000000
 IRadAn=      5 IRanWt=     -1 IRanGd=            0 ICorTp=0 IEmpDi=121
 HFx  wShort=  0.000000 wLong=  0.200000 cFull=  0.222036 cShort=  0.000000 cLong=  0.777964
 DFx  wShort=  0.000000 wLong=  0.200000 cFull=  0.000000 cShort=  0.000000 cLong=  1.000000
 NAtoms=   15 NActive=   15 NUniq=   15 SFac= 1.00D+00 NAtFMM=   60 NAOKFM=F Big=F
 Integral buffers will be    131072 words long.
 Raffenetti 2 integral format.
 Two-electron integral symmetry is turned off.
 R6Disp:  Grimme-D2 Dispersion energy=       -0.0080346408 Hartrees.
 Nuclear repulsion after empirical dispersion term =      772.8865623173 Hartrees.
 Leave Link  301 at Thu May  2 13:57:38 2024, MaxMem=   134217728 cpu:               1.1 elap:               1.1
 (Enter /software/gaussian/g16-c01/sse4/g16/l302.exe)
 NPDir=0 NMtPBC=     1 NCelOv=     1 NCel=       1 NClECP=     1 NCelD=      1
         NCelK=      1 NCelE2=     1 NClLst=     1 CellRange=     0.0.
 One-electron integrals computed using PRISM.
 NBasis=   261 RedAO= T EigKep=  2.52D-06  NBF=   261
 NBsUse=   261 1.00D-06 EigRej= -1.00D+00 NBFU=   261
 Precomputing XC quadrature grid using
 IXCGrd= 4 IRadAn=           5 IRanWt=          -1 IRanGd=           0 AccXCQ= 0.00D+00.
 Generated NRdTot=       0 NPtTot=           0 NUsed=           0 NTot=          32
 NSgBfM=   273   273   273   273   273 MxSgAt=    15 MxSgA2=    15.
 Leave Link  302 at Thu May  2 13:57:59 2024, MaxMem=   134217728 cpu:              21.5 elap:              21.5
 (Enter /software/gaussian/g16-c01/sse4/g16/l303.exe)
 DipDrv:  MaxL=1.
 The nuclear repulsion energy is now       767.9148933457 hartrees.
 Leave Link  303 at Thu May  2 13:58:03 2024, MaxMem=   134217728 cpu:               3.4 elap:               3.4
 (Enter /software/gaussian/g16-c01/sse4/g16/l401.exe)
 ExpMin= 3.50D-02 ExpMax= 4.40D+05 ExpMxC= 1.51D+04 IAcc=3 IRadAn=         5 AccDes= 0.00D+00
 Harris functional with IExCor= 4639 and IRadAn=       5 diagonalized for initial guess.
 HarFok:  IExCor= 4639 AccDes= 0.00D+00 IRadAn=         5 IDoV= 1 UseB2=F ITyADJ=14
 ICtDFT=  3500011 ScaDFX=  1.000000  1.000000  1.000000  1.000000
 FoFCou: FMM=F IPFlag=           0 FMFlag=      100000 FMFlg1=           0
         NFxFlg=           0 DoJE=T BraDBF=F KetDBF=T FulRan=T
         wScrn=  0.000000 ICntrl=       500 IOpCl=  0 I1Cent=   200000004 NGrid=           0
         NMat0=    1 NMatS0=      1 NMatT0=    0 NMatD0=    1 NMtDS0=    0 NMtDT0=    0
 Symmetry not used in FoFCou.
 Harris En= -2970.70330594648    
 JPrj=0 DoOrth=F DoCkMO=F.
 Leave Link  401 at Thu May  2 13:58:34 2024, MaxMem=   134217728 cpu:              31.3 elap:              31.3
 (Enter /software/gaussian/g16-c01/sse4/g16/l502.exe)
 Two-electron integral symmetry not used.
 Closed shell SCF:
 Using DIIS extrapolation, IDIIS=  1040.
 NGot=   134217728 LenX=   134063053 LenY=   133988083
 Requested convergence on RMS density matrix=1.00D-08 within 128 cycles.
 Requested convergence on MAX density matrix=1.00D-06.
 Requested convergence on             energy=1.00D-06.
 No special actions if energy rises.
 Fock matrices will be formed incrementally for  20 cycles.

 Cycle   1  Pass 1  IDiag  1:
 FoFJK:  IHMeth= 1 ICntrl=       0 DoSepK=T KAlg= 0 I1Cent=           0 FoldK=F
 IRaf=         1 NMat=       1 IRICut=       1 DoRegI=T DoRafI=F ISym2E= 0 IDoP0=0 IntGTp=1.
 FoFCou: FMM=F IPFlag=           0 FMFlag=      100000 FMFlg1=           0
         NFxFlg=           0 DoJE=T BraDBF=F KetDBF=F FulRan=T
         wScrn=  0.000000 ICntrl=       500 IOpCl=  0 I1Cent=           0 NGrid=           0
         NMat0=    1 NMatS0=      1 NMatT0=    0 NMatD0=    1 NMtDS0=    0 NMtDT0=    0
 Symmetry not used in FoFCou.
 E= -3008.65711633453    
 DIIS: error= 2.90D-01 at cycle   1 NSaved=   1.
 NSaved= 1 IEnMin= 1 EnMin= -3008.65711633453     IErMin= 1 ErrMin= 2.90D-01
 ErrMax= 2.90D-01  0.00D+00 EMaxC= 1.00D-01 BMatC= 1.24D+01 BMatP= 1.24D+01
 IDIUse=3 WtCom= 0.00D+00 WtEn= 1.00D+00
 Coeff-Com:  0.100D+01
 Coeff-En:   0.100D+01
 Coeff:      0.100D+01
 Gap=     0.211 Goal=   None    Shift=    0.000
 GapD=    0.211 DampG=1.000 DampE=0.250 DampFc=0.2500 IDamp=-1.
 Damping current iteration by 2.50D-01
 RMSDP=8.95D-02 MaxDP=6.97D+00              OVMax= 9.59D-01

 Cycle   2  Pass 1  IDiag  1:
 RMSU=  2.20D-02    CP:  9.72D-01
 E= -3008.46006577372     Delta-E=        0.197050560809 Rises=F Damp=T
 DIIS: error= 2.18D-01 at cycle   2 NSaved=   2.
 NSaved= 2 IEnMin= 1 EnMin= -3008.65711633453     IErMin= 2 ErrMin= 2.18D-01
 ErrMax= 2.18D-01  0.00D+00 EMaxC= 1.00D-01 BMatC= 5.44D+00 BMatP= 1.24D+01
 IDIUse=3 WtCom= 0.00D+00 WtEn= 1.00D+00
 Coeff-Com: -0.919D+00 0.192D+01
 Coeff-En:   0.559D+00 0.441D+00
 Coeff:      0.559D+00 0.441D+00
 Gap=    -0.131 Goal=   None    Shift=    0.000
 RMSDP=7.28D-02 MaxDP=6.65D+00 DE= 1.97D-01 OVMax= 9.31D-01

 Cycle   3  Pass 1  IDiag  1:
 RMSU=  2.54D-02    CP:  5.48D-01  2.06D+00
 E= -3008.93024710109     Delta-E=       -0.470181327367 Rises=F Damp=F
 DIIS: error= 1.43D-01 at cycle   3 NSaved=   3.
 NSaved= 3 IEnMin= 3 EnMin= -3008.93024710109     IErMin= 3 ErrMin= 1.43D-01
 ErrMax= 1.43D-01  0.00D+00 EMaxC= 1.00D-01 BMatC= 2.55D+00 BMatP= 5.44D+00
 IDIUse=3 WtCom= 0.00D+00 WtEn= 1.00D+00
 EnCoef did   100 forward-backward iterations
 Coeff-Com:  0.552D+00-0.405D+00 0.853D+00
 Coeff-En:   0.467D+00 0.356D-02 0.530D+00
 Coeff:      0.467D+00 0.356D-02 0.530D+00
 Gap=     0.129 Goal=   None    Shift=    0.000
 RMSDP=2.79D-02 MaxDP=2.23D+00 DE=-4.70D-01 OVMax= 6.47D-01

 Cycle   4  Pass 1  IDiag  1:
 RMSU=  1.47D-02    CP:  5.63D-01  1.01D+00  8.44D-01
 E= -3010.28138005241     Delta-E=       -1.351132951315 Rises=F Damp=F
 DIIS: error= 3.08D-02 at cycle   4 NSaved=   4.
 NSaved= 4 IEnMin= 4 EnMin= -3010.28138005241     IErMin= 4 ErrMin= 3.08D-02
 ErrMax= 3.08D-02  0.00D+00 EMaxC= 1.00D-01 BMatC= 2.28D-01 BMatP= 2.55D+00
 IDIUse=3 WtCom= 6.92D-01 WtEn= 3.08D-01
 Coeff-Com: -0.363D-01 0.154D+00 0.110D+00 0.773D+00
 Coeff-En:   0.000D+00 0.000D+00 0.987D-01 0.901D+00
 Coeff:     -0.252D-01 0.106D+00 0.106D+00 0.812D+00
 Gap=     0.117 Goal=   None    Shift=    0.000
 RMSDP=1.97D-02 MaxDP=1.78D+00 DE=-1.35D+00 OVMax= 4.85D-01

 Cycle   5  Pass 1  IDiag  1:
 RMSU=  8.51D-03    CP:  4.71D-01  1.37D+00  9.78D-01  5.52D-01
 E= -3010.36385756183     Delta-E=       -0.082477509427 Rises=F Damp=F
 DIIS: error= 5.02D-02 at cycle   5 NSaved=   5.
 NSaved= 5 IEnMin= 5 EnMin= -3010.36385756183     IErMin= 4 ErrMin= 3.08D-02
 ErrMax= 5.02D-02  0.00D+00 EMaxC= 1.00D-01 BMatC= 2.53D-01 BMatP= 2.28D-01
 IDIUse=2 WtCom= 0.00D+00 WtEn= 1.00D+00
 Coeff-En:   0.000D+00 0.000D+00 0.000D+00 0.404D+00 0.596D+00
 Coeff:      0.000D+00 0.000D+00 0.000D+00 0.404D+00 0.596D+00
 Gap=     0.223 Goal=   None    Shift=    0.000
 RMSDP=1.39D-02 MaxDP=1.20D+00 DE=-8.25D-02 OVMax= 1.18D-01

 Cycle   6  Pass 1  IDiag  1:
 RMSU=  7.73D-03    CP:  5.32D-01  1.19D+00  9.88D-01  9.06D-01  6.80D-01
 E= -3010.50821915710     Delta-E=       -0.144361595264 Rises=F Damp=F
 DIIS: error= 1.66D-02 at cycle   6 NSaved=   6.
 NSaved= 6 IEnMin= 6 EnMin= -3010.50821915710     IErMin= 6 ErrMin= 1.66D-02
 ErrMax= 1.66D-02  0.00D+00 EMaxC= 1.00D-01 BMatC= 3.98D-02 BMatP= 2.28D-01
 IDIUse=3 WtCom= 8.34D-01 WtEn= 1.66D-01
 Coeff-Com:  0.241D-01-0.336D-01-0.246D-02 0.192D+00 0.309D+00 0.511D+00
 Coeff-En:   0.000D+00 0.000D+00 0.000D+00 0.000D+00 0.440D-01 0.956D+00
 Coeff:      0.201D-01-0.281D-01-0.205D-02 0.160D+00 0.265D+00 0.584D+00
 Gap=     0.212 Goal=   None    Shift=    0.000
 RMSDP=6.58D-03 MaxDP=7.09D-01 DE=-1.44D-01 OVMax= 7.14D-02

 Cycle   7  Pass 1  IDiag  1:
 RMSU=  2.61D-03    CP:  5.05D-01  1.03D+00  9.16D-01  8.33D-01  7.95D-01
                    CP:  8.12D-01
 E= -3010.53794372110     Delta-E=       -0.029724564000 Rises=F Damp=F
 DIIS: error= 9.53D-03 at cycle   7 NSaved=   7.
 NSaved= 7 IEnMin= 7 EnMin= -3010.53794372110     IErMin= 7 ErrMin= 9.53D-03
 ErrMax= 9.53D-03  0.00D+00 EMaxC= 1.00D-01 BMatC= 8.30D-03 BMatP= 3.98D-02
 IDIUse=3 WtCom= 9.05D-01 WtEn= 9.53D-02
 Coeff-Com:  0.241D-01-0.340D-01-0.116D-01-0.756D-02-0.235D-01 0.282D+00
 Coeff-Com:  0.770D+00
 Coeff-En:   0.000D+00 0.000D+00 0.000D+00 0.000D+00 0.000D+00 0.000D+00
 Coeff-En:   0.100D+01
 Coeff:      0.218D-01-0.307D-01-0.105D-01-0.684D-02-0.212D-01 0.255D+00
 Coeff:      0.792D+00
 Gap=     0.222 Goal=   None    Shift=    0.000
 RMSDP=4.29D-03 MaxDP=3.33D-01 DE=-2.97D-02 OVMax= 5.35D-02

 Cycle   8  Pass 1  IDiag  1:
 RMSU=  1.29D-03    CP:  5.12D-01  9.05D-01  8.72D-01  8.75D-01  7.54D-01
                    CP:  1.10D+00  1.37D+00
 E= -3010.54691488560     Delta-E=       -0.008971164508 Rises=F Damp=F
 DIIS: error= 4.08D-03 at cycle   8 NSaved=   8.
 NSaved= 8 IEnMin= 8 EnMin= -3010.54691488560     IErMin= 8 ErrMin= 4.08D-03
 ErrMax= 4.08D-03  0.00D+00 EMaxC= 1.00D-01 BMatC= 1.99D-03 BMatP= 8.30D-03
 IDIUse=3 WtCom= 9.59D-01 WtEn= 4.08D-02
 Coeff-Com:  0.116D-01-0.162D-01-0.911D-02-0.330D-01-0.854D-01 0.184D-01
 Coeff-Com:  0.537D+00 0.577D+00
 Coeff-En:   0.000D+00 0.000D+00 0.000D+00 0.000D+00 0.000D+00 0.000D+00
 Coeff-En:   0.000D+00 0.100D+01
 Coeff:      0.111D-01-0.155D-01-0.874D-02-0.317D-01-0.819D-01 0.177D-01
 Coeff:      0.515D+00 0.594D+00
 Gap=     0.224 Goal=   None    Shift=    0.000
 RMSDP=1.75D-03 MaxDP=1.55D-01 DE=-8.97D-03 OVMax= 3.97D-02

 Cycle   9  Pass 1  IDiag  1:
 RMSU=  6.40D-04    CP:  5.19D-01  8.69D-01  8.53D-01  8.86D-01  7.57D-01
                    CP:  1.18D+00  1.64D+00  8.97D-01
 E= -3010.55003659822     Delta-E=       -0.003121712614 Rises=F Damp=F
 DIIS: error= 2.68D-03 at cycle   9 NSaved=   9.
 NSaved= 9 IEnMin= 9 EnMin= -3010.55003659822     IErMin= 9 ErrMin= 2.68D-03
 ErrMax= 2.68D-03  0.00D+00 EMaxC= 1.00D-01 BMatC= 4.79D-04 BMatP= 1.99D-03
 IDIUse=3 WtCom= 9.73D-01 WtEn= 2.68D-02
 Coeff-Com:  0.298D-02-0.407D-02 0.165D-02-0.198D-01-0.485D-01-0.124D+00
 Coeff-Com:  0.101D-01 0.423D+00 0.759D+00
 Coeff-En:   0.000D+00 0.000D+00 0.000D+00 0.000D+00 0.000D+00 0.000D+00
 Coeff-En:   0.000D+00 0.000D+00 0.100D+01
 Coeff:      0.290D-02-0.396D-02 0.160D-02-0.192D-01-0.472D-01-0.121D+00
 Coeff:      0.979D-02 0.412D+00 0.765D+00
 Gap=     0.221 Goal=   None    Shift=    0.000
 RMSDP=1.67D-03 MaxDP=1.35D-01 DE=-3.12D-03 OVMax= 3.43D-02

 Cycle  10  Pass 1  IDiag  1:
 RMSU=  4.46D-04    CP:  5.17D-01  8.23D-01  8.33D-01  8.63D-01  7.45D-01
                    CP:  1.24D+00  1.86D+00  1.48D+00  9.19D-01
 E= -3010.55154684871     Delta-E=       -0.001510250492 Rises=F Damp=F
 DIIS: error= 6.38D-04 at cycle  10 NSaved=  10.
 NSaved=10 IEnMin=10 EnMin= -3010.55154684871     IErMin=10 ErrMin= 6.38D-04
 ErrMax= 6.38D-04  0.00D+00 EMaxC= 1.00D-01 BMatC= 6.52D-05 BMatP= 4.79D-04
 IDIUse=3 WtCom= 9.94D-01 WtEn= 6.38D-03
 Coeff-Com:  0.112D-03-0.264D-03 0.323D-02-0.870D-02 0.155D-03-0.268D-01
 Coeff-Com: -0.643D-01 0.911D-02 0.193D+00 0.894D+00
 Coeff-En:   0.000D+00 0.000D+00 0.000D+00 0.000D+00 0.000D+00 0.000D+00
 Coeff-En:   0.000D+00 0.000D+00 0.000D+00 0.100D+01
 Coeff:      0.111D-03-0.263D-03 0.321D-02-0.865D-02 0.154D-03-0.267D-01
 Coeff:     -0.639D-01 0.905D-02 0.192D+00 0.895D+00
 Gap=     0.220 Goal=   None    Shift=    0.000
 RMSDP=6.06D-04 MaxDP=6.69D-02 DE=-1.51D-03 OVMax= 1.94D-02

 Cycle  11  Pass 1  IDiag  1:
 RMSU=  1.38D-04    CP:  5.15D-01  8.19D-01  8.31D-01  8.40D-01  7.46D-01
                    CP:  1.26D+00  1.89D+00  1.69D+00  9.63D-01  1.59D+00
 E= -3010.55193729902     Delta-E=       -0.000390450311 Rises=F Damp=F
 DIIS: error= 3.08D-04 at cycle  11 NSaved=  11.
 NSaved=11 IEnMin=11 EnMin= -3010.55193729902     IErMin=11 ErrMin= 3.08D-04
 ErrMax= 3.08D-04  0.00D+00 EMaxC= 1.00D-01 BMatC= 2.71D-05 BMatP= 6.52D-05
 IDIUse=3 WtCom= 9.97D-01 WtEn= 3.08D-03
 Coeff-Com: -0.128D-02 0.158D-02-0.384D-03-0.339D-02 0.129D-01 0.468D-01
 Coeff-Com:  0.208D-01-0.113D+00-0.229D+00 0.131D+00 0.113D+01
 Coeff-En:   0.000D+00 0.000D+00 0.000D+00 0.000D+00 0.000D+00 0.000D+00
 Coeff-En:   0.000D+00 0.000D+00 0.000D+00 0.000D+00 0.100D+01
 Coeff:     -0.128D-02 0.158D-02-0.383D-03-0.338D-02 0.129D-01 0.467D-01
 Coeff:      0.208D-01-0.113D+00-0.228D+00 0.130D+00 0.113D+01
 Gap=     0.220 Goal=   None    Shift=    0.000
 RMSDP=6.35D-04 MaxDP=6.02D-02 DE=-3.90D-04 OVMax= 1.55D-02

 Cycle  12  Pass 1  IDiag  1:
 RMSU=  8.47D-05    CP:  5.14D-01  8.29D-01  8.34D-01  8.16D-01  7.49D-01
                    CP:  1.25D+00  1.87D+00  1.86D+00  9.39D-01  2.21D+00
                    CP:  1.74D+00
 E= -3010.55210801960     Delta-E=       -0.000170720582 Rises=F Damp=F
 DIIS: error= 1.66D-04 at cycle  12 NSaved=  12.
 NSaved=12 IEnMin=12 EnMin= -3010.55210801960     IErMin=12 ErrMin= 1.66D-04
 ErrMax= 1.66D-04  0.00D+00 EMaxC= 1.00D-01 BMatC= 4.76D-06 BMatP= 2.71D-05
 IDIUse=3 WtCom= 9.98D-01 WtEn= 1.66D-03
 Coeff-Com: -0.484D-03 0.616D-03-0.565D-03-0.881D-03 0.119D-02 0.138D-01
 Coeff-Com:  0.111D-01-0.172D-01-0.718D-01-0.230D+00 0.148D+00 0.115D+01
 Coeff-En:   0.000D+00 0.000D+00 0.000D+00 0.000D+00 0.000D+00 0.000D+00
 Coeff-En:   0.000D+00 0.000D+00 0.000D+00 0.000D+00 0.000D+00 0.100D+01
 Coeff:     -0.483D-03 0.615D-03-0.564D-03-0.880D-03 0.119D-02 0.137D-01
 Coeff:      0.111D-01-0.171D-01-0.717D-01-0.230D+00 0.147D+00 0.115D+01
 Gap=     0.221 Goal=   None    Shift=    0.000
 RMSDP=3.95D-04 MaxDP=4.76D-02 DE=-1.71D-04 OVMax= 1.09D-02

 Cycle  13  Pass 1  IDiag  1:
 RMSU=  4.15D-05    CP:  5.12D-01  8.28D-01  8.34D-01  8.02D-01  7.49D-01
                    CP:  1.25D+00  1.88D+00  2.00D+00  9.07D-01  2.59D+00
                    CP:  2.32D+00  1.25D+00
 E= -3010.55215653746     Delta-E=       -0.000048517854 Rises=F Damp=F
 DIIS: error= 6.23D-05 at cycle  13 NSaved=  13.
 NSaved=13 IEnMin=13 EnMin= -3010.55215653746     IErMin=13 ErrMin= 6.23D-05
 ErrMax= 6.23D-05  0.00D+00 EMaxC= 1.00D-01 BMatC= 1.10D-06 BMatP= 4.76D-06
 IDIUse=1 WtCom= 1.00D+00 WtEn= 0.00D+00
 Coeff-Com:  0.117D-03-0.155D-03-0.603D-04-0.203D-03-0.260D-02-0.491D-02
 Coeff-Com: -0.148D-02 0.191D-01 0.247D-01-0.143D+00-0.195D+00 0.562D+00
 Coeff-Com:  0.741D+00
 Coeff:      0.117D-03-0.155D-03-0.603D-04-0.203D-03-0.260D-02-0.491D-02
 Coeff:     -0.148D-02 0.191D-01 0.247D-01-0.143D+00-0.195D+00 0.562D+00
 Coeff:      0.741D+00
 Gap=     0.221 Goal=   None    Shift=    0.000
 RMSDP=9.73D-05 MaxDP=7.36D-03 DE=-4.85D-05 OVMax= 3.66D-03

 Cycle  14  Pass 1  IDiag  1:
 RMSU=  1.72D-05    CP:  5.12D-01  8.29D-01  8.34D-01  7.98D-01  7.49D-01
                    CP:  1.25D+00  1.88D+00  2.03D+00  9.18D-01  2.69D+00
                    CP:  2.49D+00  1.55D+00  1.00D+00
 E= -3010.55216208994     Delta-E=       -0.000005552478 Rises=F Damp=F
 DIIS: error= 2.66D-05 at cycle  14 NSaved=  14.
 NSaved=14 IEnMin=14 EnMin= -3010.55216208994     IErMin=14 ErrMin= 2.66D-05
 ErrMax= 2.66D-05  0.00D+00 EMaxC= 1.00D-01 BMatC= 1.14D-07 BMatP= 1.10D-06
 IDIUse=1 WtCom= 1.00D+00 WtEn= 0.00D+00
 Coeff-Com:  0.124D-03-0.172D-03 0.344D-04-0.429D-04-0.651D-03-0.244D-02
 Coeff-Com:  0.746D-03 0.593D-02 0.107D-01 0.282D-02-0.393D-01-0.559D-01
 Coeff-Com:  0.674D-01 0.101D+01
 Coeff:      0.124D-03-0.172D-03 0.344D-04-0.429D-04-0.651D-03-0.244D-02
 Coeff:      0.746D-03 0.593D-02 0.107D-01 0.282D-02-0.393D-01-0.559D-01
 Coeff:      0.674D-01 0.101D+01
 Gap=     0.221 Goal=   None    Shift=    0.000
 RMSDP=2.28D-05 MaxDP=1.74D-03 DE=-5.55D-06 OVMax= 6.98D-04

 Cycle  15  Pass 1  IDiag  1:
 RMSU=  8.91D-06    CP:  5.12D-01  8.29D-01  8.34D-01  7.97D-01  7.50D-01
                    CP:  1.25D+00  1.88D+00  2.04D+00  9.18D-01  2.71D+00
                    CP:  2.52D+00  1.62D+00  1.11D+00  1.44D+00
 E= -3010.55216263580     Delta-E=       -0.000000545869 Rises=F Damp=F
 DIIS: error= 1.15D-05 at cycle  15 NSaved=  15.
 NSaved=15 IEnMin=15 EnMin= -3010.55216263580     IErMin=15 ErrMin= 1.15D-05
 ErrMax= 1.15D-05  0.00D+00 EMaxC= 1.00D-01 BMatC= 3.37D-08 BMatP= 1.14D-07
 IDIUse=1 WtCom= 1.00D+00 WtEn= 0.00D+00
 Coeff-Com:  0.119D-04-0.146D-04-0.584D-05 0.178D-03 0.304D-03 0.132D-03
 Coeff-Com:  0.561D-03-0.249D-02-0.378D-02 0.241D-01 0.230D-01-0.102D+00
 Coeff-Com: -0.133D+00 0.264D+00 0.929D+00
 Coeff:      0.119D-04-0.146D-04-0.584D-05 0.178D-03 0.304D-03 0.132D-03
 Coeff:      0.561D-03-0.249D-02-0.378D-02 0.241D-01 0.230D-01-0.102D+00
 Coeff:     -0.133D+00 0.264D+00 0.929D+00
 Gap=     0.221 Goal=   None    Shift=    0.000
 RMSDP=1.15D-05 MaxDP=8.71D-04 DE=-5.46D-07 OVMax= 4.07D-04

 Cycle  16  Pass 1  IDiag  1:
 RMSU=  3.31D-06    CP:  5.12D-01  8.29D-01  8.34D-01  7.97D-01  7.50D-01
                    CP:  1.26D+00  1.88D+00  2.04D+00  9.18D-01  2.72D+00
                    CP:  2.54D+00  1.65D+00  1.15D+00  1.67D+00  1.31D+00
 E= -3010.55216274976     Delta-E=       -0.000000113952 Rises=F Damp=F
 DIIS: error= 5.21D-06 at cycle  16 NSaved=  16.
 NSaved=16 IEnMin=16 EnMin= -3010.55216274976     IErMin=16 ErrMin= 5.21D-06
 ErrMax= 5.21D-06  0.00D+00 EMaxC= 1.00D-01 BMatC= 1.35D-08 BMatP= 3.37D-08
 IDIUse=1 WtCom= 1.00D+00 WtEn= 0.00D+00
 Coeff-Com:  0.124D-04-0.165D-04-0.351D-05 0.433D-04 0.192D-03 0.546D-03
 Coeff-Com:  0.846D-05-0.233D-02-0.388D-02 0.127D-01 0.188D-01-0.267D-01
 Coeff-Com: -0.777D-01-0.104D+00 0.355D+00 0.828D+00
 Coeff:      0.124D-04-0.165D-04-0.351D-05 0.433D-04 0.192D-03 0.546D-03
 Coeff:      0.846D-05-0.233D-02-0.388D-02 0.127D-01 0.188D-01-0.267D-01
 Coeff:     -0.777D-01-0.104D+00 0.355D+00 0.828D+00
 Gap=     0.221 Goal=   None    Shift=    0.000
 RMSDP=7.81D-06 MaxDP=6.86D-04 DE=-1.14D-07 OVMax= 1.01D-04

 Cycle  17  Pass 1  IDiag  1:
 RMSU=  1.75D-06    CP:  5.12D-01  8.28D-01  8.34D-01  7.97D-01  7.50D-01
                    CP:  1.26D+00  1.88D+00  2.04D+00  9.18D-01  2.72D+00
                    CP:  2.53D+00  1.64D+00  1.14D+00  1.76D+00  1.40D+00
                    CP:  1.32D+00
 E= -3010.55216277666     Delta-E=       -0.000000026898 Rises=F Damp=F
 DIIS: error= 1.52D-06 at cycle  17 NSaved=  17.
 NSaved=17 IEnMin=17 EnMin= -3010.55216277666     IErMin=17 ErrMin= 1.52D-06
 ErrMax= 1.52D-06  0.00D+00 EMaxC= 1.00D-01 BMatC= 1.24D-09 BMatP= 1.35D-08
 IDIUse=1 WtCom= 1.00D+00 WtEn= 0.00D+00
 Coeff-Com:  0.548D-05-0.680D-05 0.259D-05 0.203D-04 0.432D-04 0.126D-03
 Coeff-Com: -0.235D-03-0.516D-03-0.842D-03 0.327D-03 0.683D-03 0.111D-01
 Coeff-Com: -0.576D-02-0.567D-01-0.420D-01 0.172D+00 0.922D+00
 Coeff:      0.548D-05-0.680D-05 0.259D-05 0.203D-04 0.432D-04 0.126D-03
 Coeff:     -0.235D-03-0.516D-03-0.842D-03 0.327D-03 0.683D-03 0.111D-01
 Coeff:     -0.576D-02-0.567D-01-0.420D-01 0.172D+00 0.922D+00
 Gap=     0.221 Goal=   None    Shift=    0.000
 RMSDP=2.59D-06 MaxDP=2.81D-04 DE=-2.69D-08 OVMax= 3.26D-05

 Cycle  18  Pass 1  IDiag  1:
 RMSU=  4.88D-07    CP:  5.12D-01  8.28D-01  8.34D-01  7.97D-01  7.50D-01
                    CP:  1.26D+00  1.88D+00  2.04D+00  9.19D-01  2.72D+00
                    CP:  2.53D+00  1.64D+00  1.13D+00  1.78D+00  1.41D+00
                    CP:  1.46D+00  1.35D+00
 E= -3010.55216277975     Delta-E=       -0.000000003099 Rises=F Damp=F
 DIIS: error= 7.31D-07 at cycle  18 NSaved=  18.
 NSaved=18 IEnMin=18 EnMin= -3010.55216277975     IErMin=18 ErrMin= 7.31D-07
 ErrMax= 7.31D-07  0.00D+00 EMaxC= 1.00D-01 BMatC= 1.53D-10 BMatP= 1.24D-09
 IDIUse=1 WtCom= 1.00D+00 WtEn= 0.00D+00
 Coeff-Com:  0.129D-06 0.126D-06 0.174D-05 0.422D-05-0.111D-04-0.433D-04
 Coeff-Com:  0.835D-05 0.186D-03 0.243D-03-0.129D-02-0.236D-02 0.632D-02
 Coeff-Com:  0.612D-02 0.701D-02-0.542D-01-0.105D+00 0.181D+00 0.962D+00
 Coeff:      0.129D-06 0.126D-06 0.174D-05 0.422D-05-0.111D-04-0.433D-04
 Coeff:      0.835D-05 0.186D-03 0.243D-03-0.129D-02-0.236D-02 0.632D-02
 Coeff:      0.612D-02 0.701D-02-0.542D-01-0.105D+00 0.181D+00 0.962D+00
 Gap=     0.221 Goal=   None    Shift=    0.000
 RMSDP=8.95D-07 MaxDP=6.40D-05 DE=-3.10D-09 OVMax= 2.14D-05

 Cycle  19  Pass 1  IDiag  1:
 RMSU=  2.08D-07    CP:  5.12D-01  8.28D-01  8.34D-01  7.97D-01  7.50D-01
                    CP:  1.26D+00  1.88D+00  2.04D+00  9.19D-01  2.72D+00
                    CP:  2.53D+00  1.64D+00  1.13D+00  1.78D+00  1.41D+00
                    CP:  1.54D+00  1.51D+00  1.12D+00
 E= -3010.55216278033     Delta-E=       -0.000000000576 Rises=F Damp=F
 DIIS: error= 2.44D-07 at cycle  19 NSaved=  19.
 NSaved=19 IEnMin=19 EnMin= -3010.55216278033     IErMin=19 ErrMin= 2.44D-07
 ErrMax= 2.44D-07  0.00D+00 EMaxC= 1.00D-01 BMatC= 1.76D-11 BMatP= 1.53D-10
 IDIUse=1 WtCom= 1.00D+00 WtEn= 0.00D+00
 Coeff-Com: -0.709D-06 0.104D-05-0.658D-07 0.169D-05-0.918D-05-0.306D-04
 Coeff-Com:  0.335D-04 0.123D-03 0.195D-03-0.357D-03-0.117D-02 0.809D-03
 Coeff-Com:  0.240D-02 0.101D-01-0.119D-01-0.501D-01-0.500D-01 0.299D+00
 Coeff-Com:  0.800D+00
 Coeff:     -0.709D-06 0.104D-05-0.658D-07 0.169D-05-0.918D-05-0.306D-04
 Coeff:      0.335D-04 0.123D-03 0.195D-03-0.357D-03-0.117D-02 0.809D-03
 Coeff:      0.240D-02 0.101D-01-0.119D-01-0.501D-01-0.500D-01 0.299D+00
 Coeff:      0.800D+00
 Gap=     0.221 Goal=   None    Shift=    0.000
 RMSDP=2.58D-07 MaxDP=2.30D-05 DE=-5.76D-10 OVMax= 5.12D-06

 Cycle  20  Pass 1  IDiag  1:
 RMSU=  7.47D-08    CP:  5.12D-01  8.28D-01  8.34D-01  7.97D-01  7.50D-01
                    CP:  1.26D+00  1.88D+00  2.04D+00  9.19D-01  2.72D+00
                    CP:  2.53D+00  1.64D+00  1.13D+00  1.78D+00  1.40D+00
                    CP:  1.55D+00  1.53D+00  1.22D+00  1.20D+00
 E= -3010.55216278044     Delta-E=       -0.000000000108 Rises=F Damp=F
 DIIS: error= 1.47D-07 at cycle  20 NSaved=  20.
 NSaved=20 IEnMin=20 EnMin= -3010.55216278044     IErMin=20 ErrMin= 1.47D-07
 ErrMax= 1.47D-07  0.00D+00 EMaxC= 1.00D-01 BMatC= 3.77D-12 BMatP= 1.76D-11
 IDIUse=1 WtCom= 1.00D+00 WtEn= 0.00D+00
 Coeff-Com: -0.156D-06 0.170D-06-0.238D-06-0.106D-05-0.322D-05-0.464D-05
 Coeff-Com:  0.288D-05 0.161D-04 0.404D-04 0.119D-03-0.111D-03-0.610D-03
 Coeff-Com:  0.237D-04 0.201D-02 0.315D-02 0.956D-03-0.436D-01-0.674D-01
 Coeff-Com:  0.186D+00 0.919D+00
 Coeff:     -0.156D-06 0.170D-06-0.238D-06-0.106D-05-0.322D-05-0.464D-05
 Coeff:      0.288D-05 0.161D-04 0.404D-04 0.119D-03-0.111D-03-0.610D-03
 Coeff:      0.237D-04 0.201D-02 0.315D-02 0.956D-03-0.436D-01-0.674D-01
 Coeff:      0.186D+00 0.919D+00
 Gap=     0.221 Goal=   None    Shift=    0.000
 RMSDP=1.76D-07 MaxDP=1.51D-05 DE=-1.08D-10 OVMax= 2.98D-06

 Cycle  21  Pass 1  IDiag  1:
 Restarting incremental Fock formation.
 E= -3010.55216278044     Delta-E=       -0.000000000005 Rises=F Damp=F
 DIIS: error= 8.83D-08 at cycle  21 NSaved=  20.
 NSaved=20 IEnMin=20 EnMin= -3010.55216278044     IErMin=20 ErrMin= 8.83D-08
 ErrMax= 8.83D-08  0.00D+00 EMaxC= 1.00D-01 BMatC= 5.73D-13 BMatP= 3.77D-12
 IDIUse=1 WtCom= 1.00D+00 WtEn= 0.00D+00
 Coeff-Com: -0.173D-07-0.129D-06-0.541D-06 0.133D-05 0.331D-05-0.755D-05
 Coeff-Com: -0.152D-04-0.297D-04 0.708D-04 0.190D-03-0.224D-03-0.413D-03
 Coeff-Com: -0.131D-02 0.236D-02 0.765D-02 0.403D-02-0.555D-01-0.137D+00
 Coeff-Com:  0.952D-01 0.109D+01
 Coeff:     -0.173D-07-0.129D-06-0.541D-06 0.133D-05 0.331D-05-0.755D-05
 Coeff:     -0.152D-04-0.297D-04 0.708D-04 0.190D-03-0.224D-03-0.413D-03
 Coeff:     -0.131D-02 0.236D-02 0.765D-02 0.403D-02-0.555D-01-0.137D+00
 Coeff:      0.952D-01 0.109D+01
 Gap=     0.221 Goal=   None    Shift=    0.000
 RMSDP=6.13D-08 MaxDP=3.65D-06 DE=-4.55D-12 OVMax= 1.96D-06

 Cycle  22  Pass 1  IDiag  1:
 RMSU=  5.97D-08    CP:  1.00D+00
 E= -3010.55216278039     Delta-E=        0.000000000053 Rises=F Damp=F
 DIIS: error= 3.71D-08 at cycle  22 NSaved=  20.
 NSaved=20 IEnMin=19 EnMin= -3010.55216278044     IErMin=20 ErrMin= 3.71D-08
 ErrMax= 3.71D-08  0.00D+00 EMaxC= 1.00D-01 BMatC= 1.86D-13 BMatP= 5.73D-13
 IDIUse=1 WtCom= 1.00D+00 WtEn= 0.00D+00
 Coeff-Com:  0.514D-07-0.113D-06 0.526D-06 0.148D-05 0.281D-05-0.308D-05
 Coeff-Com: -0.153D-04-0.233D-04 0.671D-04 0.790D-04-0.944D-04-0.618D-03
 Coeff-Com: -0.126D-04 0.363D-03 0.826D-02 0.987D-02-0.443D-01-0.194D+00
 Coeff-Com:  0.114D+00 0.111D+01
 Coeff:      0.514D-07-0.113D-06 0.526D-06 0.148D-05 0.281D-05-0.308D-05
 Coeff:     -0.153D-04-0.233D-04 0.671D-04 0.790D-04-0.944D-04-0.618D-03
 Coeff:     -0.126D-04 0.363D-03 0.826D-02 0.987D-02-0.443D-01-0.194D+00
 Coeff:      0.114D+00 0.111D+01
 Gap=     0.221 Goal=   None    Shift=    0.000
 RMSDP=3.75D-08 MaxDP=2.85D-06 DE= 5.28D-11 OVMax= 1.05D-06

 Cycle  23  Pass 1  IDiag  1:
 RMSU=  1.89D-08    CP:  1.00D+00  1.40D+00
 E= -3010.55216278046     Delta-E=       -0.000000000069 Rises=F Damp=F
 DIIS: error= 1.18D-08 at cycle  23 NSaved=  20.
 NSaved=20 IEnMin=20 EnMin= -3010.55216278046     IErMin=20 ErrMin= 1.18D-08
 ErrMax= 1.18D-08  0.00D+00 EMaxC= 1.00D-01 BMatC= 2.45D-14 BMatP= 1.86D-13
 IDIUse=1 WtCom= 1.00D+00 WtEn= 0.00D+00
 Coeff-Com: -0.119D-06-0.318D-06-0.133D-06 0.261D-05 0.199D-05 0.150D-06
 Coeff-Com: -0.279D-04-0.121D-04 0.770D-04 0.649D-04-0.384D-04-0.319D-03
 Coeff-Com: -0.973D-03 0.220D-02 0.966D-02 0.268D-02-0.717D-01-0.131D+00
 Coeff-Com:  0.311D+00 0.879D+00
 Coeff:     -0.119D-06-0.318D-06-0.133D-06 0.261D-05 0.199D-05 0.150D-06
 Coeff:     -0.279D-04-0.121D-04 0.770D-04 0.649D-04-0.384D-04-0.319D-03
 Coeff:     -0.973D-03 0.220D-02 0.966D-02 0.268D-02-0.717D-01-0.131D+00
 Coeff:      0.311D+00 0.879D+00
 Gap=     0.221 Goal=   None    Shift=    0.000
 RMSDP=1.58D-08 MaxDP=1.53D-06 DE=-6.91D-11 OVMax= 4.05D-07

 Cycle  24  Pass 1  IDiag  1:
 RMSU=  6.67D-09    CP:  1.00D+00  1.50D+00  1.34D+00
 E= -3010.55216278046     Delta-E=        0.000000000001 Rises=F Damp=F
 DIIS: error= 4.33D-09 at cycle  24 NSaved=  20.
 NSaved=20 IEnMin=19 EnMin= -3010.55216278046     IErMin=20 ErrMin= 4.33D-09
 ErrMax= 4.33D-09  0.00D+00 EMaxC= 1.00D-01 BMatC= 3.55D-15 BMatP= 2.45D-14
 IDIUse=1 WtCom= 1.00D+00 WtEn= 0.00D+00
 Coeff-Com:  0.113D-07-0.511D-07 0.249D-07-0.667D-07 0.178D-05 0.741D-06
 Coeff-Com: -0.917D-05-0.104D-04 0.181D-04 0.126D-03-0.722D-04-0.507D-03
 Coeff-Com: -0.693D-03 0.181D-02 0.742D-02 0.162D-01-0.394D-01-0.135D+00
 Coeff-Com:  0.130D+00 0.102D+01
 Coeff:      0.113D-07-0.511D-07 0.249D-07-0.667D-07 0.178D-05 0.741D-06
 Coeff:     -0.917D-05-0.104D-04 0.181D-04 0.126D-03-0.722D-04-0.507D-03
 Coeff:     -0.693D-03 0.181D-02 0.742D-02 0.162D-01-0.394D-01-0.135D+00
 Coeff:      0.130D+00 0.102D+01
 Gap=     0.221 Goal=   None    Shift=    0.000
 RMSDP=8.10D-09 MaxDP=9.81D-07 DE= 9.09D-13 OVMax= 1.70D-07

 SCF Done:  E(RwB97XD) =  -3010.55216278     A.U. after   24 cycles
            NFock= 24  Conv=0.81D-08     -V/T= 2.0016
 KE= 3.005833780652D+03 PE=-8.694047722391D+03 EE= 1.909746885614D+03
 Leave Link  502 at Thu May  2 14:23:31 2024, MaxMem=   134217728 cpu:            1494.4 elap:            1496.4
 (Enter /software/gaussian/g16-c01/sse4/g16/l601.exe)
 Copying SCF densities to generalized density rwf, IOpCl= 0 IROHF=0.

 **********************************************************************

            Population analysis using the SCF Density.

 **********************************************************************

 Alpha  occ. eigenvalues -- -483.27118 -62.82125 -56.61829 -56.61249 -56.61233
 Alpha  occ. eigenvalues --  -19.39032 -19.38967 -14.78587 -10.55054 -10.54035
 Alpha  occ. eigenvalues --  -10.53849 -10.53754 -10.50158 -10.48957  -8.97919
 Alpha  occ. eigenvalues --   -6.80625  -6.78723  -6.78674  -2.90522  -2.90027
 Alpha  occ. eigenvalues --   -2.89987  -2.88466  -2.88465  -1.42738  -1.25612
 Alpha  occ. eigenvalues --   -1.18558  -1.09134  -1.08261  -1.00678  -0.95689
 Alpha  occ. eigenvalues --   -0.91676  -0.86594  -0.80451  -0.76336  -0.75070
 Alpha  occ. eigenvalues --   -0.74538  -0.73350  -0.71632  -0.69213  -0.67996
 Alpha  occ. eigenvalues --   -0.65296  -0.63796  -0.59854  -0.55726  -0.52021
 Alpha  occ. eigenvalues --   -0.51249  -0.49906  -0.48535  -0.48297
 Alpha virt. eigenvalues --   -0.26223  -0.15426  -0.11502  -0.09671  -0.08175
 Alpha virt. eigenvalues --   -0.06353  -0.04510  -0.03085  -0.02074  -0.00798
 Alpha virt. eigenvalues --    0.00190   0.00862   0.01827   0.02803   0.04109
 Alpha virt. eigenvalues --    0.04637   0.05054   0.05835   0.06252   0.06465
 Alpha virt. eigenvalues --    0.07408   0.08368   0.08938   0.09373   0.09995
 Alpha virt. eigenvalues --    0.10267   0.11134   0.11920   0.12644   0.13414
 Alpha virt. eigenvalues --    0.13899   0.14509   0.15199   0.15838   0.16393
 Alpha virt. eigenvalues --    0.17152   0.18584   0.19150   0.20059   0.20782
 Alpha virt. eigenvalues --    0.21037   0.22286   0.23122   0.23311   0.23810
 Alpha virt. eigenvalues --    0.24583   0.27387   0.27815   0.29700   0.30355
 Alpha virt. eigenvalues --    0.31892   0.33895   0.34671   0.35478   0.35988
 Alpha virt. eigenvalues --    0.37174   0.38269   0.40190   0.40795   0.41638
 Alpha virt. eigenvalues --    0.42673   0.42821   0.43369   0.45435   0.45908
 Alpha virt. eigenvalues --    0.46392   0.48988   0.49644   0.49989   0.51864
 Alpha virt. eigenvalues --    0.53370   0.54627   0.56144   0.56880   0.58138
 Alpha virt. eigenvalues --    0.59523   0.60624   0.61489   0.62663   0.63150
 Alpha virt. eigenvalues --    0.65113   0.66662   0.69088   0.70607   0.71809
 Alpha virt. eigenvalues --    0.73529   0.74625   0.75488   0.77762   0.78582
 Alpha virt. eigenvalues --    0.80646   0.81833   0.85100   0.87781   0.89488
 Alpha virt. eigenvalues --    0.91409   0.93750   0.97167   0.98412   1.04430
 Alpha virt. eigenvalues --    1.06270   1.08211   1.08329   1.10068   1.11835
 Alpha virt. eigenvalues --    1.15267   1.19387   1.19764   1.20916   1.24698
 Alpha virt. eigenvalues --    1.27588   1.29974   1.32635   1.37538   1.40229
 Alpha virt. eigenvalues --    1.40701   1.43295   1.47180   1.59327   1.60634
 Alpha virt. eigenvalues --    1.62798   1.64349   1.66765   1.68512   1.69690
 Alpha virt. eigenvalues --    1.73776   1.75545   1.78406   1.80688   1.83600
 Alpha virt. eigenvalues --    1.86410   1.90008   1.92124   1.99381   2.00675
 Alpha virt. eigenvalues --    2.03163   2.07317   2.07420   2.12022   2.12991
 Alpha virt. eigenvalues --    2.16956   2.18562   2.25990   2.28701   2.30617
 Alpha virt. eigenvalues --    2.37195   2.44743   2.47120   2.49119   2.56803
 Alpha virt. eigenvalues --    2.61876   2.67331   2.69672   2.72576   2.78474
 Alpha virt. eigenvalues --    2.79401   2.83123   2.83285   2.85665   2.88331
 Alpha virt. eigenvalues --    2.97269   3.03176   3.07693   3.10450   3.13049
 Alpha virt. eigenvalues --    3.18196   3.19590   3.21806   3.29029   3.31881
 Alpha virt. eigenvalues --    3.34283   3.43419   3.49717   3.54840   3.61234
 Alpha virt. eigenvalues --    3.63067   3.76041   3.81308   3.87541   3.91392
 Alpha virt. eigenvalues --    4.14234   4.15090   4.23656   4.27763   4.47622
 Alpha virt. eigenvalues --    4.52473   4.58725   4.66172   5.01089   5.03968
 Alpha virt. eigenvalues --    5.12818   5.17286   5.69241   6.22616   6.72236
 Alpha virt. eigenvalues --    7.53114   7.55430   7.65498  23.25829  23.65121
 Alpha virt. eigenvalues --   23.76072  23.81482  23.98809  24.06367  35.38566
 Alpha virt. eigenvalues --   47.98242  49.92492  50.01154 289.85865 289.88201
 Alpha virt. eigenvalues --  290.008161020.99398
          Condensed to atoms (all electrons):
               1          2          3          4          5          6
     1  C    8.912873  -3.177836   1.156441  -0.296352   0.295532   0.066447
     2  C   -3.177836  19.061869  -5.120422   0.320179   0.005392   0.157778
     3  C    1.156441  -5.120422  21.760367  -1.668095   0.028123   0.123948
     4  C   -0.296352   0.320179  -1.668095   6.849491   0.003709  -0.011864
     5  H    0.295532   0.005392   0.028123   0.003709   0.361650  -0.001685
     6  H    0.066447   0.157778   0.123948  -0.011864  -0.001685   0.298492
     7  H    0.040102  -0.040515   0.031406   0.296008  -0.003693  -0.000009
     8  N   -0.181288   0.082156  -1.859188   0.043878  -0.000429  -0.030304
     9  O   -0.023251   0.247952  -0.063508  -0.029004  -0.000042  -0.002725
    10  O    0.343928  -0.211482  -0.235046  -0.024956   0.000065   0.026425
    11  C    1.139023  -0.465198   3.067389  -0.677909  -0.029126   0.007870
    12  H   -0.012523   0.009379   0.027314   0.002949   0.000002  -0.000017
    13  C   -2.153495  -4.832997 -11.035480   1.505789   0.025731   0.001058
    14  H   -0.005100  -0.005282  -0.037929   0.004913  -0.000031   0.000018
    15  Br  -0.004664  -0.197770  -0.168262   0.002929  -0.000062  -0.000379
               7          8          9         10         11         12
     1  C    0.040102  -0.181288  -0.023251   0.343928   1.139023  -0.012523
     2  C   -0.040515   0.082156   0.247952  -0.211482  -0.465198   0.009379
     3  C    0.031406  -1.859188  -0.063508  -0.235046   3.067389   0.027314
     4  C    0.296008   0.043878  -0.029004  -0.024956  -0.677909   0.002949
     5  H   -0.003693  -0.000429  -0.000042   0.000065  -0.029126   0.000002
     6  H   -0.000009  -0.030304  -0.002725   0.026425   0.007870  -0.000017
     7  H    0.397223  -0.000094   0.000013  -0.000001   0.044318  -0.003017
     8  N   -0.000094   7.943140  -0.068487   0.104070  -0.536081   0.001054
     9  O    0.000013  -0.068487   7.905091   0.021061   0.370190   0.000076
    10  O   -0.000001   0.104070   0.021061   7.814517  -0.001448  -0.000024
    11  C    0.044318  -0.536081   0.370190  -0.001448   9.447842   0.289589
    12  H   -0.003017   0.001054   0.000076  -0.000024   0.289589   0.357377
    13  C   -0.033759   1.605843  -0.448755   0.036511  -6.542047   0.010167
    14  H   -0.000042  -0.024992   0.014733  -0.001881   0.067700  -0.005354
    15  Br  -0.000294   0.163463  -0.056669   0.002658   0.079899  -0.004477
              13         14         15
     1  C   -2.153495  -0.005100  -0.004664
     2  C   -4.832997  -0.005282  -0.197770
     3  C  -11.035480  -0.037929  -0.168262
     4  C    1.505789   0.004913   0.002929
     5  H    0.025731  -0.000031  -0.000062
     6  H    0.001058   0.000018  -0.000379
     7  H   -0.033759  -0.000042  -0.000294
     8  N    1.605843  -0.024992   0.163463
     9  O   -0.448755   0.014733  -0.056669
    10  O    0.036511  -0.001881   0.002658
    11  C   -6.542047   0.067700   0.079899
    12  H    0.010167  -0.005354  -0.004477
    13  C   27.636466   0.297438   0.336109
    14  H    0.297438   0.304629  -0.034597
    15  Br   0.336109  -0.034597  34.671401
 Mulliken charges:
               1
     1  C   -0.099837
     2  C    0.166798
     3  C   -0.007059
     4  C   -0.321664
     5  H    0.314866
     6  H    0.364948
     7  H    0.272354
     8  N   -0.242741
     9  O    0.133324
    10  O    0.125604
    11  C   -0.262012
    12  H    0.327505
    13  C   -0.408579
    14  H    0.425776
    15  Br   0.210716
 Sum of Mulliken charges =   1.00000
 Mulliken charges with hydrogens summed into heavy atoms:
               1
     1  C    0.215029
     2  C    0.531746
     3  C   -0.007059
     4  C   -0.049310
     8  N   -0.242741
     9  O    0.133324
    10  O    0.125604
    11  C    0.065493
    13  C    0.017197
    15  Br   0.210716
 Electronic spatial extent (au):  <R**2>=           3936.2508
 Charge=              1.0000 electrons
 Dipole moment (field-independent basis, Debye):
    X=              6.1074    Y=             -1.0776    Z=             -0.9207  Tot=              6.2697
 Quadrupole moment (field-independent basis, Debye-Ang):
   XX=            -55.0824   YY=            -50.9577   ZZ=            -61.8357
   XY=             -3.7547   XZ=             -3.4862   YZ=              2.8623
 Traceless Quadrupole moment (field-independent basis, Debye-Ang):
   XX=              0.8762   YY=              5.0009   ZZ=             -5.8771
   XY=             -3.7547   XZ=             -3.4862   YZ=              2.8623
 Octapole moment (field-independent basis, Debye-Ang**2):
  XXX=           -448.0650  YYY=             90.7817  ZZZ=             81.6962  XYY=           -128.7648
  XXY=             22.3084  XXZ=             22.3198  XZZ=           -128.2139  YZZ=             16.0026
  YYZ=             24.6790  XYZ=              9.9713
 Hexadecapole moment (field-independent basis, Debye-Ang**3):
 XXXX=          -3129.8706 YYYY=           -701.1458 ZZZZ=           -392.4085 XXXY=            175.2592
 XXXZ=            173.8438 YYYX=            179.4609 YYYZ=           -169.2274 ZZZX=            161.2033
 ZZZY=           -141.6156 XXYY=           -593.6173 XXZZ=           -510.5507 YYZZ=           -169.0822
 XXYZ=            -34.4016 YYXZ=             44.4334 ZZXY=             23.6057
 N-N= 7.679148933457D+02 E-N=-8.694047722067D+03  KE= 3.005833780652D+03
 No NMR shielding tensors so no spin-rotation constants.
 Leave Link  601 at Thu May  2 14:23:38 2024, MaxMem=   134217728 cpu:               7.3 elap:               7.3
 (Enter /software/gaussian/g16-c01/sse4/g16/l9999.exe)
 Unable to Open any file for archive entry.
 1\1\GINC-BHX0004\SP\RwB97XD\6-311+G(d)\C6H5Br1N1O2(1+)\BWEIGHT\02-May-
 2024\0\\#P wB97XD/6-311+G* NoSymm #P Field=X-116\\TitleMe\\1,1\C,0,0.5
 193,1.233,-0.0319\C,0,1.9445,1.2692,-0.0367\C,0,2.6204,0.0928,-0.025\C
 ,0,-0.196,0.0301,0.001\H,0,-0.0207,2.1742,-0.0434\H,0,2.4828,2.2089,-0
 .0361\H,0,-1.2777,0.0399,0.0117\N,0,4.0921,0.0959,0.0366\O,0,4.6393,-1
 .0217,0.1446\O,0,4.6649,1.1984,-0.0233\C,0,0.4943,-1.1671,0.021\H,0,-0
 .0325,-2.1149,0.0545\C,0,1.9629,-1.2165,-0.0211\H,0,2.4436,-1.9631,0.6
 151\Br,0,2.173,-1.9491,-1.9062\\Version=ES64L-G16RevC.01\HF=-3010.5521
 628\RMSD=8.104e-09\Dipole=-1.9263936,0.8041445,0.8870014\Quadrupole=0.
 6513965,3.7180631,-4.3694596,-2.7915435,-2.5919357,2.1280299\PG=C01 [X
 (C6H5Br1N1O2)]\\@
 The archive entry for this job was punched.


 ALL SCIENCE IS EITHER PHYSICS, OR STAMP COLLECTING.
   --ERNEST RUTHERFORD, 1871-1937.
 Job cpu time:       0 days  0 hours 26 minutes  6.4 seconds.
 Elapsed time:       0 days  0 hours 26 minutes  8.5 seconds.
 File lengths (MBytes):  RWF=     40 Int=      0 D2E=      0 Chk=     32 Scr=      1
 Normal termination of Gaussian 16 at Thu May  2 14:23:39 2024.
