 Entering Gaussian System, Link 0=g16
 Initial command:
 /software/gaussian/g16-c01/sse4/g16/l1.exe "/local_scratch/24665366/Gau-29491.inp" -scrdir="/local_scratch/24665366/"
 Entering Link 1 = /software/gaussian/g16-c01/sse4/g16/l1.exe PID=     29508.
  
 Copyright (c) 1988-2019, Gaussian, Inc.  All Rights Reserved.
  
 This is part of the Gaussian(R) 16 program.  It is based on
 the Gaussian(R) 09 system (copyright 2009, Gaussian, Inc.),
 the Gaussian(R) 03 system (copyright 2003, Gaussian, Inc.),
 the Gaussian(R) 98 system (copyright 1998, Gaussian, Inc.),
 the Gaussian(R) 94 system (copyright 1995, Gaussian, Inc.),
 the Gaussian 92(TM) system (copyright 1992, Gaussian, Inc.),
 the Gaussian 90(TM) system (copyright 1990, Gaussian, Inc.),
 the Gaussian 88(TM) system (copyright 1988, Gaussian, Inc.),
 the Gaussian 86(TM) system (copyright 1986, Carnegie Mellon
 University), and the Gaussian 82(TM) system (copyright 1983,
 Carnegie Mellon University). Gaussian is a federally registered
 trademark of Gaussian, Inc.
  
 This software contains proprietary and confidential information,
 including trade secrets, belonging to Gaussian, Inc.
  
 This software is provided under written license and may be
 used, copied, transmitted, or stored only in accord with that
 written license.
  
 The following legend is applicable only to US Government
 contracts under FAR:
  
                    RESTRICTED RIGHTS LEGEND
  
 Use, reproduction and disclosure by the US Government is
 subject to restrictions as set forth in subparagraphs (a)
 and (c) of the Commercial Computer Software - Restricted
 Rights clause in FAR 52.227-19.
  
 Gaussian, Inc.
 340 Quinnipiac St., Bldg. 40, Wallingford CT 06492
  
  
 ---------------------------------------------------------------
 Warning -- This program may not be used in any manner that
 competes with the business of Gaussian, Inc. or will provide
 assistance to any competitor of Gaussian, Inc.  The licensee
 of this program is prohibited from giving any competitor of
 Gaussian, Inc. access to this program.  By using this program,
 the user acknowledges that Gaussian, Inc. is engaged in the
 business of creating and licensing software in the field of
 computational chemistry and represents and warrants to the
 licensee that it is not a competitor of Gaussian, Inc. and that
 it will not use this program in any manner prohibited above.
 ---------------------------------------------------------------
  

 Cite this work as:
 Gaussian 16, Revision C.01,
 M. J. Frisch, G. W. Trucks, H. B. Schlegel, G. E. Scuseria, 
 M. A. Robb, J. R. Cheeseman, G. Scalmani, V. Barone, 
 G. A. Petersson, H. Nakatsuji, X. Li, M. Caricato, A. V. Marenich, 
 J. Bloino, B. G. Janesko, R. Gomperts, B. Mennucci, H. P. Hratchian, 
 J. V. Ortiz, A. F. Izmaylov, J. L. Sonnenberg, D. Williams-Young, 
 F. Ding, F. Lipparini, F. Egidi, J. Goings, B. Peng, A. Petrone, 
 T. Henderson, D. Ranasinghe, V. G. Zakrzewski, J. Gao, N. Rega, 
 G. Zheng, W. Liang, M. Hada, M. Ehara, K. Toyota, R. Fukuda, 
 J. Hasegawa, M. Ishida, T. Nakajima, Y. Honda, O. Kitao, H. Nakai, 
 T. Vreven, K. Throssell, J. A. Montgomery, Jr., J. E. Peralta, 
 F. Ogliaro, M. J. Bearpark, J. J. Heyd, E. N. Brothers, K. N. Kudin, 
 V. N. Staroverov, T. A. Keith, R. Kobayashi, J. Normand, 
 K. Raghavachari, A. P. Rendell, J. C. Burant, S. S. Iyengar, 
 J. Tomasi, M. Cossi, J. M. Millam, M. Klene, C. Adamo, R. Cammi, 
 J. W. Ochterski, R. L. Martin, K. Morokuma, O. Farkas, 
 J. B. Foresman, and D. J. Fox, Gaussian, Inc., Wallingford CT, 2019.
 
 ******************************************
 Gaussian 16:  ES64L-G16RevC.01  3-Jul-2019
                 2-May-2024 
 ******************************************
 %chk=geometry.chk
 %mem=1GB
 %nprocshared=12
 Will use up to   12 processors via shared memory.
 ----------------------------------------
 #P wB97XD/6-311+G* NoSymm #P Field=Z-165
 ----------------------------------------
 1/38=1,172=1/1;
 2/12=2,15=1,17=6,18=5,40=1/2;
 3/5=4,6=6,7=11,11=2,14=3,15=-165,25=1,30=1,74=-58/1,2,3;
 4//1;
 5/5=2,38=5/2;
 6/7=2,8=2,9=2,10=2,28=1/1;
 99/5=1,9=1/99;
 Leave Link    1 at Thu May  2 13:58:20 2024, MaxMem=   134217728 cpu:               2.6 elap:               2.6
 (Enter /software/gaussian/g16-c01/sse4/g16/l101.exe)
 -------
 TitleMe
 -------
 Symbolic Z-matrix:
 Charge =  1 Multiplicity = 1
 C                     0.5193    1.233    -0.0319 
 C                     1.9445    1.2692   -0.0367 
 C                     2.6204    0.0928   -0.025 
 C                    -0.196     0.0301    0.001 
 H                    -0.0207    2.1742   -0.0434 
 H                     2.4828    2.2089   -0.0361 
 H                    -1.2777    0.0399    0.0117 
 N                     4.0921    0.0959    0.0366 
 O                     4.6393   -1.0217    0.1446 
 O                     4.6649    1.1984   -0.0233 
 C                     0.4943   -1.1671    0.021 
 H                    -0.0325   -2.1149    0.0545 
 C                     1.9629   -1.2165   -0.0211 
 H                     2.4436   -1.9631    0.6151 
 Br                    2.173    -1.9491   -1.9062 
 
 ITRead=  0  0  0  0  0  0  0  0  0  0  0  0  0  0  0
 MicOpt= -1 -1 -1 -1 -1 -1 -1 -1 -1 -1 -1 -1 -1 -1 -1
 NAtoms=     15 NQM=       15 NQMF=       0 NMMI=      0 NMMIF=      0
                NMic=       0 NMicF=      0.
                    Isotopes and Nuclear Properties:
 (Nuclear quadrupole moments (NQMom) in fm**2, nuclear magnetic moments (NMagM)
  in nuclear magnetons)

  Atom         1           2           3           4           5           6           7           8           9          10
 IAtWgt=          12          12          12          12           1           1           1          14          16          16
 AtmWgt=  12.0000000  12.0000000  12.0000000  12.0000000   1.0078250   1.0078250   1.0078250  14.0030740  15.9949146  15.9949146
 NucSpn=           0           0           0           0           1           1           1           2           0           0
 AtZEff=  -0.0000000  -0.0000000  -0.0000000  -0.0000000  -0.0000000  -0.0000000  -0.0000000  -0.0000000  -0.0000000  -0.0000000
 NQMom=    0.0000000   0.0000000   0.0000000   0.0000000   0.0000000   0.0000000   0.0000000   2.0440000   0.0000000   0.0000000
 NMagM=    0.0000000   0.0000000   0.0000000   0.0000000   2.7928460   2.7928460   2.7928460   0.4037610   0.0000000   0.0000000
 AtZNuc=   6.0000000   6.0000000   6.0000000   6.0000000   1.0000000   1.0000000   1.0000000   7.0000000   8.0000000   8.0000000

  Atom        11          12          13          14          15
 IAtWgt=          12           1          12           1          79
 AtmWgt=  12.0000000   1.0078250  12.0000000   1.0078250  78.9183361
 NucSpn=           0           1           0           1           3
 AtZEff=  -0.0000000  -0.0000000  -0.0000000  -0.0000000  -0.0000000
 NQMom=    0.0000000   0.0000000   0.0000000   0.0000000  31.3000000
 NMagM=    0.0000000   2.7928460   0.0000000   2.7928460   2.1063990
 AtZNuc=   6.0000000   1.0000000   6.0000000   1.0000000  35.0000000
 Leave Link  101 at Thu May  2 13:58:21 2024, MaxMem=   134217728 cpu:               1.5 elap:               1.5
 (Enter /software/gaussian/g16-c01/sse4/g16/l202.exe)
                          Input orientation:                          
 ---------------------------------------------------------------------
 Center     Atomic      Atomic             Coordinates (Angstroms)
 Number     Number       Type             X           Y           Z
 ---------------------------------------------------------------------
      1          6           0        0.519300    1.233000   -0.031900
      2          6           0        1.944500    1.269200   -0.036700
      3          6           0        2.620400    0.092800   -0.025000
      4          6           0       -0.196000    0.030100    0.001000
      5          1           0       -0.020700    2.174200   -0.043400
      6          1           0        2.482800    2.208900   -0.036100
      7          1           0       -1.277700    0.039900    0.011700
      8          7           0        4.092100    0.095900    0.036600
      9          8           0        4.639300   -1.021700    0.144600
     10          8           0        4.664900    1.198400   -0.023300
     11          6           0        0.494300   -1.167100    0.021000
     12          1           0       -0.032500   -2.114900    0.054500
     13          6           0        1.962900   -1.216500   -0.021100
     14          1           0        2.443600   -1.963100    0.615100
     15         35           0        2.173000   -1.949100   -1.906200
 ---------------------------------------------------------------------
                    Distance matrix (angstroms):
                    1          2          3          4          5
     1  C    0.000000
     2  C    1.425668   0.000000
     3  C    2.390549   1.356796   0.000000
     4  C    1.399895   2.473566   2.817218   0.000000
     5  H    1.085168   2.163581   3.362733   2.151712   0.000000
     6  H    2.192654   1.082960   2.120598   3.453189   2.503751
     7  H    2.157452   3.449071   3.898632   1.081797   2.477564
     8  N    3.750012   2.448304   1.472992   4.288753   4.608780
     9  O    4.699917   3.541615   2.312322   4.950458   5.653735
    10  O    4.145753   2.721354   2.324292   4.999386   4.786171
    11  C    2.400813   2.835836   2.471794   1.382101   3.381369
    12  H    3.394169   3.920329   3.452266   2.151887   4.290233
    13  C    2.843264   2.485817   1.465124   2.493060   3.928360
    14  H    3.786370   3.334922   2.160489   3.364142   4.860416
    15  Br   4.046416   3.728900   2.812194   3.628609   5.028314
                    6          7          8          9         10
     6  H    0.000000
     7  H    4.341452   0.000000
     8  N    2.657047   5.370150   0.000000
     9  O    3.888434   6.012948   1.249048   0.000000
    10  O    2.404752   6.054572   1.243863   2.226587   0.000000
    11  C    3.918516   2.144043   3.813080   4.149391   4.794941
    12  H    5.003018   2.489080   4.679774   4.798846   5.748876
    13  C    3.464662   3.475788   2.501842   2.688591   3.623886
    14  H    4.222698   4.268978   2.700314   2.434893   3.916224
    15  Br   4.569706   4.420610   3.411663   3.338935   4.434144
                   11         12         13         14         15
    11  C    0.000000
    12  H    1.084880   0.000000
    13  C    1.470034   2.189625   0.000000
    14  H    2.187771   2.543302   1.092353   0.000000
    15  Br   2.672762   2.955683   2.033334   2.535818   0.000000
 Symmetry turned off by external request.
 Stoichiometry    C6H5BrNO2(1+)
 Framework group  C1[X(C6H5BrNO2)]
 Deg. of freedom    39
 Full point group                 C1      NOp   1
 Rotational constants (GHZ):           1.1632986           0.9594224           0.5957624
 Leave Link  202 at Thu May  2 13:58:23 2024, MaxMem=   134217728 cpu:               1.5 elap:               1.5
 (Enter /software/gaussian/g16-c01/sse4/g16/l301.exe)
 Standard basis: 6-311+G(d) (5D, 7F)
 Ernie: Thresh=  0.10000D-02 Tol=  0.10000D-05 Strict=F.
 The following finite field(s) will be applied:
 An electric field of              0.0000  0.0000 -0.0165
   261 basis functions,   443 primitive gaussians,   273 cartesian basis functions
    49 alpha electrons       49 beta electrons
       nuclear repulsion energy       772.8945969580 Hartrees.
 IExCor= 4639 DFT=T Ex+Corr=wB97XD ExCW=0 ScaHFX=  1.000000
 ScaDFX=  1.000000  1.000000  1.000000  1.000000 ScalE2=  1.000000  1.000000
 IRadAn=      5 IRanWt=     -1 IRanGd=            0 ICorTp=0 IEmpDi=121
 HFx  wShort=  0.000000 wLong=  0.200000 cFull=  0.222036 cShort=  0.000000 cLong=  0.777964
 DFx  wShort=  0.000000 wLong=  0.200000 cFull=  0.000000 cShort=  0.000000 cLong=  1.000000
 NAtoms=   15 NActive=   15 NUniq=   15 SFac= 1.00D+00 NAtFMM=   60 NAOKFM=F Big=F
 Integral buffers will be    131072 words long.
 Raffenetti 2 integral format.
 Two-electron integral symmetry is turned off.
 R6Disp:  Grimme-D2 Dispersion energy=       -0.0080346408 Hartrees.
 Nuclear repulsion after empirical dispersion term =      772.8865623173 Hartrees.
 Leave Link  301 at Thu May  2 13:58:24 2024, MaxMem=   134217728 cpu:               1.0 elap:               1.0
 (Enter /software/gaussian/g16-c01/sse4/g16/l302.exe)
 NPDir=0 NMtPBC=     1 NCelOv=     1 NCel=       1 NClECP=     1 NCelD=      1
         NCelK=      1 NCelE2=     1 NClLst=     1 CellRange=     0.0.
 One-electron integrals computed using PRISM.
 NBasis=   261 RedAO= T EigKep=  2.52D-06  NBF=   261
 NBsUse=   261 1.00D-06 EigRej= -1.00D+00 NBFU=   261
 Precomputing XC quadrature grid using
 IXCGrd= 4 IRadAn=           5 IRanWt=          -1 IRanGd=           0 AccXCQ= 0.00D+00.
 Generated NRdTot=       0 NPtTot=           0 NUsed=           0 NTot=          32
 NSgBfM=   273   273   273   273   273 MxSgAt=    15 MxSgA2=    15.
 Leave Link  302 at Thu May  2 13:58:46 2024, MaxMem=   134217728 cpu:              22.1 elap:              22.1
 (Enter /software/gaussian/g16-c01/sse4/g16/l303.exe)
 DipDrv:  MaxL=1.
 The nuclear repulsion energy is now       774.9271626639 hartrees.
 Leave Link  303 at Thu May  2 13:58:49 2024, MaxMem=   134217728 cpu:               3.3 elap:               3.3
 (Enter /software/gaussian/g16-c01/sse4/g16/l401.exe)
 ExpMin= 3.50D-02 ExpMax= 4.40D+05 ExpMxC= 1.51D+04 IAcc=3 IRadAn=         5 AccDes= 0.00D+00
 Harris functional with IExCor= 4639 and IRadAn=       5 diagonalized for initial guess.
 HarFok:  IExCor= 4639 AccDes= 0.00D+00 IRadAn=         5 IDoV= 1 UseB2=F ITyADJ=14
 ICtDFT=  3500011 ScaDFX=  1.000000  1.000000  1.000000  1.000000
 FoFCou: FMM=F IPFlag=           0 FMFlag=      100000 FMFlg1=           0
         NFxFlg=           0 DoJE=T BraDBF=F KetDBF=T FulRan=T
         wScrn=  0.000000 ICntrl=       500 IOpCl=  0 I1Cent=   200000004 NGrid=           0
         NMat0=    1 NMatS0=      1 NMatT0=    0 NMatD0=    1 NMtDS0=    0 NMtDT0=    0
 Symmetry not used in FoFCou.
 Harris En= -2970.62599091527    
 JPrj=0 DoOrth=F DoCkMO=F.
 Leave Link  401 at Thu May  2 13:59:21 2024, MaxMem=   134217728 cpu:              31.5 elap:              31.5
 (Enter /software/gaussian/g16-c01/sse4/g16/l502.exe)
 Two-electron integral symmetry not used.
 Closed shell SCF:
 Using DIIS extrapolation, IDIIS=  1040.
 NGot=   134217728 LenX=   134063053 LenY=   133988083
 Requested convergence on RMS density matrix=1.00D-08 within 128 cycles.
 Requested convergence on MAX density matrix=1.00D-06.
 Requested convergence on             energy=1.00D-06.
 No special actions if energy rises.
 Fock matrices will be formed incrementally for  20 cycles.

 Cycle   1  Pass 1  IDiag  1:
 FoFJK:  IHMeth= 1 ICntrl=       0 DoSepK=T KAlg= 0 I1Cent=           0 FoldK=F
 IRaf=         1 NMat=       1 IRICut=       1 DoRegI=T DoRafI=F ISym2E= 0 IDoP0=0 IntGTp=1.
 FoFCou: FMM=F IPFlag=           0 FMFlag=      100000 FMFlg1=           0
         NFxFlg=           0 DoJE=T BraDBF=F KetDBF=F FulRan=T
         wScrn=  0.000000 ICntrl=       500 IOpCl=  0 I1Cent=           0 NGrid=           0
         NMat0=    1 NMatS0=      1 NMatT0=    0 NMatD0=    1 NMtDS0=    0 NMtDT0=    0
 Symmetry not used in FoFCou.
 E= -3009.66421180823    
 DIIS: error= 2.90D-01 at cycle   1 NSaved=   1.
 NSaved= 1 IEnMin= 1 EnMin= -3009.66421180823     IErMin= 1 ErrMin= 2.90D-01
 ErrMax= 2.90D-01  0.00D+00 EMaxC= 1.00D-01 BMatC= 1.19D+01 BMatP= 1.19D+01
 IDIUse=3 WtCom= 0.00D+00 WtEn= 1.00D+00
 Coeff-Com:  0.100D+01
 Coeff-En:   0.100D+01
 Coeff:      0.100D+01
 Gap=     0.380 Goal=   None    Shift=    0.000
 GapD=    0.380 DampG=1.000 DampE=0.250 DampFc=0.2500 IDamp=-1.
 Damping current iteration by 2.50D-01
 RMSDP=7.71D-02 MaxDP=6.58D+00              OVMax= 2.61D-01

 Cycle   2  Pass 1  IDiag  1:
 RMSU=  8.10D-03    CP:  8.69D-01
 E= -3009.96653549834     Delta-E=       -0.302323690111 Rises=F Damp=T
 DIIS: error= 2.18D-01 at cycle   2 NSaved=   2.
 NSaved= 2 IEnMin= 2 EnMin= -3009.96653549834     IErMin= 2 ErrMin= 2.18D-01
 ErrMax= 2.18D-01  0.00D+00 EMaxC= 1.00D-01 BMatC= 5.46D+00 BMatP= 1.19D+01
 IDIUse=3 WtCom= 0.00D+00 WtEn= 1.00D+00
 Coeff-Com: -0.184D+01 0.284D+01
 Coeff-En:   0.000D+00 0.100D+01
 Coeff:      0.000D+00 0.100D+01
 Gap=     0.266 Goal=   None    Shift=    0.000
 RMSDP=5.97D-02 MaxDP=5.33D+00 DE=-3.02D-01 OVMax= 6.64D-02

 Cycle   3  Pass 1  IDiag  1:
 RMSU=  5.42D-03    CP:  4.46D-01  3.00D+00
 E= -3010.37925642635     Delta-E=       -0.412720928010 Rises=F Damp=F
 DIIS: error= 6.52D-02 at cycle   3 NSaved=   3.
 NSaved= 3 IEnMin= 3 EnMin= -3010.37925642635     IErMin= 3 ErrMin= 6.52D-02
 ErrMax= 6.52D-02  0.00D+00 EMaxC= 1.00D-01 BMatC= 7.23D-01 BMatP= 5.46D+00
 IDIUse=3 WtCom= 3.48D-01 WtEn= 6.52D-01
 Coeff-Com:  0.255D+01-0.334D+01 0.179D+01
 Coeff-En:   0.157D-01 0.000D+00 0.984D+00
 Coeff:      0.898D+00-0.116D+01 0.126D+01
 Gap=     0.271 Goal=   None    Shift=    0.000
 RMSDP=1.29D-02 MaxDP=9.34D-01 DE=-4.13D-01 OVMax= 7.48D-02

 Cycle   4  Pass 1  IDiag  1:
 RMSU=  8.97D-03    CP:  4.97D-01  2.47D+00  1.47D+00
 E= -3010.48410720781     Delta-E=       -0.104850781463 Rises=F Damp=F
 DIIS: error= 3.92D-02 at cycle   4 NSaved=   4.
 NSaved= 4 IEnMin= 4 EnMin= -3010.48410720781     IErMin= 4 ErrMin= 3.92D-02
 ErrMax= 3.92D-02  0.00D+00 EMaxC= 1.00D-01 BMatC= 2.43D-01 BMatP= 7.23D-01
 IDIUse=3 WtCom= 6.08D-01 WtEn= 3.92D-01
 Coeff-Com:  0.143D+00-0.176D+00 0.449D+00 0.583D+00
 Coeff-En:   0.000D+00 0.000D+00 0.210D+00 0.790D+00
 Coeff:      0.868D-01-0.107D+00 0.356D+00 0.664D+00
 Gap=     0.266 Goal=   None    Shift=    0.000
 RMSDP=5.88D-03 MaxDP=5.66D-01 DE=-1.05D-01 OVMax= 6.01D-02

 Cycle   5  Pass 1  IDiag  1:
 RMSU=  2.42D-03    CP:  4.60D-01  2.58D+00  1.45D+00  7.88D-01
 E= -3010.53005106056     Delta-E=       -0.045943852749 Rises=F Damp=F
 DIIS: error= 1.08D-02 at cycle   5 NSaved=   5.
 NSaved= 5 IEnMin= 5 EnMin= -3010.53005106056     IErMin= 5 ErrMin= 1.08D-02
 ErrMax= 1.08D-02  0.00D+00 EMaxC= 1.00D-01 BMatC= 1.34D-02 BMatP= 2.43D-01
 IDIUse=3 WtCom= 8.92D-01 WtEn= 1.08D-01
 Coeff-Com: -0.680D-01 0.968D-01 0.163D+00 0.406D+00 0.402D+00
 Coeff-En:   0.000D+00 0.000D+00 0.000D+00 0.000D+00 0.100D+01
 Coeff:     -0.606D-01 0.863D-01 0.145D+00 0.362D+00 0.467D+00
 Gap=     0.256 Goal=   None    Shift=    0.000
 RMSDP=1.42D-03 MaxDP=1.06D-01 DE=-4.59D-02 OVMax= 3.10D-02

 Cycle   6  Pass 1  IDiag  1:
 RMSU=  8.53D-04    CP:  4.60D-01  2.60D+00  1.43D+00  8.63D-01  6.29D-01
 E= -3010.53563054565     Delta-E=       -0.005579485094 Rises=F Damp=F
 DIIS: error= 3.85D-03 at cycle   6 NSaved=   6.
 NSaved= 6 IEnMin= 6 EnMin= -3010.53563054565     IErMin= 6 ErrMin= 3.85D-03
 ErrMax= 3.85D-03  0.00D+00 EMaxC= 1.00D-01 BMatC= 1.27D-03 BMatP= 1.34D-02
 IDIUse=3 WtCom= 9.62D-01 WtEn= 3.85D-02
 Coeff-Com: -0.872D-01 0.118D+00 0.542D-02 0.146D+00 0.318D+00 0.500D+00
 Coeff-En:   0.000D+00 0.000D+00 0.000D+00 0.000D+00 0.124D+00 0.876D+00
 Coeff:     -0.839D-01 0.113D+00 0.521D-02 0.141D+00 0.311D+00 0.514D+00
 Gap=     0.247 Goal=   None    Shift=    0.000
 RMSDP=5.51D-04 MaxDP=4.14D-02 DE=-5.58D-03 OVMax= 1.13D-02

 Cycle   7  Pass 1  IDiag  1:
 RMSU=  3.10D-04    CP:  4.60D-01  2.61D+00  1.44D+00  8.68D-01  7.62D-01
                    CP:  6.65D-01
 E= -3010.53656148944     Delta-E=       -0.000930943793 Rises=F Damp=F
 DIIS: error= 2.97D-04 at cycle   7 NSaved=   7.
 NSaved= 7 IEnMin= 7 EnMin= -3010.53656148944     IErMin= 7 ErrMin= 2.97D-04
 ErrMax= 2.97D-04  0.00D+00 EMaxC= 1.00D-01 BMatC= 1.90D-05 BMatP= 1.27D-03
 IDIUse=3 WtCom= 9.97D-01 WtEn= 2.97D-03
 Coeff-Com: -0.283D-01 0.375D-01-0.146D-01 0.149D-01 0.584D-01 0.160D+00
 Coeff-Com:  0.772D+00
 Coeff-En:   0.000D+00 0.000D+00 0.000D+00 0.000D+00 0.000D+00 0.000D+00
 Coeff-En:   0.100D+01
 Coeff:     -0.282D-01 0.374D-01-0.146D-01 0.148D-01 0.583D-01 0.160D+00
 Coeff:      0.772D+00
 Gap=     0.246 Goal=   None    Shift=    0.000
 RMSDP=2.80D-04 MaxDP=1.97D-02 DE=-9.31D-04 OVMax= 4.09D-03

 Cycle   8  Pass 1  IDiag  1:
 RMSU=  1.09D-04    CP:  4.60D-01  2.61D+00  1.44D+00  8.91D-01  8.11D-01
                    CP:  7.38D-01  1.15D+00
 E= -3010.53660741632     Delta-E=       -0.000045926877 Rises=F Damp=F
 DIIS: error= 1.12D-04 at cycle   8 NSaved=   8.
 NSaved= 8 IEnMin= 8 EnMin= -3010.53660741632     IErMin= 8 ErrMin= 1.12D-04
 ErrMax= 1.12D-04  0.00D+00 EMaxC= 1.00D-01 BMatC= 3.37D-06 BMatP= 1.90D-05
 IDIUse=3 WtCom= 9.99D-01 WtEn= 1.12D-03
 Coeff-Com:  0.107D-01-0.146D-01-0.359D-02-0.219D-01-0.473D-01-0.713D-01
 Coeff-Com:  0.153D+00 0.995D+00
 Coeff-En:   0.000D+00 0.000D+00 0.000D+00 0.000D+00 0.000D+00 0.000D+00
 Coeff-En:   0.000D+00 0.100D+01
 Coeff:      0.107D-01-0.146D-01-0.359D-02-0.219D-01-0.472D-01-0.712D-01
 Coeff:      0.152D+00 0.995D+00
 Gap=     0.246 Goal=   None    Shift=    0.000
 RMSDP=1.40D-04 MaxDP=5.91D-03 DE=-4.59D-05 OVMax= 3.51D-03

 Cycle   9  Pass 1  IDiag  1:
 RMSU=  5.26D-05    CP:  4.61D-01  2.61D+00  1.44D+00  8.99D-01  8.31D-01
                    CP:  7.23D-01  1.41D+00  1.34D+00
 E= -3010.53662642929     Delta-E=       -0.000019012974 Rises=F Damp=F
 DIIS: error= 5.01D-05 at cycle   9 NSaved=   9.
 NSaved= 9 IEnMin= 9 EnMin= -3010.53662642929     IErMin= 9 ErrMin= 5.01D-05
 ErrMax= 5.01D-05  0.00D+00 EMaxC= 1.00D-01 BMatC= 7.29D-07 BMatP= 3.37D-06
 IDIUse=1 WtCom= 1.00D+00 WtEn= 0.00D+00
 Coeff-Com:  0.814D-02-0.109D-01 0.160D-02-0.916D-02-0.213D-01-0.432D-01
 Coeff-Com: -0.109D+00 0.270D+00 0.914D+00
 Coeff:      0.814D-02-0.109D-01 0.160D-02-0.916D-02-0.213D-01-0.432D-01
 Coeff:     -0.109D+00 0.270D+00 0.914D+00
 Gap=     0.246 Goal=   None    Shift=    0.000
 RMSDP=5.75D-05 MaxDP=4.21D-03 DE=-1.90D-05 OVMax= 1.91D-03

 Cycle  10  Pass 1  IDiag  1:
 RMSU=  1.92D-05    CP:  4.60D-01  2.61D+00  1.45D+00  9.00D-01  8.39D-01
                    CP:  7.11D-01  1.50D+00  1.50D+00  1.55D+00
 E= -3010.53663126411     Delta-E=       -0.000004834815 Rises=F Damp=F
 DIIS: error= 3.43D-05 at cycle  10 NSaved=  10.
 NSaved=10 IEnMin=10 EnMin= -3010.53663126411     IErMin=10 ErrMin= 3.43D-05
 ErrMax= 3.43D-05  0.00D+00 EMaxC= 1.00D-01 BMatC= 2.00D-07 BMatP= 7.29D-07
 IDIUse=1 WtCom= 1.00D+00 WtEn= 0.00D+00
 Coeff-Com: -0.505D-03 0.735D-03 0.102D-02 0.220D-02 0.668D-02 0.103D-01
 Coeff-Com: -0.665D-01-0.164D+00 0.239D+00 0.970D+00
 Coeff:     -0.505D-03 0.735D-03 0.102D-02 0.220D-02 0.668D-02 0.103D-01
 Coeff:     -0.665D-01-0.164D+00 0.239D+00 0.970D+00
 Gap=     0.246 Goal=   None    Shift=    0.000
 RMSDP=3.22D-05 MaxDP=2.70D-03 DE=-4.83D-06 OVMax= 1.12D-03

 Cycle  11  Pass 1  IDiag  1:
 RMSU=  9.86D-06    CP:  4.60D-01  2.61D+00  1.45D+00  8.99D-01  8.43D-01
                    CP:  6.97D-01  1.53D+00  1.59D+00  1.89D+00  1.57D+00
 E= -3010.53663255764     Delta-E=       -0.000001293532 Rises=F Damp=F
 DIIS: error= 1.75D-05 at cycle  11 NSaved=  11.
 NSaved=11 IEnMin=11 EnMin= -3010.53663255764     IErMin=11 ErrMin= 1.75D-05
 ErrMax= 1.75D-05  0.00D+00 EMaxC= 1.00D-01 BMatC= 3.22D-08 BMatP= 2.00D-07
 IDIUse=1 WtCom= 1.00D+00 WtEn= 0.00D+00
 Coeff-Com: -0.107D-02 0.144D-02 0.718D-04 0.183D-02 0.409D-02 0.841D-02
 Coeff-Com:  0.137D-01-0.719D-01-0.159D+00 0.106D+00 0.110D+01
 Coeff:     -0.107D-02 0.144D-02 0.718D-04 0.183D-02 0.409D-02 0.841D-02
 Coeff:      0.137D-01-0.719D-01-0.159D+00 0.106D+00 0.110D+01
 Gap=     0.246 Goal=   None    Shift=    0.000
 RMSDP=1.71D-05 MaxDP=1.98D-03 DE=-1.29D-06 OVMax= 5.80D-04

 Cycle  12  Pass 1  IDiag  1:
 RMSU=  3.78D-06    CP:  4.60D-01  2.61D+00  1.45D+00  8.98D-01  8.44D-01
                    CP:  6.90D-01  1.54D+00  1.62D+00  2.06D+00  1.87D+00
                    CP:  1.45D+00
 E= -3010.53663282714     Delta-E=       -0.000000269493 Rises=F Damp=F
 DIIS: error= 8.46D-06 at cycle  12 NSaved=  12.
 NSaved=12 IEnMin=12 EnMin= -3010.53663282714     IErMin=12 ErrMin= 8.46D-06
 ErrMax= 8.46D-06  0.00D+00 EMaxC= 1.00D-01 BMatC= 1.46D-08 BMatP= 3.22D-08
 IDIUse=1 WtCom= 1.00D+00 WtEn= 0.00D+00
 Coeff-Com: -0.278D-03 0.362D-03-0.120D-03 0.380D-03 0.899D-04 0.917D-03
 Coeff-Com:  0.234D-01 0.443D-02-0.131D+00-0.185D+00 0.583D+00 0.704D+00
 Coeff:     -0.278D-03 0.362D-03-0.120D-03 0.380D-03 0.899D-04 0.917D-03
 Coeff:      0.234D-01 0.443D-02-0.131D+00-0.185D+00 0.583D+00 0.704D+00
 Gap=     0.246 Goal=   None    Shift=    0.000
 RMSDP=7.68D-06 MaxDP=9.63D-04 DE=-2.69D-07 OVMax= 1.90D-04

 Cycle  13  Pass 1  IDiag  1:
 RMSU=  2.06D-06    CP:  4.60D-01  2.61D+00  1.45D+00  8.98D-01  8.44D-01
                    CP:  6.88D-01  1.54D+00  1.62D+00  2.12D+00  2.02D+00
                    CP:  1.59D+00  1.08D+00
 E= -3010.53663287019     Delta-E=       -0.000000043051 Rises=F Damp=F
 DIIS: error= 3.83D-06 at cycle  13 NSaved=  13.
 NSaved=13 IEnMin=13 EnMin= -3010.53663287019     IErMin=13 ErrMin= 3.83D-06
 ErrMax= 3.83D-06  0.00D+00 EMaxC= 1.00D-01 BMatC= 1.09D-09 BMatP= 1.46D-08
 IDIUse=1 WtCom= 1.00D+00 WtEn= 0.00D+00
 Coeff-Com:  0.113D-04-0.154D-04-0.551D-04-0.197D-03-0.616D-03-0.148D-02
 Coeff-Com: -0.290D-02 0.838D-02 0.358D-01-0.126D-01-0.192D+00-0.560D-01
 Coeff-Com:  0.122D+01
 Coeff:      0.113D-04-0.154D-04-0.551D-04-0.197D-03-0.616D-03-0.148D-02
 Coeff:     -0.290D-02 0.838D-02 0.358D-01-0.126D-01-0.192D+00-0.560D-01
 Coeff:      0.122D+01
 Gap=     0.246 Goal=   None    Shift=    0.000
 RMSDP=2.34D-06 MaxDP=1.59D-04 DE=-4.31D-08 OVMax= 7.81D-05

 Cycle  14  Pass 1  IDiag  1:
 RMSU=  1.13D-06    CP:  4.60D-01  2.61D+00  1.45D+00  8.98D-01  8.44D-01
                    CP:  6.88D-01  1.54D+00  1.62D+00  2.13D+00  2.03D+00
                    CP:  1.56D+00  1.37D+00  1.50D+00
 E= -3010.53663287699     Delta-E=       -0.000000006805 Rises=F Damp=F
 DIIS: error= 1.19D-06 at cycle  14 NSaved=  14.
 NSaved=14 IEnMin=14 EnMin= -3010.53663287699     IErMin=14 ErrMin= 1.19D-06
 ErrMax= 1.19D-06  0.00D+00 EMaxC= 1.00D-01 BMatC= 2.21D-10 BMatP= 1.09D-09
 IDIUse=1 WtCom= 1.00D+00 WtEn= 0.00D+00
 Coeff-Com:  0.426D-05-0.452D-05-0.136D-04-0.918D-04-0.135D-03-0.463D-03
 Coeff-Com: -0.414D-02 0.188D-02 0.301D-01 0.230D-01-0.146D+00-0.130D+00
 Coeff-Com:  0.414D+00 0.812D+00
 Coeff:      0.426D-05-0.452D-05-0.136D-04-0.918D-04-0.135D-03-0.463D-03
 Coeff:     -0.414D-02 0.188D-02 0.301D-01 0.230D-01-0.146D+00-0.130D+00
 Coeff:      0.414D+00 0.812D+00
 Gap=     0.246 Goal=   None    Shift=    0.000
 RMSDP=5.69D-07 MaxDP=3.93D-05 DE=-6.80D-09 OVMax= 2.20D-05

 Cycle  15  Pass 1  IDiag  1:
 RMSU=  2.94D-07    CP:  4.60D-01  2.61D+00  1.45D+00  8.98D-01  8.44D-01
                    CP:  6.88D-01  1.54D+00  1.62D+00  2.14D+00  2.03D+00
                    CP:  1.55D+00  1.41D+00  1.68D+00  1.07D+00
 E= -3010.53663287767     Delta-E=       -0.000000000678 Rises=F Damp=F
 DIIS: error= 3.95D-07 at cycle  15 NSaved=  15.
 NSaved=15 IEnMin=15 EnMin= -3010.53663287767     IErMin=15 ErrMin= 3.95D-07
 ErrMax= 3.95D-07  0.00D+00 EMaxC= 1.00D-01 BMatC= 2.58D-11 BMatP= 2.21D-10
 IDIUse=1 WtCom= 1.00D+00 WtEn= 0.00D+00
 Coeff-Com:  0.173D-05-0.214D-05 0.595D-05 0.130D-04 0.833D-04 0.163D-03
 Coeff-Com: -0.298D-03-0.742D-03-0.867D-03 0.680D-02 0.345D-02-0.184D-01
 Coeff-Com: -0.114D+00 0.188D+00 0.936D+00
 Coeff:      0.173D-05-0.214D-05 0.595D-05 0.130D-04 0.833D-04 0.163D-03
 Coeff:     -0.298D-03-0.742D-03-0.867D-03 0.680D-02 0.345D-02-0.184D-01
 Coeff:     -0.114D+00 0.188D+00 0.936D+00
 Gap=     0.246 Goal=   None    Shift=    0.000
 RMSDP=3.06D-07 MaxDP=1.72D-05 DE=-6.78D-10 OVMax= 7.37D-06

 Cycle  16  Pass 1  IDiag  1:
 RMSU=  9.44D-08    CP:  4.60D-01  2.61D+00  1.45D+00  8.98D-01  8.44D-01
                    CP:  6.88D-01  1.54D+00  1.61D+00  2.14D+00  2.03D+00
                    CP:  1.54D+00  1.40D+00  1.73D+00  1.10D+00  1.52D+00
 E= -3010.53663287782     Delta-E=       -0.000000000151 Rises=F Damp=F
 DIIS: error= 9.59D-08 at cycle  16 NSaved=  16.
 NSaved=16 IEnMin=16 EnMin= -3010.53663287782     IErMin=16 ErrMin= 9.59D-08
 ErrMax= 9.59D-08  0.00D+00 EMaxC= 1.00D-01 BMatC= 2.54D-12 BMatP= 2.58D-11
 IDIUse=1 WtCom= 1.00D+00 WtEn= 0.00D+00
 Coeff-Com:  0.752D-06-0.107D-05 0.301D-05 0.120D-04 0.309D-04 0.689D-04
 Coeff-Com:  0.293D-03-0.326D-03-0.315D-02 0.125D-04 0.142D-01 0.852D-02
 Coeff-Com: -0.634D-01-0.438D-01 0.152D+00 0.935D+00
 Coeff:      0.752D-06-0.107D-05 0.301D-05 0.120D-04 0.309D-04 0.689D-04
 Coeff:      0.293D-03-0.326D-03-0.315D-02 0.125D-04 0.142D-01 0.852D-02
 Coeff:     -0.634D-01-0.438D-01 0.152D+00 0.935D+00
 Gap=     0.246 Goal=   None    Shift=    0.000
 RMSDP=9.34D-08 MaxDP=3.71D-06 DE=-1.51D-10 OVMax= 1.95D-06

 Cycle  17  Pass 1  IDiag  1:
 RMSU=  3.15D-08    CP:  4.60D-01  2.61D+00  1.45D+00  8.98D-01  8.44D-01
                    CP:  6.88D-01  1.54D+00  1.61D+00  2.14D+00  2.03D+00
                    CP:  1.53D+00  1.40D+00  1.73D+00  1.11D+00  1.69D+00
                    CP:  1.26D+00
 E= -3010.53663287780     Delta-E=        0.000000000021 Rises=F Damp=F
 DIIS: error= 5.43D-08 at cycle  17 NSaved=  17.
 NSaved=17 IEnMin=16 EnMin= -3010.53663287782     IErMin=17 ErrMin= 5.43D-08
 ErrMax= 5.43D-08  0.00D+00 EMaxC= 1.00D-01 BMatC= 4.24D-13 BMatP= 2.54D-12
 IDIUse=1 WtCom= 1.00D+00 WtEn= 0.00D+00
 Coeff-Com: -0.156D-05 0.207D-05-0.508D-06 0.155D-05-0.199D-05-0.789D-05
 Coeff-Com:  0.728D-04 0.882D-04-0.494D-03-0.592D-03 0.154D-02 0.321D-02
 Coeff-Com:  0.326D-02-0.254D-01-0.910D-01 0.135D+00 0.975D+00
 Coeff:     -0.156D-05 0.207D-05-0.508D-06 0.155D-05-0.199D-05-0.789D-05
 Coeff:      0.728D-04 0.882D-04-0.494D-03-0.592D-03 0.154D-02 0.321D-02
 Coeff:      0.326D-02-0.254D-01-0.910D-01 0.135D+00 0.975D+00
 Gap=     0.246 Goal=   None    Shift=    0.000
 RMSDP=4.44D-08 MaxDP=4.30D-06 DE= 2.09D-11 OVMax= 7.32D-07

 Cycle  18  Pass 1  IDiag  1:
 RMSU=  1.58D-08    CP:  4.60D-01  2.61D+00  1.45D+00  8.98D-01  8.44D-01
                    CP:  6.88D-01  1.54D+00  1.61D+00  2.14D+00  2.03D+00
                    CP:  1.53D+00  1.40D+00  1.73D+00  1.10D+00  1.75D+00
                    CP:  1.44D+00  1.17D+00
 E= -3010.53663287777     Delta-E=        0.000000000029 Rises=F Damp=F
 DIIS: error= 2.06D-08 at cycle  18 NSaved=  18.
 NSaved=18 IEnMin=16 EnMin= -3010.53663287782     IErMin=18 ErrMin= 2.06D-08
 ErrMax= 2.06D-08  0.00D+00 EMaxC= 1.00D-01 BMatC= 8.93D-14 BMatP= 4.24D-13
 IDIUse=1 WtCom= 1.00D+00 WtEn= 0.00D+00
 Coeff-Com: -0.557D-06 0.748D-06-0.618D-06-0.143D-05-0.630D-05-0.158D-04
 Coeff-Com: -0.152D-04 0.999D-04 0.234D-03-0.243D-03-0.149D-02-0.724D-04
 Coeff-Com:  0.110D-01-0.133D-02-0.563D-01-0.105D+00 0.312D+00 0.842D+00
 Coeff:     -0.557D-06 0.748D-06-0.618D-06-0.143D-05-0.630D-05-0.158D-04
 Coeff:     -0.152D-04 0.999D-04 0.234D-03-0.243D-03-0.149D-02-0.724D-04
 Coeff:      0.110D-01-0.133D-02-0.563D-01-0.105D+00 0.312D+00 0.842D+00
 Gap=     0.246 Goal=   None    Shift=    0.000
 RMSDP=1.86D-08 MaxDP=1.64D-06 DE= 2.91D-11 OVMax= 5.04D-07

 Cycle  19  Pass 1  IDiag  1:
 RMSU=  5.06D-09    CP:  4.60D-01  2.61D+00  1.45D+00  8.98D-01  8.44D-01
                    CP:  6.88D-01  1.54D+00  1.61D+00  2.14D+00  2.03D+00
                    CP:  1.53D+00  1.40D+00  1.73D+00  1.10D+00  1.77D+00
                    CP:  1.49D+00  1.36D+00  1.20D+00
 E= -3010.53663287784     Delta-E=       -0.000000000067 Rises=F Damp=F
 DIIS: error= 7.28D-09 at cycle  19 NSaved=  19.
 NSaved=19 IEnMin=19 EnMin= -3010.53663287784     IErMin=19 ErrMin= 7.28D-09
 ErrMax= 7.28D-09  0.00D+00 EMaxC= 1.00D-01 BMatC= 1.73D-14 BMatP= 8.93D-14
 IDIUse=1 WtCom= 1.00D+00 WtEn= 0.00D+00
 Coeff-Com: -0.166D-06 0.224D-06 0.386D-07 0.343D-06 0.177D-05 0.340D-05
 Coeff-Com: -0.754D-05-0.341D-04 0.506D-04 0.161D-03-0.816D-04-0.743D-03
 Coeff-Com: -0.179D-02 0.537D-02 0.218D-01-0.247D-01-0.226D+00 0.807D-02
 Coeff-Com:  0.122D+01
 Coeff:     -0.166D-06 0.224D-06 0.386D-07 0.343D-06 0.177D-05 0.340D-05
 Coeff:     -0.754D-05-0.341D-04 0.506D-04 0.161D-03-0.816D-04-0.743D-03
 Coeff:     -0.179D-02 0.537D-02 0.218D-01-0.247D-01-0.226D+00 0.807D-02
 Coeff:      0.122D+01
 Gap=     0.246 Goal=   None    Shift=    0.000
 RMSDP=1.07D-08 MaxDP=7.93D-07 DE=-6.73D-11 OVMax= 3.44D-07

 Cycle  20  Pass 1  IDiag  1:
 RMSU=  2.29D-09    CP:  4.60D-01  2.61D+00  1.45D+00  8.98D-01  8.44D-01
                    CP:  6.88D-01  1.54D+00  1.61D+00  2.14D+00  2.03D+00
                    CP:  1.53D+00  1.40D+00  1.73D+00  1.10D+00  1.77D+00
                    CP:  1.50D+00  1.42D+00  1.49D+00  1.80D+00
 E= -3010.53663287781     Delta-E=        0.000000000030 Rises=F Damp=F
 DIIS: error= 3.47D-09 at cycle  20 NSaved=  20.
 NSaved=20 IEnMin=19 EnMin= -3010.53663287784     IErMin=20 ErrMin= 3.47D-09
 ErrMax= 3.47D-09  0.00D+00 EMaxC= 1.00D-01 BMatC= 2.84D-15 BMatP= 1.73D-14
 IDIUse=1 WtCom= 1.00D+00 WtEn= 0.00D+00
 Large coefficients: NSaved= 20 BigCof=    0.00 CofMax=   10.00 Det=-6.05D-15
 Inversion failed.  Reducing to 19 matrices.
 Large coefficients: NSaved= 19 BigCof=    0.00 CofMax=   10.00 Det=-6.03D-15
 Inversion failed.  Reducing to 18 matrices.
 Large coefficients: NSaved= 18 BigCof=    0.00 CofMax=   10.00 Det=-6.03D-15
 Inversion failed.  Reducing to 17 matrices.
 Large coefficients: NSaved= 17 BigCof=    0.00 CofMax=   10.00 Det=-6.10D-15
 Inversion failed.  Reducing to 16 matrices.
 Large coefficients: NSaved= 16 BigCof=    0.00 CofMax=   10.00 Det=-6.15D-15
 Inversion failed.  Reducing to 15 matrices.
 Coeff-Com: -0.138D-06-0.142D-05-0.758D-05 0.190D-04 0.220D-04-0.304D-05
 Coeff-Com: -0.240D-03-0.490D-03 0.140D-02 0.815D-02 0.119D-02-0.770D-01
 Coeff-Com: -0.530D-01 0.270D+00 0.850D+00
 Coeff:     -0.138D-06-0.142D-05-0.758D-05 0.190D-04 0.220D-04-0.304D-05
 Coeff:     -0.240D-03-0.490D-03 0.140D-02 0.815D-02 0.119D-02-0.770D-01
 Coeff:     -0.530D-01 0.270D+00 0.850D+00
 Gap=     0.246 Goal=   None    Shift=    0.000
 RMSDP=4.01D-09 MaxDP=3.91D-07 DE= 3.00D-11 OVMax= 1.19D-07

 SCF Done:  E(RwB97XD) =  -3010.53663288     A.U. after   20 cycles
            NFock= 20  Conv=0.40D-08     -V/T= 2.0016
 KE= 3.005860979923D+03 PE=-8.702006410221D+03 EE= 1.910681634756D+03
 Leave Link  502 at Thu May  2 14:19:34 2024, MaxMem=   134217728 cpu:            1213.2 elap:            1213.4
 (Enter /software/gaussian/g16-c01/sse4/g16/l601.exe)
 Copying SCF densities to generalized density rwf, IOpCl= 0 IROHF=0.

 **********************************************************************

            Population analysis using the SCF Density.

 **********************************************************************

 Alpha  occ. eigenvalues -- -483.33954 -62.89012 -56.68657 -56.68153 -56.68147
 Alpha  occ. eigenvalues --  -19.46674 -19.46622 -14.86114 -10.60153 -10.59604
 Alpha  occ. eigenvalues --  -10.58275 -10.58103 -10.54300 -10.53614  -9.04842
 Alpha  occ. eigenvalues --   -6.87393  -6.85720  -6.85705  -2.97327  -2.96880
 Alpha  occ. eigenvalues --   -2.96868  -2.95528  -2.95528  -1.50339  -1.33287
 Alpha  occ. eigenvalues --   -1.23557  -1.14335  -1.13427  -1.06739  -1.01365
 Alpha  occ. eigenvalues --   -0.96386  -0.91484  -0.85592  -0.81629  -0.80946
 Alpha  occ. eigenvalues --   -0.80648  -0.78754  -0.76777  -0.76468  -0.73475
 Alpha  occ. eigenvalues --   -0.69506  -0.68520  -0.64883  -0.61782  -0.59549
 Alpha  occ. eigenvalues --   -0.57890  -0.57514  -0.56401  -0.56058
 Alpha virt. eigenvalues --   -0.31448  -0.21113  -0.18179  -0.14504  -0.13897
 Alpha virt. eigenvalues --   -0.11011  -0.09665  -0.08130  -0.07013  -0.05955
 Alpha virt. eigenvalues --   -0.04866  -0.04208  -0.02506  -0.01723  -0.01438
 Alpha virt. eigenvalues --   -0.01314   0.00050   0.00657   0.02325   0.02583
 Alpha virt. eigenvalues --    0.04123   0.04786   0.05238   0.05504   0.06679
 Alpha virt. eigenvalues --    0.07033   0.07414   0.08043   0.08498   0.09447
 Alpha virt. eigenvalues --    0.09796   0.11082   0.11288   0.11946   0.12836
 Alpha virt. eigenvalues --    0.13009   0.13264   0.13722   0.14418   0.15860
 Alpha virt. eigenvalues --    0.16434   0.17056   0.17975   0.18610   0.19607
 Alpha virt. eigenvalues --    0.20249   0.20657   0.21390   0.22186   0.23660
 Alpha virt. eigenvalues --    0.23849   0.26180   0.26824   0.27940   0.28934
 Alpha virt. eigenvalues --    0.30784   0.32789   0.33599   0.33831   0.35358
 Alpha virt. eigenvalues --    0.36603   0.37460   0.38691   0.39502   0.40857
 Alpha virt. eigenvalues --    0.43125   0.43874   0.44678   0.46463   0.47036
 Alpha virt. eigenvalues --    0.47859   0.49508   0.49594   0.50692   0.52981
 Alpha virt. eigenvalues --    0.54094   0.55383   0.57367   0.57648   0.59417
 Alpha virt. eigenvalues --    0.60279   0.61508   0.63186   0.65686   0.67423
 Alpha virt. eigenvalues --    0.70681   0.70876   0.72370   0.73405   0.73919
 Alpha virt. eigenvalues --    0.74074   0.76890   0.79271   0.81064   0.84589
 Alpha virt. eigenvalues --    0.85896   0.87088   0.90899   0.93177   0.98204
 Alpha virt. eigenvalues --    0.99807   1.01647   1.03153   1.04843   1.06333
 Alpha virt. eigenvalues --    1.08114   1.12257   1.12958   1.13579   1.17330
 Alpha virt. eigenvalues --    1.20661   1.22424   1.27424   1.32645   1.35576
 Alpha virt. eigenvalues --    1.36163   1.38240   1.42032   1.54012   1.56021
 Alpha virt. eigenvalues --    1.56713   1.59242   1.60516   1.63274   1.64832
 Alpha virt. eigenvalues --    1.67532   1.70579   1.73479   1.74570   1.78647
 Alpha virt. eigenvalues --    1.83236   1.84606   1.86517   1.91840   1.93856
 Alpha virt. eigenvalues --    1.97108   2.01184   2.02184   2.06263   2.07557
 Alpha virt. eigenvalues --    2.11666   2.13706   2.21656   2.23147   2.26760
 Alpha virt. eigenvalues --    2.32836   2.39344   2.41007   2.43782   2.52509
 Alpha virt. eigenvalues --    2.57433   2.62471   2.65199   2.68018   2.71315
 Alpha virt. eigenvalues --    2.73162   2.75928   2.76833   2.80068   2.81209
 Alpha virt. eigenvalues --    2.92270   2.97446   3.00772   3.04951   3.08171
 Alpha virt. eigenvalues --    3.14114   3.15655   3.16893   3.22032   3.26129
 Alpha virt. eigenvalues --    3.27184   3.37375   3.45845   3.49519   3.54216
 Alpha virt. eigenvalues --    3.56930   3.68476   3.73806   3.82830   3.86499
 Alpha virt. eigenvalues --    4.07028   4.07846   4.16732   4.20760   4.40698
 Alpha virt. eigenvalues --    4.44690   4.53771   4.59300   4.93184   4.96053
 Alpha virt. eigenvalues --    5.04868   5.09378   5.61591   6.14785   6.65130
 Alpha virt. eigenvalues --    7.45814   7.48190   7.58433  23.21254  23.60473
 Alpha virt. eigenvalues --   23.70533  23.77063  23.94881  24.01308  35.31050
 Alpha virt. eigenvalues --   47.91318  49.84817  49.93480 289.78988 289.81331
 Alpha virt. eigenvalues --  289.939861020.92548
          Condensed to atoms (all electrons):
               1          2          3          4          5          6
     1  C    8.204117  -3.073804   1.215731  -0.222052   0.305830   0.048519
     2  C   -3.073804  18.073727  -5.720799   0.685005  -0.032771   0.181572
     3  C    1.215731  -5.720799  19.465153  -1.579985   0.045163   0.129009
     4  C   -0.222052   0.685005  -1.579985   6.547032   0.006950  -0.017177
     5  H    0.305830  -0.032771   0.045163   0.006950   0.326806  -0.001527
     6  H    0.048519   0.181572   0.129009  -0.017177  -0.001527   0.308050
     7  H    0.020270  -0.022491   0.025339   0.315044  -0.002717  -0.000005
     8  N   -0.122406   0.472716  -1.634311   0.021406  -0.000779  -0.030668
     9  O   -0.044603   0.123843  -0.380026  -0.007808  -0.000042  -0.002346
    10  O    0.278074  -0.400547  -0.035564  -0.033782   0.000067   0.021760
    11  C    0.941134  -1.381087   2.244960  -0.360370  -0.022234   0.009820
    12  H   -0.009737   0.011183   0.016009   0.004061   0.000006  -0.000017
    13  C   -1.430075  -2.935917  -7.456276   0.918316   0.025050  -0.001977
    14  H   -0.005719   0.014171   0.016841   0.007844  -0.000021   0.000012
    15  Br  -0.038131  -0.108520  -0.256037   0.067831  -0.000225  -0.000537
               7          8          9         10         11         12
     1  C    0.020270  -0.122406  -0.044603   0.278074   0.941134  -0.009737
     2  C   -0.022491   0.472716   0.123843  -0.400547  -1.381087   0.011183
     3  C    0.025339  -1.634311  -0.380026  -0.035564   2.244960   0.016009
     4  C    0.315044   0.021406  -0.007808  -0.033782  -0.360370   0.004061
     5  H   -0.002717  -0.000779  -0.000042   0.000067  -0.022234   0.000006
     6  H   -0.000005  -0.030668  -0.002346   0.021760   0.009820  -0.000017
     7  H    0.331941  -0.000011   0.000015  -0.000012   0.030716  -0.002154
     8  N   -0.000011   7.638931   0.139590   0.096452  -0.274451   0.000158
     9  O    0.000015   0.139590   7.819520   0.010535   0.227659   0.000085
    10  O   -0.000012   0.096452   0.010535   7.869733   0.033366  -0.000003
    11  C    0.030716  -0.274451   0.227659   0.033366   8.348114   0.327397
    12  H   -0.002154   0.000158   0.000085  -0.000003   0.327397   0.311435
    13  C   -0.033316   0.796771   0.059189   0.089517  -3.951943  -0.015230
    14  H    0.000001  -0.017195   0.003548  -0.001865  -0.016181  -0.002972
    15  Br  -0.000463   0.122685  -0.040172  -0.001717  -0.002628  -0.003986
              13         14         15
     1  C   -1.430075  -0.005719  -0.038131
     2  C   -2.935917   0.014171  -0.108520
     3  C   -7.456276   0.016841  -0.256037
     4  C    0.918316   0.007844   0.067831
     5  H    0.025050  -0.000021  -0.000225
     6  H   -0.001977   0.000012  -0.000537
     7  H   -0.033316   0.000001  -0.000463
     8  N    0.796771  -0.017195   0.122685
     9  O    0.059189   0.003548  -0.040172
    10  O    0.089517  -0.001865  -0.001717
    11  C   -3.951943  -0.016181  -0.002628
    12  H   -0.015230  -0.002972  -0.003986
    13  C   19.587248   0.304128   0.336648
    14  H    0.304128   0.258279  -0.025161
    15  Br   0.336648  -0.025161  34.931015
 Mulliken charges:
               1
     1  C   -0.067149
     2  C    0.113718
     3  C   -0.095206
     4  C   -0.352315
     5  H    0.350441
     6  H    0.355511
     7  H    0.337842
     8  N   -0.208888
     9  O    0.091012
    10  O    0.073986
    11  C   -0.154272
    12  H    0.363763
    13  C   -0.292131
    14  H    0.464291
    15  Br   0.019397
 Sum of Mulliken charges =   1.00000
 Mulliken charges with hydrogens summed into heavy atoms:
               1
     1  C    0.283292
     2  C    0.469230
     3  C   -0.095206
     4  C   -0.014473
     8  N   -0.208888
     9  O    0.091012
    10  O    0.073986
    11  C    0.209491
    13  C    0.172160
    15  Br   0.019397
 Electronic spatial extent (au):  <R**2>=           3949.8815
 Charge=              1.0000 electrons
 Dipole moment (field-independent basis, Debye):
    X=              2.5612    Y=             -0.2602    Z=              2.2100  Tot=              3.3929
 Quadrupole moment (field-independent basis, Debye-Ang):
   XX=            -67.7942   YY=            -52.2002   ZZ=            -66.2151
   XY=             -1.6881   XZ=              3.5399   YZ=             -0.4409
 Traceless Quadrupole moment (field-independent basis, Debye-Ang):
   XX=             -5.7244   YY=              9.8696   ZZ=             -4.1452
   XY=             -1.6881   XZ=              3.5399   YZ=             -0.4409
 Octapole moment (field-independent basis, Debye-Ang**2):
  XXX=           -510.7575  YYY=             97.1391  ZZZ=             98.9757  XYY=           -139.4943
  XXY=             27.1978  XXZ=             44.4495  XZZ=           -141.4169  YZZ=             25.3540
  YYZ=             35.3839  XYZ=              1.5368
 Hexadecapole moment (field-independent basis, Debye-Ang**3):
 XXXX=          -3428.5486 YYYY=           -714.1816 ZZZZ=           -436.9011 XXXY=            184.9097
 XXXZ=            249.6113 YYYX=            196.1827 YYYZ=           -190.7839 ZZZX=            201.4135
 ZZZY=           -170.0309 XXYY=           -630.8514 XXZZ=           -548.4858 YYZZ=           -191.0758
 XXYZ=            -57.6492 YYXZ=             70.2556 ZZXY=             46.8053
 N-N= 7.749271626639D+02 E-N=-8.702006409869D+03  KE= 3.005860979923D+03
 No NMR shielding tensors so no spin-rotation constants.
 Leave Link  601 at Thu May  2 14:19:42 2024, MaxMem=   134217728 cpu:               7.4 elap:               7.4
 (Enter /software/gaussian/g16-c01/sse4/g16/l9999.exe)
 Unable to Open any file for archive entry.
 1\1\GINC-BHX0015\SP\RwB97XD\6-311+G(d)\C6H5Br1N1O2(1+)\BWEIGHT\02-May-
 2024\0\\#P wB97XD/6-311+G* NoSymm #P Field=Z-165\\TitleMe\\1,1\C,0,0.5
 193,1.233,-0.0319\C,0,1.9445,1.2692,-0.0367\C,0,2.6204,0.0928,-0.025\C
 ,0,-0.196,0.0301,0.001\H,0,-0.0207,2.1742,-0.0434\H,0,2.4828,2.2089,-0
 .0361\H,0,-1.2777,0.0399,0.0117\N,0,4.0921,0.0959,0.0366\O,0,4.6393,-1
 .0217,0.1446\O,0,4.6649,1.1984,-0.0233\C,0,0.4943,-1.1671,0.021\H,0,-0
 .0325,-2.1149,0.0545\C,0,1.9629,-1.2165,-0.0211\H,0,2.4436,-1.9631,0.6
 151\Br,0,2.173,-1.9491,-1.9062\\Version=ES64L-G16RevC.01\HF=-3010.5366
 329\RMSD=4.009e-09\Dipole=-3.3215443,1.1257698,2.118695\Quadrupole=-4.
 2559269,7.3378116,-3.0818848,-1.2550701,2.6318548,-0.3277957\PG=C01 [X
 (C6H5Br1N1O2)]\\@
 The archive entry for this job was punched.


 TRUTH, IN SCIENCE, CAN BE DEFINED AS THE WORKING HYPOTHESIS 
 BEST FITTED TO OPEN THE WAY TO THE NEXT BETTER ONE.

                              -- KONRAD LORENZ
 Job cpu time:       0 days  0 hours 21 minutes 25.0 seconds.
 Elapsed time:       0 days  0 hours 21 minutes 25.2 seconds.
 File lengths (MBytes):  RWF=     40 Int=      0 D2E=      0 Chk=     32 Scr=      1
 Normal termination of Gaussian 16 at Thu May  2 14:19:42 2024.
