 Entering Gaussian System, Link 0=g16
 Initial command:
 /software/gaussian/g16-c01/sse4/g16/l1.exe "/local_scratch/24665293/Gau-28838.inp" -scrdir="/local_scratch/24665293/"
 Entering Link 1 = /software/gaussian/g16-c01/sse4/g16/l1.exe PID=     28839.
  
 Copyright (c) 1988-2019, Gaussian, Inc.  All Rights Reserved.
  
 This is part of the Gaussian(R) 16 program.  It is based on
 the Gaussian(R) 09 system (copyright 2009, Gaussian, Inc.),
 the Gaussian(R) 03 system (copyright 2003, Gaussian, Inc.),
 the Gaussian(R) 98 system (copyright 1998, Gaussian, Inc.),
 the Gaussian(R) 94 system (copyright 1995, Gaussian, Inc.),
 the Gaussian 92(TM) system (copyright 1992, Gaussian, Inc.),
 the Gaussian 90(TM) system (copyright 1990, Gaussian, Inc.),
 the Gaussian 88(TM) system (copyright 1988, Gaussian, Inc.),
 the Gaussian 86(TM) system (copyright 1986, Carnegie Mellon
 University), and the Gaussian 82(TM) system (copyright 1983,
 Carnegie Mellon University). Gaussian is a federally registered
 trademark of Gaussian, Inc.
  
 This software contains proprietary and confidential information,
 including trade secrets, belonging to Gaussian, Inc.
  
 This software is provided under written license and may be
 used, copied, transmitted, or stored only in accord with that
 written license.
  
 The following legend is applicable only to US Government
 contracts under FAR:
  
                    RESTRICTED RIGHTS LEGEND
  
 Use, reproduction and disclosure by the US Government is
 subject to restrictions as set forth in subparagraphs (a)
 and (c) of the Commercial Computer Software - Restricted
 Rights clause in FAR 52.227-19.
  
 Gaussian, Inc.
 340 Quinnipiac St., Bldg. 40, Wallingford CT 06492
  
  
 ---------------------------------------------------------------
 Warning -- This program may not be used in any manner that
 competes with the business of Gaussian, Inc. or will provide
 assistance to any competitor of Gaussian, Inc.  The licensee
 of this program is prohibited from giving any competitor of
 Gaussian, Inc. access to this program.  By using this program,
 the user acknowledges that Gaussian, Inc. is engaged in the
 business of creating and licensing software in the field of
 computational chemistry and represents and warrants to the
 licensee that it is not a competitor of Gaussian, Inc. and that
 it will not use this program in any manner prohibited above.
 ---------------------------------------------------------------
  

 Cite this work as:
 Gaussian 16, Revision C.01,
 M. J. Frisch, G. W. Trucks, H. B. Schlegel, G. E. Scuseria, 
 M. A. Robb, J. R. Cheeseman, G. Scalmani, V. Barone, 
 G. A. Petersson, H. Nakatsuji, X. Li, M. Caricato, A. V. Marenich, 
 J. Bloino, B. G. Janesko, R. Gomperts, B. Mennucci, H. P. Hratchian, 
 J. V. Ortiz, A. F. Izmaylov, J. L. Sonnenberg, D. Williams-Young, 
 F. Ding, F. Lipparini, F. Egidi, J. Goings, B. Peng, A. Petrone, 
 T. Henderson, D. Ranasinghe, V. G. Zakrzewski, J. Gao, N. Rega, 
 G. Zheng, W. Liang, M. Hada, M. Ehara, K. Toyota, R. Fukuda, 
 J. Hasegawa, M. Ishida, T. Nakajima, Y. Honda, O. Kitao, H. Nakai, 
 T. Vreven, K. Throssell, J. A. Montgomery, Jr., J. E. Peralta, 
 F. Ogliaro, M. J. Bearpark, J. J. Heyd, E. N. Brothers, K. N. Kudin, 
 V. N. Staroverov, T. A. Keith, R. Kobayashi, J. Normand, 
 K. Raghavachari, A. P. Rendell, J. C. Burant, S. S. Iyengar, 
 J. Tomasi, M. Cossi, J. M. Millam, M. Klene, C. Adamo, R. Cammi, 
 J. W. Ochterski, R. L. Martin, K. Morokuma, O. Farkas, 
 J. B. Foresman, and D. J. Fox, Gaussian, Inc., Wallingford CT, 2019.
 
 ******************************************
 Gaussian 16:  ES64L-G16RevC.01  3-Jul-2019
                 2-May-2024 
 ******************************************
 %chk=geometry.chk
 %mem=1GB
 %nprocshared=12
 Will use up to   12 processors via shared memory.
 ----------------------------------------
 #P wB97XD/6-311+G* NoSymm #P Field=Y-291
 ----------------------------------------
 1/38=1,172=1/1;
 2/12=2,15=1,17=6,18=5,40=1/2;
 3/5=4,6=6,7=11,11=2,14=2,15=-291,25=1,30=1,74=-58/1,2,3;
 4//1;
 5/5=2,38=5/2;
 6/7=2,8=2,9=2,10=2,28=1/1;
 99/5=1,9=1/99;
 Leave Link    1 at Thu May  2 13:57:38 2024, MaxMem=   134217728 cpu:               1.8 elap:               1.8
 (Enter /software/gaussian/g16-c01/sse4/g16/l101.exe)
 -------
 TitleMe
 -------
 Symbolic Z-matrix:
 Charge =  1 Multiplicity = 1
 C                     0.5193    1.233    -0.0319 
 C                     1.9445    1.2692   -0.0367 
 C                     2.6204    0.0928   -0.025 
 C                    -0.196     0.0301    0.001 
 H                    -0.0207    2.1742   -0.0434 
 H                     2.4828    2.2089   -0.0361 
 H                    -1.2777    0.0399    0.0117 
 N                     4.0921    0.0959    0.0366 
 O                     4.6393   -1.0217    0.1446 
 O                     4.6649    1.1984   -0.0233 
 C                     0.4943   -1.1671    0.021 
 H                    -0.0325   -2.1149    0.0545 
 C                     1.9629   -1.2165   -0.0211 
 H                     2.4436   -1.9631    0.6151 
 Br                    2.173    -1.9491   -1.9062 
 
 ITRead=  0  0  0  0  0  0  0  0  0  0  0  0  0  0  0
 MicOpt= -1 -1 -1 -1 -1 -1 -1 -1 -1 -1 -1 -1 -1 -1 -1
 NAtoms=     15 NQM=       15 NQMF=       0 NMMI=      0 NMMIF=      0
                NMic=       0 NMicF=      0.
                    Isotopes and Nuclear Properties:
 (Nuclear quadrupole moments (NQMom) in fm**2, nuclear magnetic moments (NMagM)
  in nuclear magnetons)

  Atom         1           2           3           4           5           6           7           8           9          10
 IAtWgt=          12          12          12          12           1           1           1          14          16          16
 AtmWgt=  12.0000000  12.0000000  12.0000000  12.0000000   1.0078250   1.0078250   1.0078250  14.0030740  15.9949146  15.9949146
 NucSpn=           0           0           0           0           1           1           1           2           0           0
 AtZEff=  -0.0000000  -0.0000000  -0.0000000  -0.0000000  -0.0000000  -0.0000000  -0.0000000  -0.0000000  -0.0000000  -0.0000000
 NQMom=    0.0000000   0.0000000   0.0000000   0.0000000   0.0000000   0.0000000   0.0000000   2.0440000   0.0000000   0.0000000
 NMagM=    0.0000000   0.0000000   0.0000000   0.0000000   2.7928460   2.7928460   2.7928460   0.4037610   0.0000000   0.0000000
 AtZNuc=   6.0000000   6.0000000   6.0000000   6.0000000   1.0000000   1.0000000   1.0000000   7.0000000   8.0000000   8.0000000

  Atom        11          12          13          14          15
 IAtWgt=          12           1          12           1          79
 AtmWgt=  12.0000000   1.0078250  12.0000000   1.0078250  78.9183361
 NucSpn=           0           1           0           1           3
 AtZEff=  -0.0000000  -0.0000000  -0.0000000  -0.0000000  -0.0000000
 NQMom=    0.0000000   0.0000000   0.0000000   0.0000000  31.3000000
 NMagM=    0.0000000   2.7928460   0.0000000   2.7928460   2.1063990
 AtZNuc=   6.0000000   1.0000000   6.0000000   1.0000000  35.0000000
 Leave Link  101 at Thu May  2 13:57:40 2024, MaxMem=   134217728 cpu:               1.6 elap:               1.7
 (Enter /software/gaussian/g16-c01/sse4/g16/l202.exe)
                          Input orientation:                          
 ---------------------------------------------------------------------
 Center     Atomic      Atomic             Coordinates (Angstroms)
 Number     Number       Type             X           Y           Z
 ---------------------------------------------------------------------
      1          6           0        0.519300    1.233000   -0.031900
      2          6           0        1.944500    1.269200   -0.036700
      3          6           0        2.620400    0.092800   -0.025000
      4          6           0       -0.196000    0.030100    0.001000
      5          1           0       -0.020700    2.174200   -0.043400
      6          1           0        2.482800    2.208900   -0.036100
      7          1           0       -1.277700    0.039900    0.011700
      8          7           0        4.092100    0.095900    0.036600
      9          8           0        4.639300   -1.021700    0.144600
     10          8           0        4.664900    1.198400   -0.023300
     11          6           0        0.494300   -1.167100    0.021000
     12          1           0       -0.032500   -2.114900    0.054500
     13          6           0        1.962900   -1.216500   -0.021100
     14          1           0        2.443600   -1.963100    0.615100
     15         35           0        2.173000   -1.949100   -1.906200
 ---------------------------------------------------------------------
                    Distance matrix (angstroms):
                    1          2          3          4          5
     1  C    0.000000
     2  C    1.425668   0.000000
     3  C    2.390549   1.356796   0.000000
     4  C    1.399895   2.473566   2.817218   0.000000
     5  H    1.085168   2.163581   3.362733   2.151712   0.000000
     6  H    2.192654   1.082960   2.120598   3.453189   2.503751
     7  H    2.157452   3.449071   3.898632   1.081797   2.477564
     8  N    3.750012   2.448304   1.472992   4.288753   4.608780
     9  O    4.699917   3.541615   2.312322   4.950458   5.653735
    10  O    4.145753   2.721354   2.324292   4.999386   4.786171
    11  C    2.400813   2.835836   2.471794   1.382101   3.381369
    12  H    3.394169   3.920329   3.452266   2.151887   4.290233
    13  C    2.843264   2.485817   1.465124   2.493060   3.928360
    14  H    3.786370   3.334922   2.160489   3.364142   4.860416
    15  Br   4.046416   3.728900   2.812194   3.628609   5.028314
                    6          7          8          9         10
     6  H    0.000000
     7  H    4.341452   0.000000
     8  N    2.657047   5.370150   0.000000
     9  O    3.888434   6.012948   1.249048   0.000000
    10  O    2.404752   6.054572   1.243863   2.226587   0.000000
    11  C    3.918516   2.144043   3.813080   4.149391   4.794941
    12  H    5.003018   2.489080   4.679774   4.798846   5.748876
    13  C    3.464662   3.475788   2.501842   2.688591   3.623886
    14  H    4.222698   4.268978   2.700314   2.434893   3.916224
    15  Br   4.569706   4.420610   3.411663   3.338935   4.434144
                   11         12         13         14         15
    11  C    0.000000
    12  H    1.084880   0.000000
    13  C    1.470034   2.189625   0.000000
    14  H    2.187771   2.543302   1.092353   0.000000
    15  Br   2.672762   2.955683   2.033334   2.535818   0.000000
 Symmetry turned off by external request.
 Stoichiometry    C6H5BrNO2(1+)
 Framework group  C1[X(C6H5BrNO2)]
 Deg. of freedom    39
 Full point group                 C1      NOp   1
 Rotational constants (GHZ):           1.1632986           0.9594224           0.5957624
 Leave Link  202 at Thu May  2 13:57:41 2024, MaxMem=   134217728 cpu:               1.3 elap:               1.3
 (Enter /software/gaussian/g16-c01/sse4/g16/l301.exe)
 Standard basis: 6-311+G(d) (5D, 7F)
 Ernie: Thresh=  0.10000D-02 Tol=  0.10000D-05 Strict=F.
 The following finite field(s) will be applied:
 An electric field of              0.0000 -0.0291  0.0000
   261 basis functions,   443 primitive gaussians,   273 cartesian basis functions
    49 alpha electrons       49 beta electrons
       nuclear repulsion energy       772.8945969580 Hartrees.
 IExCor= 4639 DFT=T Ex+Corr=wB97XD ExCW=0 ScaHFX=  1.000000
 ScaDFX=  1.000000  1.000000  1.000000  1.000000 ScalE2=  1.000000  1.000000
 IRadAn=      5 IRanWt=     -1 IRanGd=            0 ICorTp=0 IEmpDi=121
 HFx  wShort=  0.000000 wLong=  0.200000 cFull=  0.222036 cShort=  0.000000 cLong=  0.777964
 DFx  wShort=  0.000000 wLong=  0.200000 cFull=  0.000000 cShort=  0.000000 cLong=  1.000000
 NAtoms=   15 NActive=   15 NUniq=   15 SFac= 1.00D+00 NAtFMM=   60 NAOKFM=F Big=F
 Integral buffers will be    131072 words long.
 Raffenetti 2 integral format.
 Two-electron integral symmetry is turned off.
 R6Disp:  Grimme-D2 Dispersion energy=       -0.0080346408 Hartrees.
 Nuclear repulsion after empirical dispersion term =      772.8865623173 Hartrees.
 Leave Link  301 at Thu May  2 13:57:42 2024, MaxMem=   134217728 cpu:               1.0 elap:               1.0
 (Enter /software/gaussian/g16-c01/sse4/g16/l302.exe)
 NPDir=0 NMtPBC=     1 NCelOv=     1 NCel=       1 NClECP=     1 NCelD=      1
         NCelK=      1 NCelE2=     1 NClLst=     1 CellRange=     0.0.
 One-electron integrals computed using PRISM.
 NBasis=   261 RedAO= T EigKep=  2.52D-06  NBF=   261
 NBsUse=   261 1.00D-06 EigRej= -1.00D+00 NBFU=   261
 Precomputing XC quadrature grid using
 IXCGrd= 4 IRadAn=           5 IRanWt=          -1 IRanGd=           0 AccXCQ= 0.00D+00.
 Generated NRdTot=       0 NPtTot=           0 NUsed=           0 NTot=          32
 NSgBfM=   273   273   273   273   273 MxSgAt=    15 MxSgA2=    15.
 Leave Link  302 at Thu May  2 13:58:04 2024, MaxMem=   134217728 cpu:              21.7 elap:              21.8
 (Enter /software/gaussian/g16-c01/sse4/g16/l303.exe)
 DipDrv:  MaxL=1.
 The nuclear repulsion energy is now       776.4246632055 hartrees.
 Leave Link  303 at Thu May  2 13:58:07 2024, MaxMem=   134217728 cpu:               3.3 elap:               3.3
 (Enter /software/gaussian/g16-c01/sse4/g16/l401.exe)
 ExpMin= 3.50D-02 ExpMax= 4.40D+05 ExpMxC= 1.51D+04 IAcc=3 IRadAn=         5 AccDes= 0.00D+00
 Harris functional with IExCor= 4639 and IRadAn=       5 diagonalized for initial guess.
 HarFok:  IExCor= 4639 AccDes= 0.00D+00 IRadAn=         5 IDoV= 1 UseB2=F ITyADJ=14
 ICtDFT=  3500011 ScaDFX=  1.000000  1.000000  1.000000  1.000000
 FoFCou: FMM=F IPFlag=           0 FMFlag=      100000 FMFlg1=           0
         NFxFlg=           0 DoJE=T BraDBF=F KetDBF=T FulRan=T
         wScrn=  0.000000 ICntrl=       500 IOpCl=  0 I1Cent=   200000004 NGrid=           0
         NMat0=    1 NMatS0=      1 NMatT0=    0 NMatD0=    1 NMtDS0=    0 NMtDT0=    0
 Symmetry not used in FoFCou.
 Harris En= -2970.96093967417    
 JPrj=0 DoOrth=F DoCkMO=F.
 Leave Link  401 at Thu May  2 13:58:39 2024, MaxMem=   134217728 cpu:              31.5 elap:              31.5
 (Enter /software/gaussian/g16-c01/sse4/g16/l502.exe)
 Two-electron integral symmetry not used.
 Closed shell SCF:
 Using DIIS extrapolation, IDIIS=  1040.
 NGot=   134217728 LenX=   134063053 LenY=   133988083
 Requested convergence on RMS density matrix=1.00D-08 within 128 cycles.
 Requested convergence on MAX density matrix=1.00D-06.
 Requested convergence on             energy=1.00D-06.
 No special actions if energy rises.
 Fock matrices will be formed incrementally for  20 cycles.

 Cycle   1  Pass 1  IDiag  1:
 FoFJK:  IHMeth= 1 ICntrl=       0 DoSepK=T KAlg= 0 I1Cent=           0 FoldK=F
 IRaf=         1 NMat=       1 IRICut=       1 DoRegI=T DoRafI=F ISym2E= 0 IDoP0=0 IntGTp=1.
 FoFCou: FMM=F IPFlag=           0 FMFlag=      100000 FMFlg1=           0
         NFxFlg=           0 DoJE=T BraDBF=F KetDBF=F FulRan=T
         wScrn=  0.000000 ICntrl=       500 IOpCl=  0 I1Cent=           0 NGrid=           0
         NMat0=    1 NMatS0=      1 NMatT0=    0 NMatD0=    1 NMtDS0=    0 NMtDT0=    0
 Symmetry not used in FoFCou.
 E= -3004.91197690761    
 DIIS: error= 2.92D-01 at cycle   1 NSaved=   1.
 NSaved= 1 IEnMin= 1 EnMin= -3004.91197690761     IErMin= 1 ErrMin= 2.92D-01
 ErrMax= 2.92D-01  0.00D+00 EMaxC= 1.00D-01 BMatC= 1.37D+01 BMatP= 1.37D+01
 IDIUse=3 WtCom= 0.00D+00 WtEn= 1.00D+00
 Coeff-Com:  0.100D+01
 Coeff-En:   0.100D+01
 Coeff:      0.100D+01
 Gap=    -1.245 Goal=   None    Shift=    0.000
 GapD=   -1.245 DampG=0.250 DampE=0.250 DampFc=0.2500 IDamp=-1.
 Damping current iteration by 2.50D-01
 RMSDP=2.92D+00 MaxDP=3.10D+02              OVMax= 8.76D-01

 Cycle   2  Pass 1  IDiag  1:
 RMSU=  5.91D-02    CP:  7.60D-01
 E= -3006.19184648545     Delta-E=       -1.279869577843 Rises=F Damp=T
 DIIS: error= 2.19D-01 at cycle   2 NSaved=   2.
 NSaved= 2 IEnMin= 2 EnMin= -3006.19184648545     IErMin= 2 ErrMin= 2.19D-01
 ErrMax= 2.19D-01  0.00D+00 EMaxC= 1.00D-01 BMatC= 5.94D+00 BMatP= 1.37D+01
 IDIUse=3 WtCom= 0.00D+00 WtEn= 1.00D+00
 Coeff-Com: -0.738D+00 0.174D+01
 Coeff-En:   0.310D+00 0.690D+00
 Coeff:      0.310D+00 0.690D+00
 Gap=     0.384 Goal=   None    Shift=    0.000
 RMSDP=2.25D+00 MaxDP=2.41D+02 DE=-1.28D+00 OVMax= 9.83D-01

 Cycle   3  Pass 1  IDiag  1:
 RMSU=  4.65D-02    CP:  1.67D-02  9.80D-01
 E= -3007.92262899116     Delta-E=       -1.730782505709 Rises=F Damp=F
 DIIS: error= 1.07D-01 at cycle   3 NSaved=   3.
 NSaved= 3 IEnMin= 3 EnMin= -3007.92262899116     IErMin= 3 ErrMin= 1.07D-01
 ErrMax= 1.07D-01  0.00D+00 EMaxC= 1.00D-01 BMatC= 4.46D+00 BMatP= 5.94D+00
 IDIUse=3 WtCom= 0.00D+00 WtEn= 1.00D+00
 EnCoef did   100 forward-backward iterations
 Coeff-Com: -0.302D-01 0.487D+00 0.544D+00
 Coeff-En:   0.335D+00 0.630D-02 0.659D+00
 Coeff:      0.335D+00 0.630D-02 0.659D+00
 Gap=     0.036 Goal=   None    Shift=    0.000
 RMSDP=1.03D-01 MaxDP=1.31D+01 DE=-1.73D+00 OVMax= 5.29D-01

 Cycle   4  Pass 1  IDiag  1:
 RMSU=  9.31D-02    CP:  2.74D-02  1.43D+00  1.22D+00
 E= -3008.36043209288     Delta-E=       -0.437803101721 Rises=F Damp=F
 DIIS: error= 1.27D-01 at cycle   4 NSaved=   4.
 NSaved= 4 IEnMin= 4 EnMin= -3008.36043209288     IErMin= 3 ErrMin= 1.07D-01
 ErrMax= 1.27D-01  0.00D+00 EMaxC= 1.00D-01 BMatC= 2.88D+00 BMatP= 4.46D+00
 IDIUse=3 WtCom= 0.00D+00 WtEn= 1.00D+00
 EnCoef did     6 forward-backward iterations
 Coeff-Com:  0.188D+00-0.673D-01 0.429D+00 0.451D+00
 Coeff-En:   0.729D-01 0.000D+00 0.456D+00 0.471D+00
 Coeff:      0.729D-01 0.000D+00 0.456D+00 0.471D+00
 Gap=     0.082 Goal=   None    Shift=    0.000
 RMSDP=7.16D-02 MaxDP=7.75D+00 DE=-4.38D-01 OVMax= 6.16D-01

 Cycle   5  Pass 1  IDiag  1:
 RMSU=  3.40D-02    CP:  1.95D-02  9.45D-01  1.01D+00  4.67D-01
 E= -3010.38673181853     Delta-E=       -2.026299725652 Rises=F Damp=F
 DIIS: error= 3.50D-02 at cycle   5 NSaved=   5.
 NSaved= 5 IEnMin= 5 EnMin= -3010.38673181853     IErMin= 5 ErrMin= 3.50D-02
 ErrMax= 3.50D-02  0.00D+00 EMaxC= 1.00D-01 BMatC= 2.86D-01 BMatP= 2.88D+00
 IDIUse=3 WtCom= 6.50D-01 WtEn= 3.50D-01
 Coeff-Com: -0.525D-01 0.627D-01 0.860D-01 0.199D+00 0.705D+00
 Coeff-En:   0.000D+00 0.000D+00 0.000D+00 0.385D-01 0.961D+00
 Coeff:     -0.341D-01 0.408D-01 0.559D-01 0.143D+00 0.795D+00
 Gap=     0.186 Goal=   None    Shift=    0.000
 RMSDP=1.92D-02 MaxDP=1.35D+00 DE=-2.03D+00 OVMax= 2.45D-01

 Cycle   6  Pass 1  IDiag  1:
 RMSU=  1.47D-02    CP:  2.00D-02  8.02D-01  1.00D+00  5.35D-01  8.17D-01
 E= -3010.46875710051     Delta-E=       -0.082025281980 Rises=F Damp=F
 DIIS: error= 4.11D-02 at cycle   6 NSaved=   6.
 NSaved= 6 IEnMin= 6 EnMin= -3010.46875710051     IErMin= 5 ErrMin= 3.50D-02
 ErrMax= 4.11D-02  0.00D+00 EMaxC= 1.00D-01 BMatC= 1.54D-01 BMatP= 2.86D-01
 IDIUse=3 WtCom= 6.50D-01 WtEn= 3.50D-01
 Coeff-Com: -0.526D-01 0.767D-01 0.212D-01-0.651D-02 0.413D+00 0.548D+00
 Coeff-En:   0.000D+00 0.000D+00 0.000D+00 0.000D+00 0.365D+00 0.635D+00
 Coeff:     -0.342D-01 0.499D-01 0.138D-01-0.423D-02 0.396D+00 0.579D+00
 Gap=     0.241 Goal=   None    Shift=    0.000
 RMSDP=1.55D-02 MaxDP=2.26D+00 DE=-8.20D-02 OVMax= 1.04D-01

 Cycle   7  Pass 1  IDiag  1:
 RMSU=  5.12D-03    CP:  1.80D-02  7.45D-01  9.29D-01  4.30D-01  8.01D-01
                    CP:  4.80D-01
 E= -3010.56640657436     Delta-E=       -0.097649473841 Rises=F Damp=F
 DIIS: error= 5.29D-03 at cycle   7 NSaved=   7.
 NSaved= 7 IEnMin= 7 EnMin= -3010.56640657436     IErMin= 7 ErrMin= 5.29D-03
 ErrMax= 5.29D-03  0.00D+00 EMaxC= 1.00D-01 BMatC= 5.72D-03 BMatP= 1.54D-01
 IDIUse=3 WtCom= 9.47D-01 WtEn= 5.29D-02
 Coeff-Com: -0.193D-01 0.294D-01-0.737D-02-0.139D-01 0.753D-01 0.219D+00
 Coeff-Com:  0.717D+00
 Coeff-En:   0.000D+00 0.000D+00 0.000D+00 0.000D+00 0.000D+00 0.000D+00
 Coeff-En:   0.100D+01
 Coeff:     -0.183D-01 0.279D-01-0.698D-02-0.131D-01 0.713D-01 0.208D+00
 Coeff:      0.732D+00
 Gap=     0.232 Goal=   None    Shift=    0.000
 RMSDP=4.17D-03 MaxDP=4.84D-01 DE=-9.76D-02 OVMax= 1.54D-02

 Cycle   8  Pass 1  IDiag  1:
 RMSU=  1.44D-03    CP:  1.87D-02  7.80D-01  9.57D-01  4.50D-01  8.16D-01
                    CP:  4.61D-01  1.12D+00
 E= -3010.56980397192     Delta-E=       -0.003397397563 Rises=F Damp=F
 DIIS: error= 2.46D-03 at cycle   8 NSaved=   8.
 NSaved= 8 IEnMin= 8 EnMin= -3010.56980397192     IErMin= 8 ErrMin= 2.46D-03
 ErrMax= 2.46D-03  0.00D+00 EMaxC= 1.00D-01 BMatC= 8.35D-04 BMatP= 5.72D-03
 IDIUse=3 WtCom= 9.75D-01 WtEn= 2.46D-02
 Coeff-Com: -0.583D-02 0.779D-02-0.369D-02-0.457D-03-0.157D-01 0.779D-02
 Coeff-Com:  0.319D+00 0.691D+00
 Coeff-En:   0.000D+00 0.000D+00 0.000D+00 0.000D+00 0.000D+00 0.000D+00
 Coeff-En:   0.278D-01 0.972D+00
 Coeff:     -0.569D-02 0.760D-02-0.360D-02-0.446D-03-0.153D-01 0.760D-02
 Coeff:      0.312D+00 0.698D+00
 Gap=     0.238 Goal=   None    Shift=    0.000
 RMSDP=2.28D-03 MaxDP=2.75D-01 DE=-3.40D-03 OVMax= 8.93D-03

 Cycle   9  Pass 1  IDiag  1:
 RMSU=  5.97D-04    CP:  1.84D-02  7.78D-01  9.47D-01  4.44D-01  7.94D-01
                    CP:  3.72D-01  1.32D+00  1.18D+00
 E= -3010.57055329151     Delta-E=       -0.000749319594 Rises=F Damp=F
 DIIS: error= 4.90D-04 at cycle   9 NSaved=   9.
 NSaved= 9 IEnMin= 9 EnMin= -3010.57055329151     IErMin= 9 ErrMin= 4.90D-04
 ErrMax= 4.90D-04  0.00D+00 EMaxC= 1.00D-01 BMatC= 6.90D-05 BMatP= 8.35D-04
 IDIUse=3 WtCom= 9.95D-01 WtEn= 4.90D-03
 Coeff-Com: -0.589D-03 0.759D-03 0.114D-03 0.995D-03-0.154D-01-0.254D-01
 Coeff-Com: -0.214D-01 0.233D+00 0.828D+00
 Coeff-En:   0.000D+00 0.000D+00 0.000D+00 0.000D+00 0.000D+00 0.000D+00
 Coeff-En:   0.000D+00 0.000D+00 0.100D+01
 Coeff:     -0.586D-03 0.755D-03 0.114D-03 0.991D-03-0.153D-01-0.253D-01
 Coeff:     -0.213D-01 0.232D+00 0.829D+00
 Gap=     0.238 Goal=   None    Shift=    0.000
 RMSDP=6.68D-04 MaxDP=5.36D-02 DE=-7.49D-04 OVMax= 3.83D-03

 Cycle  10  Pass 1  IDiag  1:
 RMSU=  1.85D-04    CP:  1.84D-02  7.83D-01  9.51D-01  4.46D-01  7.89D-01
                    CP:  3.58D-01  1.37D+00  1.35D+00  1.17D+00
 E= -3010.57063688802     Delta-E=       -0.000083596502 Rises=F Damp=F
 DIIS: error= 1.24D-04 at cycle  10 NSaved=  10.
 NSaved=10 IEnMin=10 EnMin= -3010.57063688802     IErMin=10 ErrMin= 1.24D-04
 ErrMax= 1.24D-04  0.00D+00 EMaxC= 1.00D-01 BMatC= 5.81D-06 BMatP= 6.90D-05
 IDIUse=3 WtCom= 9.99D-01 WtEn= 1.24D-03
 Coeff-Com:  0.732D-04-0.104D-03 0.270D-03-0.650D-04-0.228D-02-0.618D-02
 Coeff-Com: -0.367D-01 0.179D-01 0.263D+00 0.764D+00
 Coeff-En:   0.000D+00 0.000D+00 0.000D+00 0.000D+00 0.000D+00 0.000D+00
 Coeff-En:   0.000D+00 0.000D+00 0.000D+00 0.100D+01
 Coeff:      0.731D-04-0.104D-03 0.270D-03-0.649D-04-0.227D-02-0.618D-02
 Coeff:     -0.366D-01 0.179D-01 0.262D+00 0.765D+00
 Gap=     0.237 Goal=   None    Shift=    0.000
 RMSDP=1.79D-04 MaxDP=1.19D-02 DE=-8.36D-05 OVMax= 1.85D-03

 Cycle  11  Pass 1  IDiag  1:
 RMSU=  1.00D-04    CP:  1.84D-02  7.82D-01  9.50D-01  4.47D-01  7.88D-01
                    CP:  3.54D-01  1.39D+00  1.36D+00  1.27D+00  1.22D+00
 E= -3010.57064656451     Delta-E=       -0.000009676499 Rises=F Damp=F
 DIIS: error= 6.35D-05 at cycle  11 NSaved=  11.
 NSaved=11 IEnMin=11 EnMin= -3010.57064656451     IErMin=11 ErrMin= 6.35D-05
 ErrMax= 6.35D-05  0.00D+00 EMaxC= 1.00D-01 BMatC= 1.38D-06 BMatP= 5.81D-06
 IDIUse=1 WtCom= 1.00D+00 WtEn= 0.00D+00
 Coeff-Com:  0.188D-03-0.279D-03 0.222D-04-0.212D-03 0.141D-02 0.163D-02
 Coeff-Com: -0.390D-02-0.139D-01-0.280D-01 0.275D+00 0.768D+00
 Coeff:      0.188D-03-0.279D-03 0.222D-04-0.212D-03 0.141D-02 0.163D-02
 Coeff:     -0.390D-02-0.139D-01-0.280D-01 0.275D+00 0.768D+00
 Gap=     0.237 Goal=   None    Shift=    0.000
 RMSDP=1.56D-04 MaxDP=1.53D-02 DE=-9.68D-06 OVMax= 1.19D-03

 Cycle  12  Pass 1  IDiag  1:
 RMSU=  2.90D-05    CP:  1.85D-02  7.83D-01  9.51D-01  4.48D-01  7.88D-01
                    CP:  3.52D-01  1.39D+00  1.37D+00  1.28D+00  1.42D+00
                    CP:  1.29D+00
 E= -3010.57064954823     Delta-E=       -0.000002983712 Rises=F Damp=F
 DIIS: error= 4.18D-05 at cycle  12 NSaved=  12.
 NSaved=12 IEnMin=12 EnMin= -3010.57064954823     IErMin=12 ErrMin= 4.18D-05
 ErrMax= 4.18D-05  0.00D+00 EMaxC= 1.00D-01 BMatC= 4.04D-07 BMatP= 1.38D-06
 IDIUse=1 WtCom= 1.00D+00 WtEn= 0.00D+00
 Coeff-Com:  0.134D-03-0.194D-03-0.445D-04-0.174D-03 0.105D-02 0.241D-02
 Coeff-Com:  0.935D-02-0.459D-02-0.603D-01-0.956D-01 0.175D+00 0.973D+00
 Coeff:      0.134D-03-0.194D-03-0.445D-04-0.174D-03 0.105D-02 0.241D-02
 Coeff:      0.935D-02-0.459D-02-0.603D-01-0.956D-01 0.175D+00 0.973D+00
 Gap=     0.237 Goal=   None    Shift=    0.000
 RMSDP=5.26D-05 MaxDP=2.93D-03 DE=-2.98D-06 OVMax= 8.73D-04

 Cycle  13  Pass 1  IDiag  1:
 RMSU=  1.20D-05    CP:  1.85D-02  7.83D-01  9.51D-01  4.48D-01  7.88D-01
                    CP:  3.52D-01  1.40D+00  1.37D+00  1.29D+00  1.51D+00
                    CP:  1.60D+00  1.39D+00
 E= -3010.57065067063     Delta-E=       -0.000001122407 Rises=F Damp=F
 DIIS: error= 1.51D-05 at cycle  13 NSaved=  13.
 NSaved=13 IEnMin=13 EnMin= -3010.57065067063     IErMin=13 ErrMin= 1.51D-05
 ErrMax= 1.51D-05  0.00D+00 EMaxC= 1.00D-01 BMatC= 7.74D-08 BMatP= 4.04D-07
 IDIUse=1 WtCom= 1.00D+00 WtEn= 0.00D+00
 Coeff-Com:  0.406D-04-0.539D-04-0.126D-04-0.585D-04-0.467D-04 0.585D-03
 Coeff-Com:  0.450D-02 0.452D-02-0.420D-02-0.989D-01-0.162D+00 0.260D+00
 Coeff-Com:  0.996D+00
 Coeff:      0.406D-04-0.539D-04-0.126D-04-0.585D-04-0.467D-04 0.585D-03
 Coeff:      0.450D-02 0.452D-02-0.420D-02-0.989D-01-0.162D+00 0.260D+00
 Coeff:      0.996D+00
 Gap=     0.237 Goal=   None    Shift=    0.000
 RMSDP=2.77D-05 MaxDP=1.70D-03 DE=-1.12D-06 OVMax= 5.49D-04

 Cycle  14  Pass 1  IDiag  1:
 RMSU=  5.73D-06    CP:  1.85D-02  7.83D-01  9.51D-01  4.48D-01  7.88D-01
                    CP:  3.52D-01  1.40D+00  1.37D+00  1.29D+00  1.55D+00
                    CP:  1.76D+00  1.67D+00  1.31D+00
 E= -3010.57065095073     Delta-E=       -0.000000280101 Rises=F Damp=F
 DIIS: error= 6.93D-06 at cycle  14 NSaved=  14.
 NSaved=14 IEnMin=14 EnMin= -3010.57065095073     IErMin=14 ErrMin= 6.93D-06
 ErrMax= 6.93D-06  0.00D+00 EMaxC= 1.00D-01 BMatC= 1.42D-08 BMatP= 7.74D-08
 IDIUse=1 WtCom= 1.00D+00 WtEn= 0.00D+00
 Coeff-Com:  0.798D-05-0.108D-04-0.722D-05-0.733D-05-0.760D-04-0.482D-04
 Coeff-Com:  0.650D-04 0.184D-02 0.497D-02-0.127D-01-0.649D-01-0.945D-01
 Coeff-Com:  0.337D+00 0.828D+00
 Coeff:      0.798D-05-0.108D-04-0.722D-05-0.733D-05-0.760D-04-0.482D-04
 Coeff:      0.650D-04 0.184D-02 0.497D-02-0.127D-01-0.649D-01-0.945D-01
 Coeff:      0.337D+00 0.828D+00
 Gap=     0.237 Goal=   None    Shift=    0.000
 RMSDP=9.97D-06 MaxDP=1.11D-03 DE=-2.80D-07 OVMax= 1.65D-04

 Cycle  15  Pass 1  IDiag  1:
 RMSU=  2.12D-06    CP:  1.85D-02  7.83D-01  9.51D-01  4.48D-01  7.88D-01
                    CP:  3.52D-01  1.40D+00  1.37D+00  1.29D+00  1.55D+00
                    CP:  1.78D+00  1.74D+00  1.47D+00  1.38D+00
 E= -3010.57065098120     Delta-E=       -0.000000030465 Rises=F Damp=F
 DIIS: error= 1.48D-06 at cycle  15 NSaved=  15.
 NSaved=15 IEnMin=15 EnMin= -3010.57065098120     IErMin=15 ErrMin= 1.48D-06
 ErrMax= 1.48D-06  0.00D+00 EMaxC= 1.00D-01 BMatC= 1.03D-09 BMatP= 1.42D-08
 IDIUse=1 WtCom= 1.00D+00 WtEn= 0.00D+00
 Coeff-Com: -0.141D-05 0.102D-05-0.773D-06 0.360D-05-0.826D-05-0.770D-04
 Coeff-Com: -0.585D-03 0.323D-04 0.215D-02 0.110D-01 0.254D-02-0.702D-01
 Coeff-Com: -0.242D-01 0.219D+00 0.860D+00
 Coeff:     -0.141D-05 0.102D-05-0.773D-06 0.360D-05-0.826D-05-0.770D-04
 Coeff:     -0.585D-03 0.323D-04 0.215D-02 0.110D-01 0.254D-02-0.702D-01
 Coeff:     -0.242D-01 0.219D+00 0.860D+00
 Gap=     0.237 Goal=   None    Shift=    0.000
 RMSDP=4.16D-06 MaxDP=3.19D-04 DE=-3.05D-08 OVMax= 4.93D-05

 Cycle  16  Pass 1  IDiag  1:
 RMSU=  7.26D-07    CP:  1.85D-02  7.83D-01  9.51D-01  4.48D-01  7.88D-01
                    CP:  3.52D-01  1.40D+00  1.37D+00  1.29D+00  1.55D+00
                    CP:  1.78D+00  1.74D+00  1.54D+00  1.56D+00  1.38D+00
 E= -3010.57065098441     Delta-E=       -0.000000003213 Rises=F Damp=F
 DIIS: error= 8.42D-07 at cycle  16 NSaved=  16.
 NSaved=16 IEnMin=16 EnMin= -3010.57065098441     IErMin=16 ErrMin= 8.42D-07
 ErrMax= 8.42D-07  0.00D+00 EMaxC= 1.00D-01 BMatC= 1.47D-10 BMatP= 1.03D-09
 IDIUse=1 WtCom= 1.00D+00 WtEn= 0.00D+00
 Coeff-Com: -0.212D-06 0.384D-06 0.224D-05-0.955D-07 0.472D-05-0.127D-04
 Coeff-Com: -0.127D-03-0.283D-03-0.473D-03 0.352D-02 0.933D-02 0.283D-02
 Coeff-Com: -0.480D-01-0.629D-01 0.165D+00 0.931D+00
 Coeff:     -0.212D-06 0.384D-06 0.224D-05-0.955D-07 0.472D-05-0.127D-04
 Coeff:     -0.127D-03-0.283D-03-0.473D-03 0.352D-02 0.933D-02 0.283D-02
 Coeff:     -0.480D-01-0.629D-01 0.165D+00 0.931D+00
 Gap=     0.237 Goal=   None    Shift=    0.000
 RMSDP=2.01D-06 MaxDP=1.58D-04 DE=-3.21D-09 OVMax= 1.78D-05

 Cycle  17  Pass 1  IDiag  1:
 RMSU=  3.21D-07    CP:  1.85D-02  7.83D-01  9.51D-01  4.48D-01  7.88D-01
                    CP:  3.52D-01  1.40D+00  1.37D+00  1.29D+00  1.55D+00
                    CP:  1.78D+00  1.72D+00  1.53D+00  1.67D+00  1.62D+00
                    CP:  1.41D+00
 E= -3010.57065098495     Delta-E=       -0.000000000536 Rises=F Damp=F
 DIIS: error= 3.30D-07 at cycle  17 NSaved=  17.
 NSaved=17 IEnMin=17 EnMin= -3010.57065098495     IErMin=17 ErrMin= 3.30D-07
 ErrMax= 3.30D-07  0.00D+00 EMaxC= 1.00D-01 BMatC= 2.83D-11 BMatP= 1.47D-10
 IDIUse=1 WtCom= 1.00D+00 WtEn= 0.00D+00
 Coeff-Com: -0.212D-06 0.358D-06 0.898D-06 0.771D-07 0.265D-05 0.449D-05
 Coeff-Com:  0.532D-04-0.702D-04-0.373D-03-0.605D-03 0.137D-02 0.962D-02
 Coeff-Com: -0.106D-01-0.464D-01-0.968D-01 0.213D+00 0.931D+00
 Coeff:     -0.212D-06 0.358D-06 0.898D-06 0.771D-07 0.265D-05 0.449D-05
 Coeff:      0.532D-04-0.702D-04-0.373D-03-0.605D-03 0.137D-02 0.962D-02
 Coeff:     -0.106D-01-0.464D-01-0.968D-01 0.213D+00 0.931D+00
 Gap=     0.237 Goal=   None    Shift=    0.000
 RMSDP=1.13D-06 MaxDP=1.02D-04 DE=-5.36D-10 OVMax= 1.02D-05

 Cycle  18  Pass 1  IDiag  1:
 RMSU=  1.12D-07    CP:  1.85D-02  7.83D-01  9.51D-01  4.48D-01  7.88D-01
                    CP:  3.52D-01  1.40D+00  1.37D+00  1.29D+00  1.55D+00
                    CP:  1.78D+00  1.72D+00  1.53D+00  1.71D+00  1.75D+00
                    CP:  1.70D+00  1.51D+00
 E= -3010.57065098511     Delta-E=       -0.000000000158 Rises=F Damp=F
 DIIS: error= 1.11D-07 at cycle  18 NSaved=  18.
 NSaved=18 IEnMin=18 EnMin= -3010.57065098511     IErMin=18 ErrMin= 1.11D-07
 ErrMax= 1.11D-07  0.00D+00 EMaxC= 1.00D-01 BMatC= 4.92D-12 BMatP= 2.83D-11
 IDIUse=1 WtCom= 1.00D+00 WtEn= 0.00D+00
 Coeff-Com: -0.872D-07 0.123D-06-0.216D-06 0.517D-07 0.123D-05 0.394D-05
 Coeff-Com:  0.390D-04 0.358D-04-0.236D-04-0.704D-03-0.101D-02 0.224D-02
 Coeff-Com:  0.548D-02 0.480D-03-0.596D-01-0.107D+00 0.298D+00 0.862D+00
 Coeff:     -0.872D-07 0.123D-06-0.216D-06 0.517D-07 0.123D-05 0.394D-05
 Coeff:      0.390D-04 0.358D-04-0.236D-04-0.704D-03-0.101D-02 0.224D-02
 Coeff:      0.548D-02 0.480D-03-0.596D-01-0.107D+00 0.298D+00 0.862D+00
 Gap=     0.237 Goal=   None    Shift=    0.000
 RMSDP=5.85D-07 MaxDP=5.39D-05 DE=-1.58D-10 OVMax= 2.88D-06

 Cycle  19  Pass 1  IDiag  1:
 RMSU=  4.05D-08    CP:  1.85D-02  7.83D-01  9.51D-01  4.48D-01  7.88D-01
                    CP:  3.52D-01  1.40D+00  1.37D+00  1.29D+00  1.55D+00
                    CP:  1.78D+00  1.72D+00  1.53D+00  1.73D+00  1.78D+00
                    CP:  1.82D+00  1.79D+00  1.40D+00
 E= -3010.57065098510     Delta-E=        0.000000000009 Rises=F Damp=F
 DIIS: error= 5.67D-08 at cycle  19 NSaved=  19.
 NSaved=19 IEnMin=18 EnMin= -3010.57065098511     IErMin=19 ErrMin= 5.67D-08
 ErrMax= 5.67D-08  0.00D+00 EMaxC= 1.00D-01 BMatC= 8.26D-13 BMatP= 4.92D-12
 IDIUse=1 WtCom= 1.00D+00 WtEn= 0.00D+00
 Coeff-Com:  0.225D-07-0.224D-07-0.177D-06 0.495D-07-0.164D-06 0.679D-06
 Coeff-Com:  0.187D-05 0.186D-04 0.450D-04-0.942D-04-0.467D-03-0.108D-02
 Coeff-Com:  0.232D-02 0.690D-02-0.131D-02-0.495D-01-0.822D-01 0.207D+00
 Coeff-Com:  0.918D+00
 Coeff:      0.225D-07-0.224D-07-0.177D-06 0.495D-07-0.164D-06 0.679D-06
 Coeff:      0.187D-05 0.186D-04 0.450D-04-0.942D-04-0.467D-03-0.108D-02
 Coeff:      0.232D-02 0.690D-02-0.131D-02-0.495D-01-0.822D-01 0.207D+00
 Coeff:      0.918D+00
 Gap=     0.237 Goal=   None    Shift=    0.000
 RMSDP=2.13D-07 MaxDP=2.21D-05 DE= 8.64D-12 OVMax= 1.45D-06

 Cycle  20  Pass 1  IDiag  1:
 RMSU=  2.50D-08    CP:  1.85D-02  7.83D-01  9.51D-01  4.48D-01  7.88D-01
                    CP:  3.52D-01  1.40D+00  1.37D+00  1.29D+00  1.55D+00
                    CP:  1.78D+00  1.72D+00  1.53D+00  1.73D+00  1.79D+00
                    CP:  1.86D+00  1.90D+00  1.63D+00  1.29D+00
 E= -3010.57065098512     Delta-E=       -0.000000000023 Rises=F Damp=F
 DIIS: error= 3.17D-08 at cycle  20 NSaved=  20.
 NSaved=20 IEnMin=20 EnMin= -3010.57065098512     IErMin=20 ErrMin= 3.17D-08
 ErrMax= 3.17D-08  0.00D+00 EMaxC= 1.00D-01 BMatC= 1.46D-13 BMatP= 8.26D-13
 IDIUse=1 WtCom= 1.00D+00 WtEn= 0.00D+00
 Coeff-Com:  0.109D-07-0.221D-07-0.335D-07-0.469D-07-0.139D-06 0.221D-06
 Coeff-Com: -0.532D-05-0.276D-06 0.165D-04 0.946D-04 0.754D-04-0.521D-03
 Coeff-Com: -0.306D-03 0.127D-02 0.818D-02 0.103D-01-0.696D-01-0.925D-01
 Coeff-Com:  0.195D+00 0.948D+00
 Coeff:      0.109D-07-0.221D-07-0.335D-07-0.469D-07-0.139D-06 0.221D-06
 Coeff:     -0.532D-05-0.276D-06 0.165D-04 0.946D-04 0.754D-04-0.521D-03
 Coeff:     -0.306D-03 0.127D-02 0.818D-02 0.103D-01-0.696D-01-0.925D-01
 Coeff:      0.195D+00 0.948D+00
 Gap=     0.237 Goal=   None    Shift=    0.000
 RMSDP=8.13D-08 MaxDP=7.46D-06 DE=-2.32D-11 OVMax= 4.21D-07

 Cycle  21  Pass 1  IDiag  1:
 Restarting incremental Fock formation.
 E= -3010.57065098514     Delta-E=       -0.000000000021 Rises=F Damp=F
 DIIS: error= 1.02D-08 at cycle  21 NSaved=  20.
 NSaved=20 IEnMin=20 EnMin= -3010.57065098514     IErMin=20 ErrMin= 1.02D-08
 ErrMax= 1.02D-08  0.00D+00 EMaxC= 1.00D-01 BMatC= 1.38D-14 BMatP= 1.46D-13
 IDIUse=1 WtCom= 1.00D+00 WtEn= 0.00D+00
 Large coefficients: NSaved= 20 BigCof=    0.00 CofMax=   10.00 Det=-3.53D-14
 Inversion failed.  Reducing to 19 matrices.
 Coeff-Com:  0.783D-08-0.974D-08-0.158D-07-0.158D-08-0.638D-06-0.245D-05
 Coeff-Com: -0.474D-05 0.251D-04 0.740D-04 0.579D-04-0.403D-03-0.824D-03
 Coeff-Com:  0.659D-03 0.823D-02 0.591D-02-0.335D-01-0.111D+00 0.105D+00
 Coeff-Com:  0.103D+01
 Coeff:      0.783D-08-0.974D-08-0.158D-07-0.158D-08-0.638D-06-0.245D-05
 Coeff:     -0.474D-05 0.251D-04 0.740D-04 0.579D-04-0.403D-03-0.824D-03
 Coeff:      0.659D-03 0.823D-02 0.591D-02-0.335D-01-0.111D+00 0.105D+00
 Coeff:      0.103D+01
 Gap=     0.237 Goal=   None    Shift=    0.000
 RMSDP=2.86D-08 MaxDP=4.15D-06 DE=-2.09D-11 OVMax= 1.73D-07

 Cycle  22  Pass 1  IDiag  1:
 RMSU=  1.75D-08    CP:  1.00D+00
 E= -3010.57065098510     Delta-E=        0.000000000043 Rises=F Damp=F
 DIIS: error= 3.48D-09 at cycle  22 NSaved=  20.
 NSaved=20 IEnMin=19 EnMin= -3010.57065098514     IErMin=20 ErrMin= 3.48D-09
 ErrMax= 3.48D-09  0.00D+00 EMaxC= 1.00D-01 BMatC= 2.20D-15 BMatP= 1.38D-14
 IDIUse=1 WtCom= 1.00D+00 WtEn= 0.00D+00
 Large coefficients: NSaved= 20 BigCof=    0.00 CofMax=   10.00 Det=-5.59D-15
 Inversion failed.  Reducing to 19 matrices.
 Large coefficients: NSaved= 19 BigCof=    0.00 CofMax=   10.00 Det=-5.64D-15
 Inversion failed.  Reducing to 18 matrices.
 Large coefficients: NSaved= 18 BigCof=    0.00 CofMax=   10.00 Det=-6.05D-15
 Inversion failed.  Reducing to 17 matrices.
 Large coefficients: NSaved= 17 BigCof=    0.00 CofMax=   10.00 Det=-6.10D-15
 Inversion failed.  Reducing to 16 matrices.
 Large coefficients: NSaved= 16 BigCof=    0.00 CofMax=   10.00 Det=-6.10D-15
 Inversion failed.  Reducing to 15 matrices.
 Coeff-Com: -0.480D-06-0.875D-06 0.235D-05 0.986D-05 0.229D-04-0.269D-04
 Coeff-Com: -0.114D-03-0.132D-03 0.599D-03 0.369D-02-0.258D-02-0.309D-01
 Coeff-Com: -0.441D-01 0.213D+00 0.860D+00
 Coeff:     -0.480D-06-0.875D-06 0.235D-05 0.986D-05 0.229D-04-0.269D-04
 Coeff:     -0.114D-03-0.132D-03 0.599D-03 0.369D-02-0.258D-02-0.309D-01
 Coeff:     -0.441D-01 0.213D+00 0.860D+00
 Gap=     0.237 Goal=   None    Shift=    0.000
 RMSDP=8.98D-09 MaxDP=1.33D-06 DE= 4.32D-11 OVMax= 6.70D-08

 Cycle  23  Pass 1  IDiag  1:
 RMSU=  3.17D-09    CP:  1.00D+00  1.22D+00
 E= -3010.57065098515     Delta-E=       -0.000000000047 Rises=F Damp=F
 DIIS: error= 3.48D-09 at cycle  23 NSaved=  16.
 NSaved=16 IEnMin=16 EnMin= -3010.57065098515     IErMin=15 ErrMin= 3.48D-09
 ErrMax= 3.48D-09  0.00D+00 EMaxC= 1.00D-01 BMatC= 8.63D-16 BMatP= 2.20D-15
 IDIUse=1 WtCom= 1.00D+00 WtEn= 0.00D+00
 Large coefficients: NSaved= 16 BigCof=    0.00 CofMax=   10.00 Det=-2.01D-15
 Inversion failed.  Reducing to 15 matrices.
 Coeff-Com:  0.633D-06-0.754D-06-0.471D-05 0.113D-04 0.427D-04-0.197D-05
 Coeff-Com: -0.206D-03-0.596D-03 0.169D-02 0.419D-02 0.461D-02-0.399D-01
 Coeff-Com: -0.167D+00 0.264D+00 0.933D+00
 Coeff:      0.633D-06-0.754D-06-0.471D-05 0.113D-04 0.427D-04-0.197D-05
 Coeff:     -0.206D-03-0.596D-03 0.169D-02 0.419D-02 0.461D-02-0.399D-01
 Coeff:     -0.167D+00 0.264D+00 0.933D+00
 Gap=     0.237 Goal=   None    Shift=    0.000
 RMSDP=4.64D-09 MaxDP=5.21D-07 DE=-4.68D-11 OVMax= 6.08D-08

 SCF Done:  E(RwB97XD) =  -3010.57065099     A.U. after   23 cycles
            NFock= 23  Conv=0.46D-08     -V/T= 2.0016
 KE= 3.005869732420D+03 PE=-8.704056949717D+03 EE= 1.911191903107D+03
 Leave Link  502 at Thu May  2 14:22:22 2024, MaxMem=   134217728 cpu:            1422.6 elap:            1423.3
 (Enter /software/gaussian/g16-c01/sse4/g16/l601.exe)
 Copying SCF densities to generalized density rwf, IOpCl= 0 IROHF=0.

 **********************************************************************

            Population analysis using the SCF Density.

 **********************************************************************

 Alpha  occ. eigenvalues -- -483.36168 -62.91231 -56.70857 -56.70386 -56.70372
 Alpha  occ. eigenvalues --  -19.47131 -19.46563 -14.86074 -10.62426 -10.60057
 Alpha  occ. eigenvalues --  -10.59613 -10.57661 -10.54577 -10.53155  -9.07067
 Alpha  occ. eigenvalues --   -6.89557  -6.87994  -6.87946  -2.99505  -2.99095
 Alpha  occ. eigenvalues --   -2.99057  -2.97805  -2.97804  -1.50415  -1.33375
 Alpha  occ. eigenvalues --   -1.24626  -1.15386  -1.13943  -1.08045  -1.01991
 Alpha  occ. eigenvalues --   -0.97158  -0.91982  -0.86578  -0.82073  -0.81808
 Alpha  occ. eigenvalues --   -0.80882  -0.79662  -0.77302  -0.76484  -0.74369
 Alpha  occ. eigenvalues --   -0.69705  -0.67913  -0.65265  -0.63396  -0.61935
 Alpha  occ. eigenvalues --   -0.58788  -0.58074  -0.56479  -0.55956
 Alpha virt. eigenvalues --   -0.32293  -0.23918  -0.21647  -0.20129  -0.18707
 Alpha virt. eigenvalues --   -0.17061  -0.13936  -0.12576  -0.12101  -0.10284
 Alpha virt. eigenvalues --   -0.08122  -0.07308  -0.06016  -0.05072  -0.03525
 Alpha virt. eigenvalues --   -0.02488  -0.01692  -0.01166   0.00312   0.00845
 Alpha virt. eigenvalues --    0.02171   0.02709   0.03319   0.04404   0.05150
 Alpha virt. eigenvalues --    0.05233   0.06800   0.07958   0.08710   0.09323
 Alpha virt. eigenvalues --    0.10122   0.10843   0.11242   0.11928   0.13500
 Alpha virt. eigenvalues --    0.14198   0.14710   0.15334   0.16101   0.16288
 Alpha virt. eigenvalues --    0.17856   0.18537   0.18854   0.19509   0.21720
 Alpha virt. eigenvalues --    0.22190   0.22827   0.24549   0.24868   0.25639
 Alpha virt. eigenvalues --    0.25988   0.26538   0.27655   0.28250   0.29049
 Alpha virt. eigenvalues --    0.30536   0.32841   0.33250   0.34049   0.34523
 Alpha virt. eigenvalues --    0.36544   0.37030   0.39151   0.39991   0.42557
 Alpha virt. eigenvalues --    0.43042   0.44245   0.45065   0.46876   0.47053
 Alpha virt. eigenvalues --    0.47986   0.48628   0.49307   0.50199   0.52146
 Alpha virt. eigenvalues --    0.53126   0.53658   0.56633   0.56835   0.59202
 Alpha virt. eigenvalues --    0.60577   0.61484   0.62815   0.64658   0.67913
 Alpha virt. eigenvalues --    0.69184   0.69905   0.71697   0.73877   0.74423
 Alpha virt. eigenvalues --    0.75991   0.78034   0.80789   0.81689   0.83760
 Alpha virt. eigenvalues --    0.85940   0.86949   0.91041   0.93104   0.97825
 Alpha virt. eigenvalues --    0.99832   1.01058   1.03296   1.04195   1.05846
 Alpha virt. eigenvalues --    1.06471   1.12521   1.13095   1.13917   1.17900
 Alpha virt. eigenvalues --    1.19578   1.22990   1.27104   1.31668   1.35173
 Alpha virt. eigenvalues --    1.35452   1.37608   1.41004   1.52823   1.55205
 Alpha virt. eigenvalues --    1.56860   1.58690   1.60148   1.62834   1.63933
 Alpha virt. eigenvalues --    1.67126   1.70301   1.73360   1.73906   1.78209
 Alpha virt. eigenvalues --    1.81516   1.84638   1.87758   1.89978   1.92116
 Alpha virt. eigenvalues --    1.96479   1.99750   2.02038   2.05412   2.06441
 Alpha virt. eigenvalues --    2.10803   2.13377   2.21294   2.22818   2.27339
 Alpha virt. eigenvalues --    2.32717   2.38119   2.41298   2.43032   2.52059
 Alpha virt. eigenvalues --    2.56323   2.62196   2.65344   2.68062   2.71072
 Alpha virt. eigenvalues --    2.73231   2.75604   2.76479   2.79454   2.80683
 Alpha virt. eigenvalues --    2.91490   2.96455   3.00364   3.03163   3.07902
 Alpha virt. eigenvalues --    3.14117   3.14978   3.17291   3.21711   3.26286
 Alpha virt. eigenvalues --    3.28080   3.37116   3.45806   3.49452   3.54341
 Alpha virt. eigenvalues --    3.56379   3.68413   3.73806   3.82321   3.86014
 Alpha virt. eigenvalues --    4.04704   4.05498   4.14578   4.18501   4.38551
 Alpha virt. eigenvalues --    4.44582   4.53103   4.59406   4.93212   4.95841
 Alpha virt. eigenvalues --    5.05227   5.08820   5.61497   6.14736   6.62724
 Alpha virt. eigenvalues --    7.43524   7.45893   7.56155  23.20780  23.60112
 Alpha virt. eigenvalues --   23.68230  23.76976  23.94180  24.01855  35.31083
 Alpha virt. eigenvalues --   47.89078  49.84627  49.93289 289.76763 289.79111
 Alpha virt. eigenvalues --  289.917781020.90332
          Condensed to atoms (all electrons):
               1          2          3          4          5          6
     1  C    7.715478  -0.571842   0.094623  -0.218715   0.278687   0.032957
     2  C   -0.571842  18.340674  -2.010878   0.756181  -0.005998   0.233112
     3  C    0.094623  -2.010878  25.177830  -1.756720   0.013387   0.060748
     4  C   -0.218715   0.756181  -1.756720   7.019561   0.014378  -0.009200
     5  H    0.278687  -0.005998   0.013387   0.014378   0.240025  -0.000432
     6  H    0.032957   0.233112   0.060748  -0.009200  -0.000432   0.235367
     7  H    0.063485  -0.024096   0.021795   0.292181  -0.001680   0.000017
     8  N   -0.102234  -0.717645  -2.744450   0.052907   0.000093  -0.019085
     9  O    0.045012   0.342496   0.274969  -0.033008  -0.000013  -0.001657
    10  O    0.212047   0.010607  -0.283569  -0.016614  -0.000090   0.014159
    11  C    1.110296  -2.108861   1.005535  -0.561586  -0.012664   0.004978
    12  H   -0.050414   0.031156   0.015697   0.103173   0.000093  -0.000024
    13  C   -2.500596  -8.279183 -13.745316   0.713629   0.018151  -0.000529
    14  H    0.025340  -0.027583   0.040978  -0.020998  -0.000030   0.000086
    15  Br  -0.010268  -0.228870  -0.148020  -0.060520   0.000418  -0.000516
               7          8          9         10         11         12
     1  C    0.063485  -0.102234   0.045012   0.212047   1.110296  -0.050414
     2  C   -0.024096  -0.717645   0.342496   0.010607  -2.108861   0.031156
     3  C    0.021795  -2.744450   0.274969  -0.283569   1.005535   0.015697
     4  C    0.292181   0.052907  -0.033008  -0.016614  -0.561586   0.103173
     5  H   -0.001680   0.000093  -0.000013  -0.000090  -0.012664   0.000093
     6  H    0.000017  -0.019085  -0.001657   0.014159   0.004978  -0.000024
     7  H    0.329273  -0.000044   0.000011  -0.000001   0.001716  -0.003417
     8  N   -0.000044   8.021189  -0.173874   0.273998  -0.381175  -0.000893
     9  O    0.000011  -0.173874   8.189889   0.018156   0.319581   0.000422
    10  O   -0.000001   0.273998   0.018156   7.536776  -0.020246  -0.000062
    11  C    0.001716  -0.381175   0.319581  -0.020246  12.765026   0.173816
    12  H   -0.003417  -0.000893   0.000422  -0.000062   0.173816   0.440891
    13  C   -0.020396   2.847264  -0.874796   0.016804  -5.777243   0.040741
    14  H    0.000006  -0.019478   0.009810  -0.000622   0.249087  -0.007875
    15  Br  -0.000269   0.197459  -0.053445   0.000923  -0.598041   0.013213
              13         14         15
     1  C   -2.500596   0.025340  -0.010268
     2  C   -8.279183  -0.027583  -0.228870
     3  C  -13.745316   0.040978  -0.148020
     4  C    0.713629  -0.020998  -0.060520
     5  H    0.018151  -0.000030   0.000418
     6  H   -0.000529   0.000086  -0.000516
     7  H   -0.020396   0.000006  -0.000269
     8  N    2.847264  -0.019478   0.197459
     9  O   -0.874796   0.009810  -0.053445
    10  O    0.016804  -0.000622   0.000923
    11  C   -5.777243   0.249087  -0.598041
    12  H    0.040741  -0.007875   0.013213
    13  C   32.958942   0.099515   0.916268
    14  H    0.099515   0.394532  -0.081753
    15  Br   0.916268  -0.081753  35.085296
 Mulliken charges:
               1
     1  C   -0.123856
     2  C    0.260731
     3  C   -0.016607
     4  C   -0.274648
     5  H    0.455675
     6  H    0.450018
     7  H    0.341418
     8  N   -0.234033
     9  O   -0.063553
    10  O    0.237736
    11  C   -0.170221
    12  H    0.243483
    13  C   -0.413254
    14  H    0.338985
    15  Br  -0.031874
 Sum of Mulliken charges =   1.00000
 Mulliken charges with hydrogens summed into heavy atoms:
               1
     1  C    0.331819
     2  C    0.710749
     3  C   -0.016607
     4  C    0.066770
     8  N   -0.234033
     9  O   -0.063553
    10  O    0.237736
    11  C    0.073263
    13  C   -0.074269
    15  Br  -0.031874
 Electronic spatial extent (au):  <R**2>=           3953.3789
 Charge=              1.0000 electrons
 Dipole moment (field-independent basis, Debye):
    X=              2.3369    Y=              7.7281    Z=              0.3807  Tot=              8.0827
 Quadrupole moment (field-independent basis, Debye-Ang):
   XX=            -68.3353   YY=            -57.0748   ZZ=            -65.5036
   XY=             14.9691   XZ=             -0.1122   YZ=             -2.1725
 Traceless Quadrupole moment (field-independent basis, Debye-Ang):
   XX=             -4.6974   YY=              6.5631   ZZ=             -1.8657
   XY=             14.9691   XZ=             -0.1122   YZ=             -2.1725
 Octapole moment (field-independent basis, Debye-Ang**2):
  XXX=           -512.1264  YYY=            147.3593  ZZZ=             92.6721  XYY=           -149.2729
  XXY=             89.7822  XXZ=             30.9274  XZZ=           -140.5651  YZZ=             33.4688
  YYZ=             40.0370  XYZ=             -2.0877
 Hexadecapole moment (field-independent basis, Debye-Ang**3):
 XXXX=          -3428.9620 YYYY=           -786.0655 ZZZZ=           -425.9393 XXXY=            442.2088
 XXXZ=            195.0867 YYYX=            293.2872 YYYZ=           -220.3456 ZZZX=            189.3599
 ZZZY=           -176.5502 XXYY=           -654.5106 XXZZ=           -548.0169 YYZZ=           -208.3094
 XXYZ=            -66.4155 YYXZ=             80.8251 ZZXY=             64.0477
 N-N= 7.764246632055D+02 E-N=-8.704056949636D+03  KE= 3.005869732420D+03
 No NMR shielding tensors so no spin-rotation constants.
 Leave Link  601 at Thu May  2 14:22:30 2024, MaxMem=   134217728 cpu:               7.4 elap:               7.4
 (Enter /software/gaussian/g16-c01/sse4/g16/l9999.exe)
 Unable to Open any file for archive entry.
 1\1\GINC-BHX0009\SP\RwB97XD\6-311+G(d)\C6H5Br1N1O2(1+)\BWEIGHT\02-May-
 2024\0\\#P wB97XD/6-311+G* NoSymm #P Field=Y-291\\TitleMe\\1,1\C,0,0.5
 193,1.233,-0.0319\C,0,1.9445,1.2692,-0.0367\C,0,2.6204,0.0928,-0.025\C
 ,0,-0.196,0.0301,0.001\H,0,-0.0207,2.1742,-0.0434\H,0,2.4828,2.2089,-0
 .0361\H,0,-1.2777,0.0399,0.0117\N,0,4.0921,0.0959,0.0366\O,0,4.6393,-1
 .0217,0.1446\O,0,4.6649,1.1984,-0.0233\C,0,0.4943,-1.1671,0.021\H,0,-0
 .0325,-2.1149,0.0545\C,0,1.9629,-1.2165,-0.0211\H,0,2.4436,-1.9631,0.6
 151\Br,0,2.173,-1.9491,-1.9062\\Version=ES64L-G16RevC.01\HF=-3010.5706
 51\RMSD=4.643e-09\Dipole=-3.4098148,4.2685897,1.3990085\Quadrupole=-3.
 4923938,4.8795124,-1.3871186,11.1291328,-0.0834102,-1.6152084\PG=C01 [
 X(C6H5Br1N1O2)]\\@
 The archive entry for this job was punched.


 IT WAS AN ACT OF DESPARATION. FOR SIX YEARS I HAD STRUGGLED WITH THE
 BLACKBODY THEORY. I KNEW THE PROBLEM WAS FUNDAMENTAL, AND I KNEW
 THE ANSWER. I HAD TO FIND A THEORETICAL EXPLANATION AT ANY COST,
 EXCEPT FOR THE INVIOLABLITY OF THE TWO LAWS OF THERMODYNAMICS.
   -- MAX PLANCK, 1931
 Job cpu time:       0 days  0 hours 24 minutes 53.2 seconds.
 Elapsed time:       0 days  0 hours 24 minutes 54.0 seconds.
 File lengths (MBytes):  RWF=     40 Int=      0 D2E=      0 Chk=     32 Scr=      1
 Normal termination of Gaussian 16 at Thu May  2 14:22:30 2024.
