 Entering Gaussian System, Link 0=g16
 Initial command:
 /software/gaussian/g16-c01/sse4/g16/l1.exe "/local_scratch/24657435/Gau-22821.inp" -scrdir="/local_scratch/24657435/"
 Entering Link 1 = /software/gaussian/g16-c01/sse4/g16/l1.exe PID=     22822.
  
 Copyright (c) 1988-2019, Gaussian, Inc.  All Rights Reserved.
  
 This is part of the Gaussian(R) 16 program.  It is based on
 the Gaussian(R) 09 system (copyright 2009, Gaussian, Inc.),
 the Gaussian(R) 03 system (copyright 2003, Gaussian, Inc.),
 the Gaussian(R) 98 system (copyright 1998, Gaussian, Inc.),
 the Gaussian(R) 94 system (copyright 1995, Gaussian, Inc.),
 the Gaussian 92(TM) system (copyright 1992, Gaussian, Inc.),
 the Gaussian 90(TM) system (copyright 1990, Gaussian, Inc.),
 the Gaussian 88(TM) system (copyright 1988, Gaussian, Inc.),
 the Gaussian 86(TM) system (copyright 1986, Carnegie Mellon
 University), and the Gaussian 82(TM) system (copyright 1983,
 Carnegie Mellon University). Gaussian is a federally registered
 trademark of Gaussian, Inc.
  
 This software contains proprietary and confidential information,
 including trade secrets, belonging to Gaussian, Inc.
  
 This software is provided under written license and may be
 used, copied, transmitted, or stored only in accord with that
 written license.
  
 The following legend is applicable only to US Government
 contracts under FAR:
  
                    RESTRICTED RIGHTS LEGEND
  
 Use, reproduction and disclosure by the US Government is
 subject to restrictions as set forth in subparagraphs (a)
 and (c) of the Commercial Computer Software - Restricted
 Rights clause in FAR 52.227-19.
  
 Gaussian, Inc.
 340 Quinnipiac St., Bldg. 40, Wallingford CT 06492
  
  
 ---------------------------------------------------------------
 Warning -- This program may not be used in any manner that
 competes with the business of Gaussian, Inc. or will provide
 assistance to any competitor of Gaussian, Inc.  The licensee
 of this program is prohibited from giving any competitor of
 Gaussian, Inc. access to this program.  By using this program,
 the user acknowledges that Gaussian, Inc. is engaged in the
 business of creating and licensing software in the field of
 computational chemistry and represents and warrants to the
 licensee that it is not a competitor of Gaussian, Inc. and that
 it will not use this program in any manner prohibited above.
 ---------------------------------------------------------------
  

 Cite this work as:
 Gaussian 16, Revision C.01,
 M. J. Frisch, G. W. Trucks, H. B. Schlegel, G. E. Scuseria, 
 M. A. Robb, J. R. Cheeseman, G. Scalmani, V. Barone, 
 G. A. Petersson, H. Nakatsuji, X. Li, M. Caricato, A. V. Marenich, 
 J. Bloino, B. G. Janesko, R. Gomperts, B. Mennucci, H. P. Hratchian, 
 J. V. Ortiz, A. F. Izmaylov, J. L. Sonnenberg, D. Williams-Young, 
 F. Ding, F. Lipparini, F. Egidi, J. Goings, B. Peng, A. Petrone, 
 T. Henderson, D. Ranasinghe, V. G. Zakrzewski, J. Gao, N. Rega, 
 G. Zheng, W. Liang, M. Hada, M. Ehara, K. Toyota, R. Fukuda, 
 J. Hasegawa, M. Ishida, T. Nakajima, Y. Honda, O. Kitao, H. Nakai, 
 T. Vreven, K. Throssell, J. A. Montgomery, Jr., J. E. Peralta, 
 F. Ogliaro, M. J. Bearpark, J. J. Heyd, E. N. Brothers, K. N. Kudin, 
 V. N. Staroverov, T. A. Keith, R. Kobayashi, J. Normand, 
 K. Raghavachari, A. P. Rendell, J. C. Burant, S. S. Iyengar, 
 J. Tomasi, M. Cossi, J. M. Millam, M. Klene, C. Adamo, R. Cammi, 
 J. W. Ochterski, R. L. Martin, K. Morokuma, O. Farkas, 
 J. B. Foresman, and D. J. Fox, Gaussian, Inc., Wallingford CT, 2019.
 
 ******************************************
 Gaussian 16:  ES64L-G16RevC.01  3-Jul-2019
                 1-May-2024 
 ******************************************
 %chk=geometry.chk
 %mem=9GB
 %nprocshared=12
 Will use up to   12 processors via shared memory.
 ---------------------------------------
 #P wB97XD/6-311+G* NoSymm #P Field=X-58
 ---------------------------------------
 1/38=1,172=1/1;
 2/12=2,15=1,17=6,18=5,40=1/2;
 3/5=4,6=6,7=11,11=2,14=1,15=-58,25=1,30=1,74=-58/1,2,3;
 4//1;
 5/5=2,38=5/2;
 6/7=2,8=2,9=2,10=2,28=1/1;
 99/5=1,9=1/99;
 Leave Link    1 at Wed May  1 14:27:44 2024, MaxMem=  1207959552 cpu:               1.8 elap:               1.8
 (Enter /software/gaussian/g16-c01/sse4/g16/l101.exe)
 -------
 TitleMe
 -------
 Symbolic Z-matrix:
 Charge =  1 Multiplicity = 1
 C                     0.0295    1.3397    0.0682 
 C                     1.4348    1.2867    0.0064 
 C                     2.1118    0.0511   -0.0054 
 C                     1.4451   -1.1372    0.0312 
 C                    -0.6879    0.1682    0.11 
 H                    -0.4713    2.2984    0.0781 
 H                     2.0273    2.1965   -0.0322 
 H                     1.9897   -2.0764    0.0232 
 H                    -1.7716    0.1804    0.1582 
 N                     3.5864    0.051    -0.0675 
 O                     4.1471   -1.0597   -0.0881 
 O                     4.145     1.1639   -0.0901 
 C                    -0.0236   -1.1458    0.0835 
 H                    -0.4367   -1.8725    0.7889 
 Br                   -0.5359   -1.8697   -1.7408 
 
 ITRead=  0  0  0  0  0  0  0  0  0  0  0  0  0  0  0
 MicOpt= -1 -1 -1 -1 -1 -1 -1 -1 -1 -1 -1 -1 -1 -1 -1
 NAtoms=     15 NQM=       15 NQMF=       0 NMMI=      0 NMMIF=      0
                NMic=       0 NMicF=      0.
                    Isotopes and Nuclear Properties:
 (Nuclear quadrupole moments (NQMom) in fm**2, nuclear magnetic moments (NMagM)
  in nuclear magnetons)

  Atom         1           2           3           4           5           6           7           8           9          10
 IAtWgt=          12          12          12          12          12           1           1           1           1          14
 AtmWgt=  12.0000000  12.0000000  12.0000000  12.0000000  12.0000000   1.0078250   1.0078250   1.0078250   1.0078250  14.0030740
 NucSpn=           0           0           0           0           0           1           1           1           1           2
 AtZEff=  -0.0000000  -0.0000000  -0.0000000  -0.0000000  -0.0000000  -0.0000000  -0.0000000  -0.0000000  -0.0000000  -0.0000000
 NQMom=    0.0000000   0.0000000   0.0000000   0.0000000   0.0000000   0.0000000   0.0000000   0.0000000   0.0000000   2.0440000
 NMagM=    0.0000000   0.0000000   0.0000000   0.0000000   0.0000000   2.7928460   2.7928460   2.7928460   2.7928460   0.4037610
 AtZNuc=   6.0000000   6.0000000   6.0000000   6.0000000   6.0000000   1.0000000   1.0000000   1.0000000   1.0000000   7.0000000

  Atom        11          12          13          14          15
 IAtWgt=          16          16          12           1          79
 AtmWgt=  15.9949146  15.9949146  12.0000000   1.0078250  78.9183361
 NucSpn=           0           0           0           1           3
 AtZEff=  -0.0000000  -0.0000000  -0.0000000  -0.0000000  -0.0000000
 NQMom=    0.0000000   0.0000000   0.0000000   0.0000000  31.3000000
 NMagM=    0.0000000   0.0000000   0.0000000   2.7928460   2.1063990
 AtZNuc=   8.0000000   8.0000000   6.0000000   1.0000000  35.0000000
 Leave Link  101 at Wed May  1 14:27:46 2024, MaxMem=  1207959552 cpu:               1.3 elap:               1.3
 (Enter /software/gaussian/g16-c01/sse4/g16/l202.exe)
                          Input orientation:                          
 ---------------------------------------------------------------------
 Center     Atomic      Atomic             Coordinates (Angstroms)
 Number     Number       Type             X           Y           Z
 ---------------------------------------------------------------------
      1          6           0        0.029500    1.339700    0.068200
      2          6           0        1.434800    1.286700    0.006400
      3          6           0        2.111800    0.051100   -0.005400
      4          6           0        1.445100   -1.137200    0.031200
      5          6           0       -0.687900    0.168200    0.110000
      6          1           0       -0.471300    2.298400    0.078100
      7          1           0        2.027300    2.196500   -0.032200
      8          1           0        1.989700   -2.076400    0.023200
      9          1           0       -1.771600    0.180400    0.158200
     10          7           0        3.586400    0.051000   -0.067500
     11          8           0        4.147100   -1.059700   -0.088100
     12          8           0        4.145000    1.163900   -0.090100
     13          6           0       -0.023600   -1.145800    0.083500
     14          1           0       -0.436700   -1.872500    0.788900
     15         35           0       -0.535900   -1.869700   -1.740800
 ---------------------------------------------------------------------
                    Distance matrix (angstroms):
                    1          2          3          4          5
     1  C    0.000000
     2  C    1.407656   0.000000
     3  C    2.449874   1.408963   0.000000
     4  C    2.853126   2.424049   1.363043   0.000000
     5  C    1.374344   2.401589   2.804523   2.501993   0.000000
     6  H    1.081667   2.159142   3.424870   3.934226   2.141421
     7  H    2.176095   1.086408   2.147231   3.384750   3.392128
     8  H    3.938800   3.408612   2.131193   1.085702   3.495040
     9  H    2.143837   3.395283   3.888995   3.478413   1.084840
    10  N    3.785591   2.482297   1.475907   2.450862   4.279589
    11  O    4.768247   3.587631   2.320164   2.705743   4.992415
    12  O    4.122294   2.714696   2.319353   3.549540   4.938459
    13  C    2.486114   2.837240   2.449573   1.469656   1.472614
    14  H    3.324903   3.754379   3.290289   2.157764   2.165286
    15  Br   3.727252   4.110867   3.702891   2.756973   2.757100
                    6          7          8          9         10
     6  H    0.000000
     7  H    2.503108   0.000000
     8  H    5.019802   4.273425   0.000000
     9  H    2.486588   4.304945   4.388479   0.000000
    10  N    4.640790   2.652397   2.661486   5.364313   0.000000
    11  O    5.712624   3.885809   2.387560   6.052233   1.244373
    12  O    4.756638   2.356750   3.893289   6.002923   1.245428
    13  C    3.473180   3.923079   2.218790   2.195425   3.806210
    14  H    4.231175   4.827242   2.552506   2.528663   4.540772
    15  Br   4.548146   5.101303   3.087568   3.055498   4.845862
                   11         12         13         14         15
    11  O    0.000000
    12  O    2.223602   0.000000
    13  C    4.175117   4.768865   0.000000
    14  H    4.737193   5.566358   1.093770   0.000000
    15  Br   5.031700   5.817075   2.028436   2.531646   0.000000
 Symmetry turned off by external request.
 Stoichiometry    C6H5BrNO2(1+)
 Framework group  C1[X(C6H5BrNO2)]
 Deg. of freedom    39
 Full point group                 C1      NOp   1
 Rotational constants (GHZ):           1.8252210           0.5518633           0.4576002
 Leave Link  202 at Wed May  1 14:27:47 2024, MaxMem=  1207959552 cpu:               1.2 elap:               1.2
 (Enter /software/gaussian/g16-c01/sse4/g16/l301.exe)
 Standard basis: 6-311+G(d) (5D, 7F)
 Ernie: Thresh=  0.10000D-02 Tol=  0.10000D-05 Strict=F.
 The following finite field(s) will be applied:
 An electric field of             -0.0058  0.0000  0.0000
   261 basis functions,   443 primitive gaussians,   273 cartesian basis functions
    49 alpha electrons       49 beta electrons
       nuclear repulsion energy       739.2122215416 Hartrees.
 IExCor= 4639 DFT=T Ex+Corr=wB97XD ExCW=0 ScaHFX=  1.000000
 ScaDFX=  1.000000  1.000000  1.000000  1.000000 ScalE2=  1.000000  1.000000
 IRadAn=      5 IRanWt=     -1 IRanGd=            0 ICorTp=0 IEmpDi=121
 HFx  wShort=  0.000000 wLong=  0.200000 cFull=  0.222036 cShort=  0.000000 cLong=  0.777964
 DFx  wShort=  0.000000 wLong=  0.200000 cFull=  0.000000 cShort=  0.000000 cLong=  1.000000
 NAtoms=   15 NActive=   15 NUniq=   15 SFac= 1.00D+00 NAtFMM=   60 NAOKFM=F Big=F
 Integral buffers will be    131072 words long.
 Raffenetti 2 integral format.
 Two-electron integral symmetry is turned off.
 R6Disp:  Grimme-D2 Dispersion energy=       -0.0077368520 Hartrees.
 Nuclear repulsion after empirical dispersion term =      739.2044846896 Hartrees.
 Leave Link  301 at Wed May  1 14:27:48 2024, MaxMem=  1207959552 cpu:               1.0 elap:               1.0
 (Enter /software/gaussian/g16-c01/sse4/g16/l302.exe)
 NPDir=0 NMtPBC=     1 NCelOv=     1 NCel=       1 NClECP=     1 NCelD=      1
         NCelK=      1 NCelE2=     1 NClLst=     1 CellRange=     0.0.
 One-electron integrals computed using PRISM.
 NBasis=   261 RedAO= T EigKep=  2.35D-06  NBF=   261
 NBsUse=   261 1.00D-06 EigRej= -1.00D+00 NBFU=   261
 Precomputing XC quadrature grid using
 IXCGrd= 4 IRadAn=           5 IRanWt=          -1 IRanGd=           0 AccXCQ= 0.00D+00.
 Generated NRdTot=       0 NPtTot=           0 NUsed=           0 NTot=          32
 NSgBfM=   273   273   273   273   273 MxSgAt=    15 MxSgA2=    15.
 Leave Link  302 at Wed May  1 14:28:09 2024, MaxMem=  1207959552 cpu:              20.8 elap:              20.8
 (Enter /software/gaussian/g16-c01/sse4/g16/l303.exe)
 DipDrv:  MaxL=1.
 The nuclear repulsion energy is now       738.1097511144 hartrees.
 Leave Link  303 at Wed May  1 14:28:12 2024, MaxMem=  1207959552 cpu:               3.3 elap:               3.3
 (Enter /software/gaussian/g16-c01/sse4/g16/l401.exe)
 ExpMin= 3.50D-02 ExpMax= 4.40D+05 ExpMxC= 1.51D+04 IAcc=3 IRadAn=         5 AccDes= 0.00D+00
 Harris functional with IExCor= 4639 and IRadAn=       5 diagonalized for initial guess.
 HarFok:  IExCor= 4639 AccDes= 0.00D+00 IRadAn=         5 IDoV= 1 UseB2=F ITyADJ=14
 ICtDFT=  3500011 ScaDFX=  1.000000  1.000000  1.000000  1.000000
 FoFCou: FMM=F IPFlag=           0 FMFlag=      100000 FMFlg1=           0
         NFxFlg=           0 DoJE=T BraDBF=F KetDBF=T FulRan=T
         wScrn=  0.000000 ICntrl=       500 IOpCl=  0 I1Cent=   200000004 NGrid=           0
         NMat0=    1 NMatS0=      1 NMatT0=    0 NMatD0=    1 NMtDS0=    0 NMtDT0=    0
 Symmetry not used in FoFCou.
 Harris En= -2970.61705630814    
 JPrj=0 DoOrth=F DoCkMO=F.
 Leave Link  401 at Wed May  1 14:28:43 2024, MaxMem=  1207959552 cpu:              30.2 elap:              30.2
 (Enter /software/gaussian/g16-c01/sse4/g16/l502.exe)
 Two-electron integral symmetry not used.
 Closed shell SCF:
 Using DIIS extrapolation, IDIIS=  1040.
 NGot=  1207959552 LenX=  1207804877 LenY=  1207729907
 Requested convergence on RMS density matrix=1.00D-08 within 128 cycles.
 Requested convergence on MAX density matrix=1.00D-06.
 Requested convergence on             energy=1.00D-06.
 No special actions if energy rises.
 Fock matrices will be formed incrementally for  20 cycles.

 Cycle   1  Pass 1  IDiag  1:
 FoFJK:  IHMeth= 1 ICntrl=       0 DoSepK=T KAlg= 0 I1Cent=           0 FoldK=F
 IRaf=         1 NMat=       1 IRICut=       1 DoRegI=T DoRafI=F ISym2E= 0 IDoP0=0 IntGTp=1.
 FoFCou: FMM=F IPFlag=           0 FMFlag=      100000 FMFlg1=           0
         NFxFlg=           0 DoJE=T BraDBF=F KetDBF=F FulRan=T
         wScrn=  0.000000 ICntrl=       500 IOpCl=  0 I1Cent=           0 NGrid=           0
         NMat0=    1 NMatS0=      1 NMatT0=    0 NMatD0=    1 NMtDS0=    0 NMtDT0=    0
 Symmetry not used in FoFCou.
 E= -3008.67947237677    
 DIIS: error= 3.21D-01 at cycle   1 NSaved=   1.
 NSaved= 1 IEnMin= 1 EnMin= -3008.67947237677     IErMin= 1 ErrMin= 3.21D-01
 ErrMax= 3.21D-01  0.00D+00 EMaxC= 1.00D-01 BMatC= 1.23D+01 BMatP= 1.23D+01
 IDIUse=3 WtCom= 0.00D+00 WtEn= 1.00D+00
 Coeff-Com:  0.100D+01
 Coeff-En:   0.100D+01
 Coeff:      0.100D+01
 Gap=    -0.485 Goal=   None    Shift=    0.000
 GapD=   -0.485 DampG=0.250 DampE=0.250 DampFc=0.2500 IDamp=-1.
 Damping current iteration by 2.50D-01
 RMSDP=6.15D-02 MaxDP=3.68D+00              OVMax= 9.56D-01

 Cycle   2  Pass 1  IDiag  1:
 RMSU=  1.54D-02    CP:  9.95D-01
 E= -3008.63619185587     Delta-E=        0.043280520902 Rises=F Damp=T
 DIIS: error= 2.26D-01 at cycle   2 NSaved=   2.
 NSaved= 2 IEnMin= 1 EnMin= -3008.67947237677     IErMin= 2 ErrMin= 2.26D-01
 ErrMax= 2.26D-01  0.00D+00 EMaxC= 1.00D-01 BMatC= 5.55D+00 BMatP= 1.23D+01
 IDIUse=3 WtCom= 0.00D+00 WtEn= 1.00D+00
 Coeff-Com: -0.105D+01 0.205D+01
 Coeff-En:   0.515D+00 0.485D+00
 Coeff:      0.515D+00 0.485D+00
 Gap=     0.043 Goal=   None    Shift=    0.000
 RMSDP=3.74D-02 MaxDP=3.15D+00 DE= 4.33D-02 OVMax= 9.87D-01

 Cycle   3  Pass 1  IDiag  1:
 RMSU=  1.69D-02    CP:  6.28D-01  1.37D+00
 E= -3009.04028352607     Delta-E=       -0.404091670199 Rises=F Damp=F
 DIIS: error= 1.38D-01 at cycle   3 NSaved=   3.
 NSaved= 3 IEnMin= 3 EnMin= -3009.04028352607     IErMin= 3 ErrMin= 1.38D-01
 ErrMax= 1.38D-01  0.00D+00 EMaxC= 1.00D-01 BMatC= 2.54D+00 BMatP= 5.55D+00
 IDIUse=3 WtCom= 0.00D+00 WtEn= 1.00D+00
 EnCoef did   100 forward-backward iterations
 Coeff-Com:  0.466D+00-0.272D+00 0.806D+00
 Coeff-En:   0.451D+00 0.415D-02 0.544D+00
 Coeff:      0.451D+00 0.415D-02 0.544D+00
 Gap=     0.116 Goal=   None    Shift=    0.000
 RMSDP=2.07D-02 MaxDP=9.48D-01 DE=-4.04D-01 OVMax= 5.76D-01

 Cycle   4  Pass 1  IDiag  1:
 RMSU=  1.45D-02    CP:  6.19D-01  4.16D-01  9.22D-01
 E= -3010.46990699947     Delta-E=       -1.429623473405 Rises=F Damp=F
 DIIS: error= 1.43D-02 at cycle   4 NSaved=   4.
 NSaved= 4 IEnMin= 4 EnMin= -3010.46990699947     IErMin= 4 ErrMin= 1.43D-02
 ErrMax= 1.43D-02  0.00D+00 EMaxC= 1.00D-01 BMatC= 6.23D-02 BMatP= 2.54D+00
 IDIUse=3 WtCom= 8.57D-01 WtEn= 1.43D-01
 Coeff-Com:  0.806D-01-0.537D-01 0.784D-01 0.895D+00
 Coeff-En:   0.000D+00 0.000D+00 0.000D+00 0.100D+01
 Coeff:      0.690D-01-0.460D-01 0.671D-01 0.910D+00
 Gap=     0.233 Goal=   None    Shift=    0.000
 RMSDP=1.10D-02 MaxDP=6.84D-01 DE=-1.43D+00 OVMax= 9.25D-02

 Cycle   5  Pass 1  IDiag  1:
 RMSU=  5.82D-03    CP:  5.38D-01  5.58D-01  9.20D-01  6.25D-01
 E= -3010.50036835031     Delta-E=       -0.030461350836 Rises=F Damp=F
 DIIS: error= 1.74D-02 at cycle   5 NSaved=   5.
 NSaved= 5 IEnMin= 5 EnMin= -3010.50036835031     IErMin= 4 ErrMin= 1.43D-02
 ErrMax= 1.74D-02  0.00D+00 EMaxC= 1.00D-01 BMatC= 3.76D-02 BMatP= 6.23D-02
 IDIUse=3 WtCom= 8.26D-01 WtEn= 1.74D-01
 Coeff-Com: -0.532D-04 0.674D-02-0.215D-01 0.440D+00 0.575D+00
 Coeff-En:   0.000D+00 0.000D+00 0.000D+00 0.305D+00 0.695D+00
 Coeff:     -0.439D-04 0.557D-02-0.178D-01 0.416D+00 0.596D+00
 Gap=     0.216 Goal=   None    Shift=    0.000
 RMSDP=4.23D-03 MaxDP=2.05D-01 DE=-3.05D-02 OVMax= 4.77D-02

 Cycle   6  Pass 1  IDiag  1:
 RMSU=  1.71D-03    CP:  5.51D-01  4.26D-01  8.82D-01  8.12D-01  7.85D-01
 E= -3010.53324740724     Delta-E=       -0.032879056936 Rises=F Damp=F
 DIIS: error= 4.20D-03 at cycle   6 NSaved=   6.
 NSaved= 6 IEnMin= 6 EnMin= -3010.53324740724     IErMin= 6 ErrMin= 4.20D-03
 ErrMax= 4.20D-03  0.00D+00 EMaxC= 1.00D-01 BMatC= 2.31D-03 BMatP= 3.76D-02
 IDIUse=3 WtCom= 9.58D-01 WtEn= 4.20D-02
 Coeff-Com: -0.285D-02 0.616D-02-0.109D-01 0.159D+00 0.289D+00 0.559D+00
 Coeff-En:   0.000D+00 0.000D+00 0.000D+00 0.000D+00 0.000D+00 0.100D+01
 Coeff:     -0.273D-02 0.590D-02-0.105D-01 0.153D+00 0.277D+00 0.577D+00
 Gap=     0.229 Goal=   None    Shift=    0.000
 RMSDP=9.48D-04 MaxDP=4.57D-02 DE=-3.29D-02 OVMax= 1.05D-02

 Cycle   7  Pass 1  IDiag  1:
 RMSU=  5.75D-04    CP:  5.47D-01  4.34D-01  8.75D-01  7.74D-01  8.34D-01
                    CP:  1.07D+00
 E= -3010.53498898120     Delta-E=       -0.001741573954 Rises=F Damp=F
 DIIS: error= 1.72D-03 at cycle   7 NSaved=   7.
 NSaved= 7 IEnMin= 7 EnMin= -3010.53498898120     IErMin= 7 ErrMin= 1.72D-03
 ErrMax= 1.72D-03  0.00D+00 EMaxC= 1.00D-01 BMatC= 2.06D-04 BMatP= 2.31D-03
 IDIUse=3 WtCom= 9.83D-01 WtEn= 1.72D-02
 Coeff-Com: -0.673D-02 0.851D-02-0.313D-02-0.185D-01-0.456D-02 0.201D+00
 Coeff-Com:  0.823D+00
 Coeff-En:   0.000D+00 0.000D+00 0.000D+00 0.000D+00 0.000D+00 0.000D+00
 Coeff-En:   0.100D+01
 Coeff:     -0.662D-02 0.837D-02-0.308D-02-0.181D-01-0.448D-02 0.198D+00
 Coeff:      0.826D+00
 Gap=     0.233 Goal=   None    Shift=    0.000
 RMSDP=3.99D-04 MaxDP=2.47D-02 DE=-1.74D-03 OVMax= 1.09D-02

 Cycle   8  Pass 1  IDiag  1:
 RMSU=  2.53D-04    CP:  5.49D-01  4.49D-01  8.76D-01  7.67D-01  8.55D-01
                    CP:  1.09D+00  1.09D+00
 E= -3010.53532511902     Delta-E=       -0.000336137822 Rises=F Damp=F
 DIIS: error= 4.60D-04 at cycle   8 NSaved=   8.
 NSaved= 8 IEnMin= 8 EnMin= -3010.53532511902     IErMin= 8 ErrMin= 4.60D-04
 ErrMax= 4.60D-04  0.00D+00 EMaxC= 1.00D-01 BMatC= 4.35D-05 BMatP= 2.06D-04
 IDIUse=3 WtCom= 9.95D-01 WtEn= 4.60D-03
 Coeff-Com: -0.499D-02 0.651D-02-0.112D-02-0.166D-01-0.219D-01 0.208D-01
 Coeff-Com:  0.309D+00 0.708D+00
 Coeff-En:   0.000D+00 0.000D+00 0.000D+00 0.000D+00 0.000D+00 0.000D+00
 Coeff-En:   0.000D+00 0.100D+01
 Coeff:     -0.497D-02 0.648D-02-0.112D-02-0.165D-01-0.218D-01 0.208D-01
 Coeff:      0.308D+00 0.709D+00
 Gap=     0.235 Goal=   None    Shift=    0.000
 RMSDP=1.71D-04 MaxDP=1.03D-02 DE=-3.36D-04 OVMax= 4.86D-03

 Cycle   9  Pass 1  IDiag  1:
 RMSU=  9.41D-05    CP:  5.49D-01  4.53D-01  8.77D-01  7.61D-01  8.55D-01
                    CP:  1.11D+00  1.20D+00  1.20D+00
 E= -3010.53538376490     Delta-E=       -0.000058645882 Rises=F Damp=F
 DIIS: error= 4.09D-04 at cycle   9 NSaved=   9.
 NSaved= 9 IEnMin= 9 EnMin= -3010.53538376490     IErMin= 9 ErrMin= 4.09D-04
 ErrMax= 4.09D-04  0.00D+00 EMaxC= 1.00D-01 BMatC= 2.34D-05 BMatP= 4.35D-05
 IDIUse=3 WtCom= 9.96D-01 WtEn= 4.09D-03
 Coeff-Com: -0.326D-02 0.447D-02-0.479D-03-0.352D-02-0.982D-02-0.359D-01
 Coeff-Com: -0.144D-03 0.439D+00 0.610D+00
 Coeff-En:   0.000D+00 0.000D+00 0.000D+00 0.000D+00 0.000D+00 0.000D+00
 Coeff-En:   0.000D+00 0.000D+00 0.100D+01
 Coeff:     -0.325D-02 0.446D-02-0.477D-03-0.350D-02-0.978D-02-0.358D-01
 Coeff:     -0.144D-03 0.437D+00 0.611D+00
 Gap=     0.235 Goal=   None    Shift=    0.000
 RMSDP=1.20D-04 MaxDP=5.83D-03 DE=-5.86D-05 OVMax= 3.44D-03

 Cycle  10  Pass 1  IDiag  1:
 RMSU=  5.09D-05    CP:  5.49D-01  4.56D-01  8.77D-01  7.57D-01  8.57D-01
                    CP:  1.12D+00  1.26D+00  1.44D+00  1.04D+00
 E= -3010.53541051399     Delta-E=       -0.000026749090 Rises=F Damp=F
 DIIS: error= 2.09D-04 at cycle  10 NSaved=  10.
 NSaved=10 IEnMin=10 EnMin= -3010.53541051399     IErMin=10 ErrMin= 2.09D-04
 ErrMax= 2.09D-04  0.00D+00 EMaxC= 1.00D-01 BMatC= 7.62D-06 BMatP= 2.34D-05
 IDIUse=3 WtCom= 9.98D-01 WtEn= 2.09D-03
 Coeff-Com: -0.151D-02 0.223D-02-0.293D-03 0.649D-02 0.532D-02-0.275D-01
 Coeff-Com: -0.110D+00-0.370D-01 0.370D+00 0.792D+00
 Coeff-En:   0.000D+00 0.000D+00 0.000D+00 0.000D+00 0.000D+00 0.000D+00
 Coeff-En:   0.000D+00 0.000D+00 0.000D+00 0.100D+01
 Coeff:     -0.151D-02 0.223D-02-0.293D-03 0.648D-02 0.531D-02-0.275D-01
 Coeff:     -0.110D+00-0.369D-01 0.369D+00 0.793D+00
 Gap=     0.236 Goal=   None    Shift=    0.000
 RMSDP=9.32D-05 MaxDP=4.31D-03 DE=-2.67D-05 OVMax= 3.05D-03

 Cycle  11  Pass 1  IDiag  1:
 RMSU=  2.49D-05    CP:  5.49D-01  4.59D-01  8.79D-01  7.54D-01  8.58D-01
                    CP:  1.12D+00  1.31D+00  1.58D+00  1.44D+00  1.28D+00
 E= -3010.53542247839     Delta-E=       -0.000011964399 Rises=F Damp=F
 DIIS: error= 5.71D-05 at cycle  11 NSaved=  11.
 NSaved=11 IEnMin=11 EnMin= -3010.53542247839     IErMin=11 ErrMin= 5.71D-05
 ErrMax= 5.71D-05  0.00D+00 EMaxC= 1.00D-01 BMatC= 1.16D-06 BMatP= 7.62D-06
 IDIUse=1 WtCom= 1.00D+00 WtEn= 0.00D+00
 Coeff-Com: -0.419D-03 0.653D-03-0.881D-04 0.325D-02 0.413D-02 0.965D-03
 Coeff-Com: -0.240D-01-0.113D+00-0.439D-01 0.219D+00 0.954D+00
 Coeff:     -0.419D-03 0.653D-03-0.881D-04 0.325D-02 0.413D-02 0.965D-03
 Coeff:     -0.240D-01-0.113D+00-0.439D-01 0.219D+00 0.954D+00
 Gap=     0.236 Goal=   None    Shift=    0.000
 RMSDP=4.45D-05 MaxDP=2.43D-03 DE=-1.20D-05 OVMax= 1.70D-03

 Cycle  12  Pass 1  IDiag  1:
 RMSU=  1.24D-05    CP:  5.49D-01  4.60D-01  8.79D-01  7.52D-01  8.58D-01
                    CP:  1.12D+00  1.32D+00  1.65D+00  1.60D+00  1.58D+00
                    CP:  1.23D+00
 E= -3010.53542516638     Delta-E=       -0.000002687991 Rises=F Damp=F
 DIIS: error= 2.90D-05 at cycle  12 NSaved=  12.
 NSaved=12 IEnMin=12 EnMin= -3010.53542516638     IErMin=12 ErrMin= 2.90D-05
 ErrMax= 2.90D-05  0.00D+00 EMaxC= 1.00D-01 BMatC= 1.50D-07 BMatP= 1.16D-06
 IDIUse=1 WtCom= 1.00D+00 WtEn= 0.00D+00
 Coeff-Com: -0.574D-04 0.769D-04 0.457D-04-0.126D-03 0.120D-03 0.567D-02
 Coeff-Com:  0.148D-01-0.113D-01-0.725D-01-0.986D-01 0.244D+00 0.918D+00
 Coeff:     -0.574D-04 0.769D-04 0.457D-04-0.126D-03 0.120D-03 0.567D-02
 Coeff:      0.148D-01-0.113D-01-0.725D-01-0.986D-01 0.244D+00 0.918D+00
 Gap=     0.236 Goal=   None    Shift=    0.000
 RMSDP=1.26D-05 MaxDP=7.08D-04 DE=-2.69D-06 OVMax= 5.87D-04

 Cycle  13  Pass 1  IDiag  1:
 RMSU=  4.67D-06    CP:  5.49D-01  4.60D-01  8.79D-01  7.52D-01  8.58D-01
                    CP:  1.12D+00  1.33D+00  1.67D+00  1.65D+00  1.67D+00
                    CP:  1.42D+00  1.16D+00
 E= -3010.53542554940     Delta-E=       -0.000000383020 Rises=F Damp=F
 DIIS: error= 8.43D-06 at cycle  13 NSaved=  13.
 NSaved=13 IEnMin=13 EnMin= -3010.53542554940     IErMin=13 ErrMin= 8.43D-06
 ErrMax= 8.43D-06  0.00D+00 EMaxC= 1.00D-01 BMatC= 1.76D-08 BMatP= 1.50D-07
 IDIUse=1 WtCom= 1.00D+00 WtEn= 0.00D+00
 Coeff-Com:  0.803D-05-0.236D-04 0.327D-05-0.425D-03-0.338D-03 0.243D-02
 Coeff-Com:  0.821D-02 0.114D-01-0.220D-01-0.675D-01-0.376D-01 0.316D+00
 Coeff-Com:  0.790D+00
 Coeff:      0.803D-05-0.236D-04 0.327D-05-0.425D-03-0.338D-03 0.243D-02
 Coeff:      0.821D-02 0.114D-01-0.220D-01-0.675D-01-0.376D-01 0.316D+00
 Coeff:      0.790D+00
 Gap=     0.236 Goal=   None    Shift=    0.000
 RMSDP=4.23D-06 MaxDP=2.67D-04 DE=-3.83D-07 OVMax= 2.19D-04

 Cycle  14  Pass 1  IDiag  1:
 RMSU=  1.72D-06    CP:  5.49D-01  4.60D-01  8.79D-01  7.52D-01  8.58D-01
                    CP:  1.12D+00  1.32D+00  1.67D+00  1.65D+00  1.70D+00
                    CP:  1.45D+00  1.35D+00  1.23D+00
 E= -3010.53542560382     Delta-E=       -0.000000054421 Rises=F Damp=F
 DIIS: error= 3.30D-06 at cycle  14 NSaved=  14.
 NSaved=14 IEnMin=14 EnMin= -3010.53542560382     IErMin=14 ErrMin= 3.30D-06
 ErrMax= 3.30D-06  0.00D+00 EMaxC= 1.00D-01 BMatC= 2.78D-09 BMatP= 1.76D-08
 IDIUse=1 WtCom= 1.00D+00 WtEn= 0.00D+00
 Coeff-Com:  0.195D-04-0.309D-04-0.162D-04-0.136D-03-0.122D-03-0.184D-03
 Coeff-Com: -0.474D-03 0.507D-02 0.551D-02-0.431D-02-0.462D-01-0.755D-01
 Coeff-Com:  0.229D+00 0.888D+00
 Coeff:      0.195D-04-0.309D-04-0.162D-04-0.136D-03-0.122D-03-0.184D-03
 Coeff:     -0.474D-03 0.507D-02 0.551D-02-0.431D-02-0.462D-01-0.755D-01
 Coeff:      0.229D+00 0.888D+00
 Gap=     0.236 Goal=   None    Shift=    0.000
 RMSDP=2.65D-06 MaxDP=1.67D-04 DE=-5.44D-08 OVMax= 1.18D-04

 Cycle  15  Pass 1  IDiag  1:
 RMSU=  1.16D-06    CP:  5.49D-01  4.60D-01  8.79D-01  7.52D-01  8.59D-01
                    CP:  1.12D+00  1.33D+00  1.67D+00  1.66D+00  1.70D+00
                    CP:  1.46D+00  1.40D+00  1.50D+00  1.07D+00
 E= -3010.53542561453     Delta-E=       -0.000000010714 Rises=F Damp=F
 DIIS: error= 1.67D-06 at cycle  15 NSaved=  15.
 NSaved=15 IEnMin=15 EnMin= -3010.53542561453     IErMin=15 ErrMin= 1.67D-06
 ErrMax= 1.67D-06  0.00D+00 EMaxC= 1.00D-01 BMatC= 9.90D-10 BMatP= 2.78D-09
 IDIUse=1 WtCom= 1.00D+00 WtEn= 0.00D+00
 Coeff-Com:  0.156D-04-0.209D-04-0.220D-05 0.231D-04-0.138D-04-0.584D-03
 Coeff-Com: -0.170D-02 0.927D-03 0.653D-02 0.100D-01-0.698D-02-0.779D-01
 Coeff-Com: -0.362D-01 0.291D+00 0.815D+00
 Coeff:      0.156D-04-0.209D-04-0.220D-05 0.231D-04-0.138D-04-0.584D-03
 Coeff:     -0.170D-02 0.927D-03 0.653D-02 0.100D-01-0.698D-02-0.779D-01
 Coeff:     -0.362D-01 0.291D+00 0.815D+00
 Gap=     0.236 Goal=   None    Shift=    0.000
 RMSDP=9.35D-07 MaxDP=7.31D-05 DE=-1.07D-08 OVMax= 3.03D-05

 Cycle  16  Pass 1  IDiag  1:
 RMSU=  4.15D-07    CP:  5.49D-01  4.60D-01  8.79D-01  7.52D-01  8.59D-01
                    CP:  1.12D+00  1.33D+00  1.68D+00  1.66D+00  1.70D+00
                    CP:  1.46D+00  1.41D+00  1.58D+00  1.20D+00  1.17D+00
 E= -3010.53542561662     Delta-E=       -0.000000002090 Rises=F Damp=F
 DIIS: error= 7.85D-07 at cycle  16 NSaved=  16.
 NSaved=16 IEnMin=16 EnMin= -3010.53542561662     IErMin=16 ErrMin= 7.85D-07
 ErrMax= 7.85D-07  0.00D+00 EMaxC= 1.00D-01 BMatC= 2.09D-10 BMatP= 9.90D-10
 IDIUse=1 WtCom= 1.00D+00 WtEn= 0.00D+00
 Coeff-Com:  0.871D-05-0.111D-04 0.662D-05 0.326D-04 0.718D-05-0.185D-03
 Coeff-Com: -0.546D-03-0.884D-03 0.607D-03 0.389D-02 0.112D-01-0.452D-02
 Coeff-Com: -0.549D-01-0.137D+00 0.193D+00 0.990D+00
 Coeff:      0.871D-05-0.111D-04 0.662D-05 0.326D-04 0.718D-05-0.185D-03
 Coeff:     -0.546D-03-0.884D-03 0.607D-03 0.389D-02 0.112D-01-0.452D-02
 Coeff:     -0.549D-01-0.137D+00 0.193D+00 0.990D+00
 Gap=     0.236 Goal=   None    Shift=    0.000
 RMSDP=7.08D-07 MaxDP=4.12D-05 DE=-2.09D-09 OVMax= 2.54D-05

 Cycle  17  Pass 1  IDiag  1:
 RMSU=  1.90D-07    CP:  5.49D-01  4.60D-01  8.79D-01  7.52D-01  8.59D-01
                    CP:  1.12D+00  1.33D+00  1.68D+00  1.66D+00  1.70D+00
                    CP:  1.47D+00  1.41D+00  1.64D+00  1.23D+00  1.42D+00
                    CP:  1.23D+00
 E= -3010.53542561727     Delta-E=       -0.000000000645 Rises=F Damp=F
 DIIS: error= 3.39D-07 at cycle  17 NSaved=  17.
 NSaved=17 IEnMin=17 EnMin= -3010.53542561727     IErMin=17 ErrMin= 3.39D-07
 ErrMax= 3.39D-07  0.00D+00 EMaxC= 1.00D-01 BMatC= 2.78D-11 BMatP= 2.09D-10
 IDIUse=1 WtCom= 1.00D+00 WtEn= 0.00D+00
 Coeff-Com:  0.144D-05-0.201D-05 0.128D-05-0.610D-05 0.701D-05 0.111D-03
 Coeff-Com:  0.281D-03-0.408D-03-0.130D-02-0.141D-02 0.233D-02 0.121D-01
 Coeff-Com:  0.580D-02-0.742D-01-0.166D+00 0.159D+00 0.106D+01
 Coeff:      0.144D-05-0.201D-05 0.128D-05-0.610D-05 0.701D-05 0.111D-03
 Coeff:      0.281D-03-0.408D-03-0.130D-02-0.141D-02 0.233D-02 0.121D-01
 Coeff:      0.580D-02-0.742D-01-0.166D+00 0.159D+00 0.106D+01
 Gap=     0.236 Goal=   None    Shift=    0.000
 RMSDP=3.33D-07 MaxDP=1.27D-05 DE=-6.45D-10 OVMax= 1.68D-05

 Cycle  18  Pass 1  IDiag  1:
 RMSU=  8.16D-08    CP:  5.49D-01  4.60D-01  8.79D-01  7.52D-01  8.59D-01
                    CP:  1.12D+00  1.33D+00  1.68D+00  1.67D+00  1.70D+00
                    CP:  1.47D+00  1.41D+00  1.66D+00  1.22D+00  1.51D+00
                    CP:  1.50D+00  1.37D+00
 E= -3010.53542561742     Delta-E=       -0.000000000150 Rises=F Damp=F
 DIIS: error= 9.55D-08 at cycle  18 NSaved=  18.
 NSaved=18 IEnMin=18 EnMin= -3010.53542561742     IErMin=18 ErrMin= 9.55D-08
 ErrMax= 9.55D-08  0.00D+00 EMaxC= 1.00D-01 BMatC= 4.17D-12 BMatP= 2.78D-11
 IDIUse=1 WtCom= 1.00D+00 WtEn= 0.00D+00
 Coeff-Com:  0.514D-06-0.820D-06-0.166D-06-0.618D-05 0.262D-05 0.608D-04
 Coeff-Com:  0.149D-03-0.659D-04-0.509D-03-0.898D-03-0.953D-03 0.394D-02
 Coeff-Com:  0.109D-01-0.663D-02-0.744D-01-0.574D-01 0.398D+00 0.728D+00
 Coeff:      0.514D-06-0.820D-06-0.166D-06-0.618D-05 0.262D-05 0.608D-04
 Coeff:      0.149D-03-0.659D-04-0.509D-03-0.898D-03-0.953D-03 0.394D-02
 Coeff:      0.109D-01-0.663D-02-0.744D-01-0.574D-01 0.398D+00 0.728D+00
 Gap=     0.236 Goal=   None    Shift=    0.000
 RMSDP=7.83D-08 MaxDP=5.12D-06 DE=-1.50D-10 OVMax= 3.34D-06

 Cycle  19  Pass 1  IDiag  1:
 RMSU=  1.97D-08    CP:  5.49D-01  4.60D-01  8.79D-01  7.52D-01  8.59D-01
                    CP:  1.12D+00  1.33D+00  1.68D+00  1.67D+00  1.71D+00
                    CP:  1.47D+00  1.41D+00  1.67D+00  1.22D+00  1.50D+00
                    CP:  1.50D+00  1.47D+00  1.01D+00
 E= -3010.53542561737     Delta-E=        0.000000000050 Rises=F Damp=F
 DIIS: error= 4.95D-08 at cycle  19 NSaved=  19.
 NSaved=19 IEnMin=18 EnMin= -3010.53542561742     IErMin=19 ErrMin= 4.95D-08
 ErrMax= 4.95D-08  0.00D+00 EMaxC= 1.00D-01 BMatC= 6.11D-13 BMatP= 4.17D-12
 IDIUse=1 WtCom= 1.00D+00 WtEn= 0.00D+00
 Coeff-Com:  0.281D-07-0.481D-07-0.133D-06 0.133D-06-0.623D-06-0.809D-05
 Coeff-Com: -0.185D-04 0.381D-04 0.137D-03 0.123D-03-0.672D-03-0.105D-02
 Coeff-Com:  0.206D-02 0.879D-02 0.114D-01-0.471D-01-0.996D-01 0.171D+00
 Coeff-Com:  0.955D+00
 Coeff:      0.281D-07-0.481D-07-0.133D-06 0.133D-06-0.623D-06-0.809D-05
 Coeff:     -0.185D-04 0.381D-04 0.137D-03 0.123D-03-0.672D-03-0.105D-02
 Coeff:      0.206D-02 0.879D-02 0.114D-01-0.471D-01-0.996D-01 0.171D+00
 Coeff:      0.955D+00
 Gap=     0.236 Goal=   None    Shift=    0.000
 RMSDP=3.99D-08 MaxDP=1.88D-06 DE= 5.00D-11 OVMax= 1.42D-06

 Cycle  20  Pass 1  IDiag  1:
 RMSU=  9.83D-09    CP:  5.49D-01  4.60D-01  8.79D-01  7.52D-01  8.59D-01
                    CP:  1.12D+00  1.33D+00  1.68D+00  1.67D+00  1.71D+00
                    CP:  1.47D+00  1.41D+00  1.67D+00  1.22D+00  1.50D+00
                    CP:  1.52D+00  1.50D+00  1.15D+00  1.27D+00
 E= -3010.53542561743     Delta-E=       -0.000000000060 Rises=F Damp=F
 DIIS: error= 9.78D-09 at cycle  20 NSaved=  20.
 NSaved=20 IEnMin=20 EnMin= -3010.53542561743     IErMin=20 ErrMin= 9.78D-09
 ErrMax= 9.78D-09  0.00D+00 EMaxC= 1.00D-01 BMatC= 4.67D-14 BMatP= 6.11D-13
 IDIUse=1 WtCom= 1.00D+00 WtEn= 0.00D+00
 Coeff-Com: -0.107D-07 0.225D-07-0.656D-08 0.564D-06-0.506D-06-0.738D-05
 Coeff-Com: -0.170D-04 0.138D-04 0.742D-04 0.106D-03-0.905D-04-0.534D-03
 Coeff-Com: -0.302D-03 0.229D-02 0.856D-02-0.438D-02-0.512D-01-0.421D-01
 Coeff-Com:  0.192D+00 0.895D+00
 Coeff:     -0.107D-07 0.225D-07-0.656D-08 0.564D-06-0.506D-06-0.738D-05
 Coeff:     -0.170D-04 0.138D-04 0.742D-04 0.106D-03-0.905D-04-0.534D-03
 Coeff:     -0.302D-03 0.229D-02 0.856D-02-0.438D-02-0.512D-01-0.421D-01
 Coeff:      0.192D+00 0.895D+00
 Gap=     0.236 Goal=   None    Shift=    0.000
 RMSDP=1.02D-08 MaxDP=4.82D-07 DE=-6.00D-11 OVMax= 2.55D-07

 Cycle  21  Pass 1  IDiag  1:
 Restarting incremental Fock formation.
 E= -3010.53542561740     Delta-E=        0.000000000026 Rises=F Damp=F
 DIIS: error= 5.71D-09 at cycle  21 NSaved=  20.
 NSaved=20 IEnMin=19 EnMin= -3010.53542561743     IErMin=20 ErrMin= 5.71D-09
 ErrMax= 5.71D-09  0.00D+00 EMaxC= 1.00D-01 BMatC= 6.63D-15 BMatP= 4.67D-14
 IDIUse=1 WtCom= 1.00D+00 WtEn= 0.00D+00
 Large coefficients: NSaved= 20 BigCof=    0.00 CofMax=   10.00 Det=-2.57D-14
 Inversion failed.  Reducing to 19 matrices.
 Coeff-Com:  0.739D-08-0.426D-07 0.292D-07 0.805D-06 0.156D-05-0.484D-05
 Coeff-Com: -0.163D-04-0.145D-04 0.784D-04 0.944D-04-0.316D-03-0.973D-03
 Coeff-Com: -0.988D-03 0.737D-02 0.133D-01-0.348D-01-0.129D+00 0.568D-01
 Coeff-Com:  0.109D+01
 Coeff:      0.739D-08-0.426D-07 0.292D-07 0.805D-06 0.156D-05-0.484D-05
 Coeff:     -0.163D-04-0.145D-04 0.784D-04 0.944D-04-0.316D-03-0.973D-03
 Coeff:     -0.988D-03 0.737D-02 0.133D-01-0.348D-01-0.129D+00 0.568D-01
 Coeff:      0.109D+01
 Gap=     0.236 Goal=   None    Shift=    0.000
 RMSDP=4.97D-09 MaxDP=2.47D-07 DE= 2.64D-11 OVMax= 1.91D-07

 SCF Done:  E(RwB97XD) =  -3010.53542562     A.U. after   21 cycles
            NFock= 21  Conv=0.50D-08     -V/T= 2.0016
 KE= 3.005857394929D+03 PE=-8.631095920077D+03 EE= 1.876593348415D+03
 Leave Link  502 at Wed May  1 14:48:32 2024, MaxMem=  1207959552 cpu:            1188.7 elap:            1189.0
 (Enter /software/gaussian/g16-c01/sse4/g16/l601.exe)
 Copying SCF densities to generalized density rwf, IOpCl= 0 IROHF=0.

 **********************************************************************

            Population analysis using the SCF Density.

 **********************************************************************

 Alpha  occ. eigenvalues -- -483.30733 -62.85768 -56.65448 -56.64893 -56.64891
 Alpha  occ. eigenvalues --  -19.42701 -19.42630 -14.82272 -10.57648 -10.56308
 Alpha  occ. eigenvalues --  -10.55936 -10.55634 -10.55529 -10.52212  -9.01581
 Alpha  occ. eigenvalues --   -6.84223  -6.82405  -6.82392  -2.94137  -2.93652
 Alpha  occ. eigenvalues --   -2.93641  -2.92186  -2.92186  -1.46473  -1.29412
 Alpha  occ. eigenvalues --   -1.21508  -1.12867  -1.10647  -1.03644  -0.99237
 Alpha  occ. eigenvalues --   -0.94398  -0.89610  -0.83633  -0.79333  -0.78456
 Alpha  occ. eigenvalues --   -0.77636  -0.76711  -0.74890  -0.73017  -0.71218
 Alpha  occ. eigenvalues --   -0.68414  -0.66466  -0.62591  -0.59231  -0.56101
 Alpha  occ. eigenvalues --   -0.54647  -0.53748  -0.52712  -0.52321
 Alpha virt. eigenvalues --   -0.28682  -0.19092  -0.14905  -0.11723  -0.09283
 Alpha virt. eigenvalues --   -0.06511  -0.05480  -0.04937  -0.03731  -0.02284
 Alpha virt. eigenvalues --   -0.01888  -0.01305  -0.01217  -0.00611   0.00360
 Alpha virt. eigenvalues --    0.01610   0.02174   0.02619   0.03393   0.03449
 Alpha virt. eigenvalues --    0.05114   0.06001   0.06518   0.06897   0.07777
 Alpha virt. eigenvalues --    0.07811   0.08683   0.08912   0.09993   0.10246
 Alpha virt. eigenvalues --    0.11292   0.12510   0.12722   0.13183   0.13745
 Alpha virt. eigenvalues --    0.13913   0.15422   0.16369   0.16936   0.17596
 Alpha virt. eigenvalues --    0.17812   0.18526   0.19742   0.20217   0.20586
 Alpha virt. eigenvalues --    0.21030   0.23151   0.24174   0.24872   0.26730
 Alpha virt. eigenvalues --    0.28882   0.29432   0.30300   0.31255   0.31796
 Alpha virt. eigenvalues --    0.33847   0.34697   0.36763   0.37570   0.37837
 Alpha virt. eigenvalues --    0.38188   0.40110   0.40719   0.41440   0.42513
 Alpha virt. eigenvalues --    0.43665   0.45069   0.46042   0.47493   0.48682
 Alpha virt. eigenvalues --    0.49798   0.50947   0.52313   0.52617   0.54891
 Alpha virt. eigenvalues --    0.56204   0.56542   0.57599   0.58177   0.60684
 Alpha virt. eigenvalues --    0.61754   0.63546   0.64744   0.67369   0.69384
 Alpha virt. eigenvalues --    0.71100   0.72772   0.73730   0.74373   0.75305
 Alpha virt. eigenvalues --    0.75958   0.81410   0.81470   0.84181   0.86394
 Alpha virt. eigenvalues --    0.87440   0.90364   0.93474   0.94516   1.00808
 Alpha virt. eigenvalues --    1.02339   1.03121   1.06061   1.06969   1.07938
 Alpha virt. eigenvalues --    1.10933   1.13179   1.14942   1.15524   1.17625
 Alpha virt. eigenvalues --    1.25232   1.26418   1.28752   1.34019   1.37644
 Alpha virt. eigenvalues --    1.37997   1.39048   1.46132   1.55755   1.58488
 Alpha virt. eigenvalues --    1.60246   1.60385   1.62388   1.64419   1.67297
 Alpha virt. eigenvalues --    1.70802   1.71052   1.74477   1.77878   1.80236
 Alpha virt. eigenvalues --    1.81876   1.86856   1.88907   1.93914   1.96139
 Alpha virt. eigenvalues --    1.99369   2.04477   2.05666   2.07664   2.09061
 Alpha virt. eigenvalues --    2.10748   2.15791   2.21541   2.24582   2.30243
 Alpha virt. eigenvalues --    2.39213   2.43018   2.43924   2.45070   2.53557
 Alpha virt. eigenvalues --    2.57666   2.64257   2.67292   2.69491   2.74476
 Alpha virt. eigenvalues --    2.75884   2.79107   2.79536   2.82598   2.84385
 Alpha virt. eigenvalues --    2.94434   2.97440   3.03674   3.06541   3.10373
 Alpha virt. eigenvalues --    3.14252   3.16236   3.20218   3.25345   3.26619
 Alpha virt. eigenvalues --    3.30599   3.41126   3.48571   3.53087   3.56470
 Alpha virt. eigenvalues --    3.59318   3.72941   3.77231   3.83270   3.88320
 Alpha virt. eigenvalues --    4.09305   4.09541   4.17111   4.22297   4.43144
 Alpha virt. eigenvalues --    4.47614   4.58511   4.62608   4.96500   4.99196
 Alpha virt. eigenvalues --    5.07830   5.11997   5.65972   6.19039   6.65030
 Alpha virt. eigenvalues --    7.47975   7.49553   7.59370  23.22300  23.62331
 Alpha virt. eigenvalues --   23.70264  23.80550  23.96986  24.02616  35.35679
 Alpha virt. eigenvalues --   47.91657  49.88738  49.97550 289.80996 289.82665
 Alpha virt. eigenvalues --  289.951151020.92094
          Condensed to atoms (all electrons):
               1          2          3          4          5          6
     1  C    9.228152  -2.520025   0.169444  -1.750099  -0.639636   0.310081
     2  C   -2.520025  12.994368  -1.789220  -2.336854   0.586047  -0.008153
     3  C    0.169444  -1.789220  13.374274  -3.549552  -1.240353   0.025679
     4  C   -1.750099  -2.336854  -3.549552  15.599962   1.236697   0.010742
     5  C   -0.639636   0.586047  -1.240353   1.236697   7.584278   0.005778
     6  H    0.310081  -0.008153   0.025679   0.010742   0.005778   0.347541
     7  H    0.079073   0.216696   0.075398  -0.034068  -0.018709  -0.001788
     8  H    0.006258  -0.013241   0.081568   0.224811  -0.025256   0.000000
     9  H    0.041237  -0.023016   0.007522  -0.009600   0.293830  -0.002681
    10  N   -0.180248   0.369442  -0.928089   0.358862   0.006183  -0.000668
    11  O    0.008221  -0.096975  -0.263188   0.004420  -0.060959  -0.000026
    12  O    0.365668  -0.035244  -0.276348  -0.123375  -0.043276   0.000042
    13  C    1.428965  -1.856333   0.980476  -3.900758  -1.718146  -0.007902
    14  H   -0.018082   0.005174  -0.000818  -0.073797   0.010437  -0.000046
    15  Br   0.032013   0.014958   0.029197   0.033784   0.034871  -0.000369
               7          8          9         10         11         12
     1  C    0.079073   0.006258   0.041237  -0.180248   0.008221   0.365668
     2  C    0.216696  -0.013241  -0.023016   0.369442  -0.096975  -0.035244
     3  C    0.075398   0.081568   0.007522  -0.928089  -0.263188  -0.276348
     4  C   -0.034068   0.224811  -0.009600   0.358862   0.004420  -0.123375
     5  C   -0.018709  -0.025256   0.293830   0.006183  -0.060959  -0.043276
     6  H   -0.001788   0.000000  -0.002681  -0.000668  -0.000026   0.000042
     7  H    0.292112  -0.000004   0.000017  -0.025930  -0.001511   0.025685
     8  H   -0.000004   0.285280   0.000097  -0.024148   0.025633  -0.000833
     9  H    0.000017   0.000097   0.352538   0.000346   0.000009   0.000008
    10  N   -0.025930  -0.024148   0.000346   7.464675   0.144398   0.109068
    11  O   -0.001511   0.025633   0.000009   0.144398   7.836475   0.007996
    12  O    0.025685  -0.000833   0.000008   0.109068   0.007996   7.873788
    13  C    0.016506   0.056829   0.020508  -0.190360   0.338455   0.040441
    14  H   -0.000021  -0.003620  -0.006174   0.000374  -0.000333  -0.000075
    15  Br  -0.000010   0.004396   0.001146   0.006057   0.000031   0.002072
              13         14         15
     1  C    1.428965  -0.018082   0.032013
     2  C   -1.856333   0.005174   0.014958
     3  C    0.980476  -0.000818   0.029197
     4  C   -3.900758  -0.073797   0.033784
     5  C   -1.718146   0.010437   0.034871
     6  H   -0.007902  -0.000046  -0.000369
     7  H    0.016506  -0.000021  -0.000010
     8  H    0.056829  -0.003620   0.004396
     9  H    0.020508  -0.006174   0.001146
    10  N   -0.190360   0.000374   0.006057
    11  O    0.338455  -0.000333   0.000031
    12  O    0.040441  -0.000075   0.002072
    13  C   10.870727   0.384294   0.013909
    14  H    0.384294   0.352072  -0.043866
    15  Br   0.013909  -0.043866  34.727617
 Mulliken charges:
               1
     1  C   -0.561022
     2  C    0.492377
     3  C   -0.695990
     4  C    0.308823
     5  C   -0.011786
     6  H    0.321771
     7  H    0.376552
     8  H    0.382229
     9  H    0.324212
    10  N   -0.109962
    11  O    0.057353
    12  O    0.054384
    13  C   -0.477613
    14  H    0.394479
    15  Br   0.144194
 Sum of Mulliken charges =   1.00000
 Mulliken charges with hydrogens summed into heavy atoms:
               1
     1  C   -0.239251
     2  C    0.868929
     3  C   -0.695990
     4  C    0.691053
     5  C    0.312426
    10  N   -0.109962
    11  O    0.057353
    12  O    0.054384
    13  C   -0.083134
    15  Br   0.144194
 Electronic spatial extent (au):  <R**2>=           2795.8676
 Charge=              1.0000 electrons
 Dipole moment (field-independent basis, Debye):
    X=              0.9018    Y=             -0.3931    Z=              0.1198  Tot=              0.9910
 Quadrupole moment (field-independent basis, Debye-Ang):
   XX=            -67.2514   YY=            -52.1824   ZZ=            -63.0504
   XY=              1.0132   XZ=              0.6659   YZ=              1.2650
 Traceless Quadrupole moment (field-independent basis, Debye-Ang):
   XX=             -6.4233   YY=              8.6456   ZZ=             -2.2223
   XY=              1.0132   XZ=              0.6659   YZ=              1.2650
 Octapole moment (field-independent basis, Debye-Ang**2):
  XXX=           -275.8970  YYY=             89.0120  ZZZ=             78.3913  XYY=            -72.0615
  XXY=             30.8452  XXZ=             32.3836  XZZ=            -76.2427  YZZ=             17.2012
  YYZ=             26.2481  XYZ=             -2.5621
 Hexadecapole moment (field-independent basis, Debye-Ang**3):
 XXXX=          -2179.1500 YYYY=           -679.8771 ZZZZ=           -350.8072 XXXY=            -68.6534
 XXXZ=            -24.4805 YYYX=            -61.5998 YYYZ=           -157.8855 ZZZX=            -20.4981
 ZZZY=           -137.7961 XXYY=           -448.6806 XXZZ=           -369.0641 YYZZ=           -165.3906
 XXYZ=            -55.6460 YYXZ=             -4.0114 ZZXY=            -10.2030
 N-N= 7.381097511144D+02 E-N=-8.631095920589D+03  KE= 3.005857394929D+03
 No NMR shielding tensors so no spin-rotation constants.
 Leave Link  601 at Wed May  1 14:48:40 2024, MaxMem=  1207959552 cpu:               7.4 elap:               7.4
 (Enter /software/gaussian/g16-c01/sse4/g16/l9999.exe)
 Unable to Open any file for archive entry.
 1\1\GINC-BHX0013\SP\RwB97XD\6-311+G(d)\C6H5Br1N1O2(1+)\BWEIGHT\01-May-
 2024\0\\#P wB97XD/6-311+G* NoSymm #P Field=X-58\\TitleMe\\1,1\C,0,0.02
 95,1.3397,0.0682\C,0,1.4348,1.2867,0.0064\C,0,2.1118,0.0511,-0.0054\C,
 0,1.4451,-1.1372,0.0312\C,0,-0.6879,0.1682,0.11\H,0,-0.4713,2.2984,0.0
 781\H,0,2.0273,2.1965,-0.0322\H,0,1.9897,-2.0764,0.0232\H,0,-1.7716,0.
 1804,0.1582\N,0,3.5864,0.051,-0.0675\O,0,4.1471,-1.0597,-0.0881\O,0,4.
 145,1.1639,-0.0901\C,0,-0.0236,-1.1458,0.0835\H,0,-0.4367,-1.8725,0.78
 89\Br,0,-0.5359,-1.8697,-1.7408\\Version=ES64L-G16RevC.01\HF=-3010.535
 4256\RMSD=4.974e-09\Dipole=-1.5517285,0.9934357,1.1932957\Quadrupole=-
 4.7755945,6.4278084,-1.6522138,0.7532559,0.4950685,0.9405178\PG=C01 [X
 (C6H5Br1N1O2)]\\@
 The archive entry for this job was punched.


 ONE BIG VICE IN A MAN IS APT TO KEEP OUT MANY SMALLER ONES.

                           -- BRET HARTE
 Job cpu time:       0 days  0 hours 20 minutes 56.6 seconds.
 Elapsed time:       0 days  0 hours 20 minutes 56.9 seconds.
 File lengths (MBytes):  RWF=     40 Int=      0 D2E=      0 Chk=     32 Scr=      1
 Normal termination of Gaussian 16 at Wed May  1 14:48:41 2024.
