 Entering Gaussian System, Link 0=g16
 Initial command:
 /software/gaussian/g16-c01/sse4/g16/l1.exe "/local_scratch/24665307/Gau-13224.inp" -scrdir="/local_scratch/24665307/"
 Entering Link 1 = /software/gaussian/g16-c01/sse4/g16/l1.exe PID=     13227.
  
 Copyright (c) 1988-2019, Gaussian, Inc.  All Rights Reserved.
  
 This is part of the Gaussian(R) 16 program.  It is based on
 the Gaussian(R) 09 system (copyright 2009, Gaussian, Inc.),
 the Gaussian(R) 03 system (copyright 2003, Gaussian, Inc.),
 the Gaussian(R) 98 system (copyright 1998, Gaussian, Inc.),
 the Gaussian(R) 94 system (copyright 1995, Gaussian, Inc.),
 the Gaussian 92(TM) system (copyright 1992, Gaussian, Inc.),
 the Gaussian 90(TM) system (copyright 1990, Gaussian, Inc.),
 the Gaussian 88(TM) system (copyright 1988, Gaussian, Inc.),
 the Gaussian 86(TM) system (copyright 1986, Carnegie Mellon
 University), and the Gaussian 82(TM) system (copyright 1983,
 Carnegie Mellon University). Gaussian is a federally registered
 trademark of Gaussian, Inc.
  
 This software contains proprietary and confidential information,
 including trade secrets, belonging to Gaussian, Inc.
  
 This software is provided under written license and may be
 used, copied, transmitted, or stored only in accord with that
 written license.
  
 The following legend is applicable only to US Government
 contracts under FAR:
  
                    RESTRICTED RIGHTS LEGEND
  
 Use, reproduction and disclosure by the US Government is
 subject to restrictions as set forth in subparagraphs (a)
 and (c) of the Commercial Computer Software - Restricted
 Rights clause in FAR 52.227-19.
  
 Gaussian, Inc.
 340 Quinnipiac St., Bldg. 40, Wallingford CT 06492
  
  
 ---------------------------------------------------------------
 Warning -- This program may not be used in any manner that
 competes with the business of Gaussian, Inc. or will provide
 assistance to any competitor of Gaussian, Inc.  The licensee
 of this program is prohibited from giving any competitor of
 Gaussian, Inc. access to this program.  By using this program,
 the user acknowledges that Gaussian, Inc. is engaged in the
 business of creating and licensing software in the field of
 computational chemistry and represents and warrants to the
 licensee that it is not a competitor of Gaussian, Inc. and that
 it will not use this program in any manner prohibited above.
 ---------------------------------------------------------------
  

 Cite this work as:
 Gaussian 16, Revision C.01,
 M. J. Frisch, G. W. Trucks, H. B. Schlegel, G. E. Scuseria, 
 M. A. Robb, J. R. Cheeseman, G. Scalmani, V. Barone, 
 G. A. Petersson, H. Nakatsuji, X. Li, M. Caricato, A. V. Marenich, 
 J. Bloino, B. G. Janesko, R. Gomperts, B. Mennucci, H. P. Hratchian, 
 J. V. Ortiz, A. F. Izmaylov, J. L. Sonnenberg, D. Williams-Young, 
 F. Ding, F. Lipparini, F. Egidi, J. Goings, B. Peng, A. Petrone, 
 T. Henderson, D. Ranasinghe, V. G. Zakrzewski, J. Gao, N. Rega, 
 G. Zheng, W. Liang, M. Hada, M. Ehara, K. Toyota, R. Fukuda, 
 J. Hasegawa, M. Ishida, T. Nakajima, Y. Honda, O. Kitao, H. Nakai, 
 T. Vreven, K. Throssell, J. A. Montgomery, Jr., J. E. Peralta, 
 F. Ogliaro, M. J. Bearpark, J. J. Heyd, E. N. Brothers, K. N. Kudin, 
 V. N. Staroverov, T. A. Keith, R. Kobayashi, J. Normand, 
 K. Raghavachari, A. P. Rendell, J. C. Burant, S. S. Iyengar, 
 J. Tomasi, M. Cossi, J. M. Millam, M. Klene, C. Adamo, R. Cammi, 
 J. W. Ochterski, R. L. Martin, K. Morokuma, O. Farkas, 
 J. B. Foresman, and D. J. Fox, Gaussian, Inc., Wallingford CT, 2019.
 
 ******************************************
 Gaussian 16:  ES64L-G16RevC.01  3-Jul-2019
                 2-May-2024 
 ******************************************
 %chk=geometry.chk
 %mem=1GB
 %nprocshared=12
 Will use up to   12 processors via shared memory.
 ----------------------------------------
 #P wB97XD/6-311+G* NoSymm #P Field=Y-155
 ----------------------------------------
 1/38=1,172=1/1;
 2/12=2,15=1,17=6,18=5,40=1/2;
 3/5=4,6=6,7=11,11=2,14=2,15=-155,25=1,30=1,74=-58/1,2,3;
 4//1;
 5/5=2,38=5/2;
 6/7=2,8=2,9=2,10=2,28=1/1;
 99/5=1,9=1/99;
 Leave Link    1 at Thu May  2 13:57:42 2024, MaxMem=   134217728 cpu:               1.8 elap:               1.9
 (Enter /software/gaussian/g16-c01/sse4/g16/l101.exe)
 -------
 TitleMe
 -------
 Symbolic Z-matrix:
 Charge =  1 Multiplicity = 1
 C                     0.5193    1.233    -0.0319 
 C                     1.9445    1.2692   -0.0367 
 C                     2.6204    0.0928   -0.025 
 C                    -0.196     0.0301    0.001 
 H                    -0.0207    2.1742   -0.0434 
 H                     2.4828    2.2089   -0.0361 
 H                    -1.2777    0.0399    0.0117 
 N                     4.0921    0.0959    0.0366 
 O                     4.6393   -1.0217    0.1446 
 O                     4.6649    1.1984   -0.0233 
 C                     0.4943   -1.1671    0.021 
 H                    -0.0325   -2.1149    0.0545 
 C                     1.9629   -1.2165   -0.0211 
 H                     2.4436   -1.9631    0.6151 
 Br                    2.173    -1.9491   -1.9062 
 
 ITRead=  0  0  0  0  0  0  0  0  0  0  0  0  0  0  0
 MicOpt= -1 -1 -1 -1 -1 -1 -1 -1 -1 -1 -1 -1 -1 -1 -1
 NAtoms=     15 NQM=       15 NQMF=       0 NMMI=      0 NMMIF=      0
                NMic=       0 NMicF=      0.
                    Isotopes and Nuclear Properties:
 (Nuclear quadrupole moments (NQMom) in fm**2, nuclear magnetic moments (NMagM)
  in nuclear magnetons)

  Atom         1           2           3           4           5           6           7           8           9          10
 IAtWgt=          12          12          12          12           1           1           1          14          16          16
 AtmWgt=  12.0000000  12.0000000  12.0000000  12.0000000   1.0078250   1.0078250   1.0078250  14.0030740  15.9949146  15.9949146
 NucSpn=           0           0           0           0           1           1           1           2           0           0
 AtZEff=  -0.0000000  -0.0000000  -0.0000000  -0.0000000  -0.0000000  -0.0000000  -0.0000000  -0.0000000  -0.0000000  -0.0000000
 NQMom=    0.0000000   0.0000000   0.0000000   0.0000000   0.0000000   0.0000000   0.0000000   2.0440000   0.0000000   0.0000000
 NMagM=    0.0000000   0.0000000   0.0000000   0.0000000   2.7928460   2.7928460   2.7928460   0.4037610   0.0000000   0.0000000
 AtZNuc=   6.0000000   6.0000000   6.0000000   6.0000000   1.0000000   1.0000000   1.0000000   7.0000000   8.0000000   8.0000000

  Atom        11          12          13          14          15
 IAtWgt=          12           1          12           1          79
 AtmWgt=  12.0000000   1.0078250  12.0000000   1.0078250  78.9183361
 NucSpn=           0           1           0           1           3
 AtZEff=  -0.0000000  -0.0000000  -0.0000000  -0.0000000  -0.0000000
 NQMom=    0.0000000   0.0000000   0.0000000   0.0000000  31.3000000
 NMagM=    0.0000000   2.7928460   0.0000000   2.7928460   2.1063990
 AtZNuc=   6.0000000   1.0000000   6.0000000   1.0000000  35.0000000
 Leave Link  101 at Thu May  2 13:57:43 2024, MaxMem=   134217728 cpu:               1.6 elap:               1.6
 (Enter /software/gaussian/g16-c01/sse4/g16/l202.exe)
                          Input orientation:                          
 ---------------------------------------------------------------------
 Center     Atomic      Atomic             Coordinates (Angstroms)
 Number     Number       Type             X           Y           Z
 ---------------------------------------------------------------------
      1          6           0        0.519300    1.233000   -0.031900
      2          6           0        1.944500    1.269200   -0.036700
      3          6           0        2.620400    0.092800   -0.025000
      4          6           0       -0.196000    0.030100    0.001000
      5          1           0       -0.020700    2.174200   -0.043400
      6          1           0        2.482800    2.208900   -0.036100
      7          1           0       -1.277700    0.039900    0.011700
      8          7           0        4.092100    0.095900    0.036600
      9          8           0        4.639300   -1.021700    0.144600
     10          8           0        4.664900    1.198400   -0.023300
     11          6           0        0.494300   -1.167100    0.021000
     12          1           0       -0.032500   -2.114900    0.054500
     13          6           0        1.962900   -1.216500   -0.021100
     14          1           0        2.443600   -1.963100    0.615100
     15         35           0        2.173000   -1.949100   -1.906200
 ---------------------------------------------------------------------
                    Distance matrix (angstroms):
                    1          2          3          4          5
     1  C    0.000000
     2  C    1.425668   0.000000
     3  C    2.390549   1.356796   0.000000
     4  C    1.399895   2.473566   2.817218   0.000000
     5  H    1.085168   2.163581   3.362733   2.151712   0.000000
     6  H    2.192654   1.082960   2.120598   3.453189   2.503751
     7  H    2.157452   3.449071   3.898632   1.081797   2.477564
     8  N    3.750012   2.448304   1.472992   4.288753   4.608780
     9  O    4.699917   3.541615   2.312322   4.950458   5.653735
    10  O    4.145753   2.721354   2.324292   4.999386   4.786171
    11  C    2.400813   2.835836   2.471794   1.382101   3.381369
    12  H    3.394169   3.920329   3.452266   2.151887   4.290233
    13  C    2.843264   2.485817   1.465124   2.493060   3.928360
    14  H    3.786370   3.334922   2.160489   3.364142   4.860416
    15  Br   4.046416   3.728900   2.812194   3.628609   5.028314
                    6          7          8          9         10
     6  H    0.000000
     7  H    4.341452   0.000000
     8  N    2.657047   5.370150   0.000000
     9  O    3.888434   6.012948   1.249048   0.000000
    10  O    2.404752   6.054572   1.243863   2.226587   0.000000
    11  C    3.918516   2.144043   3.813080   4.149391   4.794941
    12  H    5.003018   2.489080   4.679774   4.798846   5.748876
    13  C    3.464662   3.475788   2.501842   2.688591   3.623886
    14  H    4.222698   4.268978   2.700314   2.434893   3.916224
    15  Br   4.569706   4.420610   3.411663   3.338935   4.434144
                   11         12         13         14         15
    11  C    0.000000
    12  H    1.084880   0.000000
    13  C    1.470034   2.189625   0.000000
    14  H    2.187771   2.543302   1.092353   0.000000
    15  Br   2.672762   2.955683   2.033334   2.535818   0.000000
 Symmetry turned off by external request.
 Stoichiometry    C6H5BrNO2(1+)
 Framework group  C1[X(C6H5BrNO2)]
 Deg. of freedom    39
 Full point group                 C1      NOp   1
 Rotational constants (GHZ):           1.1632986           0.9594224           0.5957624
 Leave Link  202 at Thu May  2 13:57:45 2024, MaxMem=   134217728 cpu:               1.2 elap:               1.2
 (Enter /software/gaussian/g16-c01/sse4/g16/l301.exe)
 Standard basis: 6-311+G(d) (5D, 7F)
 Ernie: Thresh=  0.10000D-02 Tol=  0.10000D-05 Strict=F.
 The following finite field(s) will be applied:
 An electric field of              0.0000 -0.0155  0.0000
   261 basis functions,   443 primitive gaussians,   273 cartesian basis functions
    49 alpha electrons       49 beta electrons
       nuclear repulsion energy       772.8945969580 Hartrees.
 IExCor= 4639 DFT=T Ex+Corr=wB97XD ExCW=0 ScaHFX=  1.000000
 ScaDFX=  1.000000  1.000000  1.000000  1.000000 ScalE2=  1.000000  1.000000
 IRadAn=      5 IRanWt=     -1 IRanGd=            0 ICorTp=0 IEmpDi=121
 HFx  wShort=  0.000000 wLong=  0.200000 cFull=  0.222036 cShort=  0.000000 cLong=  0.777964
 DFx  wShort=  0.000000 wLong=  0.200000 cFull=  0.000000 cShort=  0.000000 cLong=  1.000000
 NAtoms=   15 NActive=   15 NUniq=   15 SFac= 1.00D+00 NAtFMM=   60 NAOKFM=F Big=F
 Integral buffers will be    131072 words long.
 Raffenetti 2 integral format.
 Two-electron integral symmetry is turned off.
 R6Disp:  Grimme-D2 Dispersion energy=       -0.0080346408 Hartrees.
 Nuclear repulsion after empirical dispersion term =      772.8865623173 Hartrees.
 Leave Link  301 at Thu May  2 13:57:46 2024, MaxMem=   134217728 cpu:               0.9 elap:               0.9
 (Enter /software/gaussian/g16-c01/sse4/g16/l302.exe)
 NPDir=0 NMtPBC=     1 NCelOv=     1 NCel=       1 NClECP=     1 NCelD=      1
         NCelK=      1 NCelE2=     1 NClLst=     1 CellRange=     0.0.
 One-electron integrals computed using PRISM.
 NBasis=   261 RedAO= T EigKep=  2.52D-06  NBF=   261
 NBsUse=   261 1.00D-06 EigRej= -1.00D+00 NBFU=   261
 Precomputing XC quadrature grid using
 IXCGrd= 4 IRadAn=           5 IRanWt=          -1 IRanGd=           0 AccXCQ= 0.00D+00.
 Generated NRdTot=       0 NPtTot=           0 NUsed=           0 NTot=          32
 NSgBfM=   273   273   273   273   273 MxSgAt=    15 MxSgA2=    15.
 Leave Link  302 at Thu May  2 13:58:07 2024, MaxMem=   134217728 cpu:              21.7 elap:              21.8
 (Enter /software/gaussian/g16-c01/sse4/g16/l303.exe)
 DipDrv:  MaxL=1.
 The nuclear repulsion energy is now       774.7711177732 hartrees.
 Leave Link  303 at Thu May  2 13:58:11 2024, MaxMem=   134217728 cpu:               3.4 elap:               3.4
 (Enter /software/gaussian/g16-c01/sse4/g16/l401.exe)
 ExpMin= 3.50D-02 ExpMax= 4.40D+05 ExpMxC= 1.51D+04 IAcc=3 IRadAn=         5 AccDes= 0.00D+00
 Harris functional with IExCor= 4639 and IRadAn=       5 diagonalized for initial guess.
 HarFok:  IExCor= 4639 AccDes= 0.00D+00 IRadAn=         5 IDoV= 1 UseB2=F ITyADJ=14
 ICtDFT=  3500011 ScaDFX=  1.000000  1.000000  1.000000  1.000000
 FoFCou: FMM=F IPFlag=           0 FMFlag=      100000 FMFlg1=           0
         NFxFlg=           0 DoJE=T BraDBF=F KetDBF=T FulRan=T
         wScrn=  0.000000 ICntrl=       500 IOpCl=  0 I1Cent=   200000004 NGrid=           0
         NMat0=    1 NMatS0=      1 NMatT0=    0 NMatD0=    1 NMtDS0=    0 NMtDT0=    0
 Symmetry not used in FoFCou.
 Harris En= -2970.64143213070    
 JPrj=0 DoOrth=F DoCkMO=F.
 Leave Link  401 at Thu May  2 13:58:42 2024, MaxMem=   134217728 cpu:              31.4 elap:              31.5
 (Enter /software/gaussian/g16-c01/sse4/g16/l502.exe)
 Two-electron integral symmetry not used.
 Closed shell SCF:
 Using DIIS extrapolation, IDIIS=  1040.
 NGot=   134217728 LenX=   134063053 LenY=   133988083
 Requested convergence on RMS density matrix=1.00D-08 within 128 cycles.
 Requested convergence on MAX density matrix=1.00D-06.
 Requested convergence on             energy=1.00D-06.
 No special actions if energy rises.
 Fock matrices will be formed incrementally for  20 cycles.

 Cycle   1  Pass 1  IDiag  1:
 FoFJK:  IHMeth= 1 ICntrl=       0 DoSepK=T KAlg= 0 I1Cent=           0 FoldK=F
 IRaf=         1 NMat=       1 IRICut=       1 DoRegI=T DoRafI=F ISym2E= 0 IDoP0=0 IntGTp=1.
 FoFCou: FMM=F IPFlag=           0 FMFlag=      100000 FMFlg1=           0
         NFxFlg=           0 DoJE=T BraDBF=F KetDBF=F FulRan=T
         wScrn=  0.000000 ICntrl=       500 IOpCl=  0 I1Cent=           0 NGrid=           0
         NMat0=    1 NMatS0=      1 NMatT0=    0 NMatD0=    1 NMtDS0=    0 NMtDT0=    0
 Symmetry not used in FoFCou.
 E= -3008.45424570155    
 DIIS: error= 2.92D-01 at cycle   1 NSaved=   1.
 NSaved= 1 IEnMin= 1 EnMin= -3008.45424570155     IErMin= 1 ErrMin= 2.92D-01
 ErrMax= 2.92D-01  0.00D+00 EMaxC= 1.00D-01 BMatC= 1.25D+01 BMatP= 1.25D+01
 IDIUse=3 WtCom= 0.00D+00 WtEn= 1.00D+00
 Coeff-Com:  0.100D+01
 Coeff-En:   0.100D+01
 Coeff:      0.100D+01
 Gap=    -0.718 Goal=   None    Shift=    0.000
 GapD=   -0.718 DampG=0.250 DampE=0.250 DampFc=0.2500 IDamp=-1.
 Damping current iteration by 2.50D-01
 RMSDP=3.03D-01 MaxDP=3.32D+01              OVMax= 8.03D-01

 Cycle   2  Pass 1  IDiag  1:
 RMSU=  2.31D-02    CP:  8.03D-01
 E= -3008.99925752935     Delta-E=       -0.545011827800 Rises=F Damp=T
 DIIS: error= 2.19D-01 at cycle   2 NSaved=   2.
 NSaved= 2 IEnMin= 2 EnMin= -3008.99925752935     IErMin= 2 ErrMin= 2.19D-01
 ErrMax= 2.19D-01  0.00D+00 EMaxC= 1.00D-01 BMatC= 5.53D+00 BMatP= 1.25D+01
 IDIUse=3 WtCom= 0.00D+00 WtEn= 1.00D+00
 Coeff-Com: -0.123D+01 0.223D+01
 Coeff-En:   0.209D+00 0.791D+00
 Coeff:      0.209D+00 0.791D+00
 Gap=     0.059 Goal=   None    Shift=    0.000
 RMSDP=2.43D-01 MaxDP=2.71D+01 DE=-5.45D-01 OVMax= 9.84D-01

 Cycle   3  Pass 1  IDiag  1:
 RMSU=  2.44D-02    CP:  1.46D-01  1.91D+00
 E= -3009.78857091884     Delta-E=       -0.789313389490 Rises=F Damp=F
 DIIS: error= 8.23D-02 at cycle   3 NSaved=   3.
 NSaved= 3 IEnMin= 3 EnMin= -3009.78857091884     IErMin= 3 ErrMin= 8.23D-02
 ErrMax= 8.23D-02  0.00D+00 EMaxC= 1.00D-01 BMatC= 1.73D+00 BMatP= 5.53D+00
 IDIUse=3 WtCom= 1.77D-01 WtEn= 8.23D-01
 Coeff-Com:  0.241D+00-0.188D-01 0.778D+00
 Coeff-En:   0.266D+00 0.000D+00 0.734D+00
 Coeff:      0.262D+00-0.334D-02 0.742D+00
 Gap=     0.214 Goal=   None    Shift=    0.000
 RMSDP=6.71D-02 MaxDP=9.20D+00 DE=-7.89D-01 OVMax= 4.50D-01

 Cycle   4  Pass 1  IDiag  1:
 RMSU=  5.57D-02    CP:  1.95D-01  2.65D+00  2.15D+00
 E= -3009.90216689320     Delta-E=       -0.113595974360 Rises=F Damp=F
 DIIS: error= 1.04D-01 at cycle   4 NSaved=   4.
 NSaved= 4 IEnMin= 4 EnMin= -3009.90216689320     IErMin= 3 ErrMin= 8.23D-02
 ErrMax= 1.04D-01  0.00D+00 EMaxC= 1.00D-01 BMatC= 9.11D-01 BMatP= 1.73D+00
 IDIUse=3 WtCom= 0.00D+00 WtEn= 1.00D+00
 Coeff-Com:  0.162D+00-0.123D+00 0.471D+00 0.490D+00
 Coeff-En:   0.000D+00 0.000D+00 0.465D+00 0.535D+00
 Coeff:      0.000D+00 0.000D+00 0.465D+00 0.535D+00
 Gap=     0.175 Goal=   None    Shift=    0.000
 RMSDP=4.50D-02 MaxDP=6.15D+00 DE=-1.14D-01 OVMax= 3.71D-01

 Cycle   5  Pass 1  IDiag  1:
 RMSU=  1.04D-02    CP:  1.53D-01  1.75D+00  1.52D+00  4.30D-01
 E= -3010.44829467885     Delta-E=       -0.546127785654 Rises=F Damp=F
 DIIS: error= 2.96D-02 at cycle   5 NSaved=   5.
 NSaved= 5 IEnMin= 5 EnMin= -3010.44829467885     IErMin= 5 ErrMin= 2.96D-02
 ErrMax= 2.96D-02  0.00D+00 EMaxC= 1.00D-01 BMatC= 1.66D-01 BMatP= 9.11D-01
 IDIUse=3 WtCom= 7.04D-01 WtEn= 2.96D-01
 Coeff-Com: -0.123D-01 0.209D-01 0.189D+00 0.294D+00 0.508D+00
 Coeff-En:   0.000D+00 0.000D+00 0.000D+00 0.111D+00 0.889D+00
 Coeff:     -0.863D-02 0.147D-01 0.133D+00 0.240D+00 0.621D+00
 Gap=     0.282 Goal=   None    Shift=    0.000
 RMSDP=6.63D-03 MaxDP=2.55D-01 DE=-5.46D-01 OVMax= 1.07D-01

 Cycle   6  Pass 1  IDiag  1:
 RMSU=  5.02D-03    CP:  1.50D-01  1.73D+00  1.55D+00  4.68D-01  6.57D-01
 E= -3010.52470554855     Delta-E=       -0.076410869694 Rises=F Damp=F
 DIIS: error= 1.40D-02 at cycle   6 NSaved=   6.
 NSaved= 6 IEnMin= 6 EnMin= -3010.52470554855     IErMin= 6 ErrMin= 1.40D-02
 ErrMax= 1.40D-02  0.00D+00 EMaxC= 1.00D-01 BMatC= 2.44D-02 BMatP= 1.66D-01
 IDIUse=3 WtCom= 8.60D-01 WtEn= 1.40D-01
 Coeff-Com: -0.278D-01 0.368D-01-0.524D-03 0.688D-02 0.289D+00 0.695D+00
 Coeff-En:   0.000D+00 0.000D+00 0.000D+00 0.000D+00 0.115D+00 0.885D+00
 Coeff:     -0.239D-01 0.316D-01-0.450D-03 0.592D-02 0.265D+00 0.722D+00
 Gap=     0.240 Goal=   None    Shift=    0.000
 RMSDP=3.28D-03 MaxDP=3.57D-01 DE=-7.64D-02 OVMax= 4.14D-02

 Cycle   7  Pass 1  IDiag  1:
 RMSU=  1.43D-03    CP:  1.49D-01  1.69D+00  1.50D+00  4.30D-01  7.75D-01
                    CP:  9.10D-01
 E= -3010.53861962905     Delta-E=       -0.013914080499 Rises=F Damp=F
 DIIS: error= 1.73D-03 at cycle   7 NSaved=   7.
 NSaved= 7 IEnMin= 7 EnMin= -3010.53861962905     IErMin= 7 ErrMin= 1.73D-03
 ErrMax= 1.73D-03  0.00D+00 EMaxC= 1.00D-01 BMatC= 1.02D-03 BMatP= 2.44D-02
 IDIUse=3 WtCom= 9.83D-01 WtEn= 1.73D-02
 Coeff-Com: -0.164D-01 0.222D-01-0.137D-01-0.131D-01 0.587D-01 0.287D+00
 Coeff-Com:  0.675D+00
 Coeff-En:   0.000D+00 0.000D+00 0.000D+00 0.000D+00 0.000D+00 0.000D+00
 Coeff-En:   0.100D+01
 Coeff:     -0.162D-01 0.219D-01-0.134D-01-0.129D-01 0.577D-01 0.282D+00
 Coeff:      0.680D+00
 Gap=     0.243 Goal=   None    Shift=    0.000
 RMSDP=7.11D-04 MaxDP=7.20D-02 DE=-1.39D-02 OVMax= 1.76D-02

 Cycle   8  Pass 1  IDiag  1:
 RMSU=  4.67D-04    CP:  1.48D-01  1.68D+00  1.49D+00  4.26D-01  7.74D-01
                    CP:  9.65D-01  9.92D-01
 E= -3010.53981041443     Delta-E=       -0.001190785385 Rises=F Damp=F
 DIIS: error= 6.97D-04 at cycle   8 NSaved=   8.
 NSaved= 8 IEnMin= 8 EnMin= -3010.53981041443     IErMin= 8 ErrMin= 6.97D-04
 ErrMax= 6.97D-04  0.00D+00 EMaxC= 1.00D-01 BMatC= 8.76D-05 BMatP= 1.02D-03
 IDIUse=3 WtCom= 9.93D-01 WtEn= 6.97D-03
 Coeff-Com: -0.565D-02 0.774D-02-0.185D-02-0.147D-02-0.292D-01-0.712D-01
 Coeff-Com:  0.103D+00 0.998D+00
 Coeff-En:   0.000D+00 0.000D+00 0.000D+00 0.000D+00 0.000D+00 0.000D+00
 Coeff-En:   0.000D+00 0.100D+01
 Coeff:     -0.561D-02 0.769D-02-0.184D-02-0.146D-02-0.290D-01-0.707D-01
 Coeff:      0.103D+00 0.998D+00
 Gap=     0.246 Goal=   None    Shift=    0.000
 RMSDP=8.56D-04 MaxDP=1.04D-01 DE=-1.19D-03 OVMax= 1.50D-02

 Cycle   9  Pass 1  IDiag  1:
 RMSU=  2.26D-04    CP:  1.47D-01  1.69D+00  1.47D+00  4.17D-01  7.71D-01
                    CP:  9.58D-01  1.20D+00  1.63D+00
 E= -3010.54013944133     Delta-E=       -0.000329026895 Rises=F Damp=F
 DIIS: error= 2.64D-04 at cycle   9 NSaved=   9.
 NSaved= 9 IEnMin= 9 EnMin= -3010.54013944133     IErMin= 9 ErrMin= 2.64D-04
 ErrMax= 2.64D-04  0.00D+00 EMaxC= 1.00D-01 BMatC= 1.69D-05 BMatP= 8.76D-05
 IDIUse=3 WtCom= 9.97D-01 WtEn= 2.64D-03
 Coeff-Com: -0.116D-02 0.163D-02 0.120D-02 0.185D-02-0.153D-01-0.659D-01
 Coeff-Com: -0.113D+00 0.201D+00 0.990D+00
 Coeff-En:   0.000D+00 0.000D+00 0.000D+00 0.000D+00 0.000D+00 0.000D+00
 Coeff-En:   0.000D+00 0.000D+00 0.100D+01
 Coeff:     -0.115D-02 0.162D-02 0.120D-02 0.184D-02-0.152D-01-0.657D-01
 Coeff:     -0.113D+00 0.201D+00 0.990D+00
 Gap=     0.246 Goal=   None    Shift=    0.000
 RMSDP=3.74D-04 MaxDP=3.99D-02 DE=-3.29D-04 OVMax= 8.47D-03

 Cycle  10  Pass 1  IDiag  1:
 RMSU=  7.61D-05    CP:  1.47D-01  1.70D+00  1.47D+00  4.13D-01  7.67D-01
                    CP:  9.64D-01  1.30D+00  1.98D+00  1.37D+00
 E= -3010.54023399881     Delta-E=       -0.000094557479 Rises=F Damp=F
 DIIS: error= 1.22D-04 at cycle  10 NSaved=  10.
 NSaved=10 IEnMin=10 EnMin= -3010.54023399881     IErMin=10 ErrMin= 1.22D-04
 ErrMax= 1.22D-04  0.00D+00 EMaxC= 1.00D-01 BMatC= 3.54D-06 BMatP= 1.69D-05
 IDIUse=3 WtCom= 9.99D-01 WtEn= 1.22D-03
 Coeff-Com:  0.256D-04-0.348D-04 0.419D-03 0.707D-03 0.360D-02-0.274D-03
 Coeff-Com: -0.639D-01-0.182D+00 0.348D+00 0.893D+00
 Coeff-En:   0.000D+00 0.000D+00 0.000D+00 0.000D+00 0.000D+00 0.000D+00
 Coeff-En:   0.000D+00 0.000D+00 0.000D+00 0.100D+01
 Coeff:      0.256D-04-0.347D-04 0.419D-03 0.706D-03 0.360D-02-0.274D-03
 Coeff:     -0.639D-01-0.182D+00 0.348D+00 0.894D+00
 Gap=     0.246 Goal=   None    Shift=    0.000
 RMSDP=2.03D-04 MaxDP=2.46D-02 DE=-9.46D-05 OVMax= 4.51D-03

 Cycle  11  Pass 1  IDiag  1:
 RMSU=  3.78D-05    CP:  1.47D-01  1.70D+00  1.47D+00  4.11D-01  7.68D-01
                    CP:  9.62D-01  1.32D+00  2.18D+00  1.56D+00  1.33D+00
 E= -3010.54025581195     Delta-E=       -0.000021813148 Rises=F Damp=F
 DIIS: error= 9.96D-05 at cycle  11 NSaved=  11.
 NSaved=11 IEnMin=11 EnMin= -3010.54025581195     IErMin=11 ErrMin= 9.96D-05
 ErrMax= 9.96D-05  0.00D+00 EMaxC= 1.00D-01 BMatC= 7.69D-07 BMatP= 3.54D-06
 IDIUse=1 WtCom= 1.00D+00 WtEn= 0.00D+00
 Coeff-Com:  0.123D-03-0.183D-03-0.735D-04-0.366D-04 0.413D-02 0.105D-01
 Coeff-Com: -0.590D-02-0.101D+00-0.524D-01 0.319D+00 0.826D+00
 Coeff:      0.123D-03-0.183D-03-0.735D-04-0.366D-04 0.413D-02 0.105D-01
 Coeff:     -0.590D-02-0.101D+00-0.524D-01 0.319D+00 0.826D+00
 Gap=     0.246 Goal=   None    Shift=    0.000
 RMSDP=5.93D-05 MaxDP=3.30D-03 DE=-2.18D-05 OVMax= 1.94D-03

 Cycle  12  Pass 1  IDiag  1:
 RMSU=  1.83D-05    CP:  1.47D-01  1.70D+00  1.47D+00  4.11D-01  7.68D-01
                    CP:  9.61D-01  1.34D+00  2.25D+00  1.61D+00  1.60D+00
                    CP:  1.30D+00
 E= -3010.54026003014     Delta-E=       -0.000004218185 Rises=F Damp=F
 DIIS: error= 4.36D-05 at cycle  12 NSaved=  12.
 NSaved=12 IEnMin=12 EnMin= -3010.54026003014     IErMin=12 ErrMin= 4.36D-05
 ErrMax= 4.36D-05  0.00D+00 EMaxC= 1.00D-01 BMatC= 2.53D-07 BMatP= 7.69D-07
 IDIUse=1 WtCom= 1.00D+00 WtEn= 0.00D+00
 Coeff-Com:  0.127D-03-0.175D-03-0.848D-04-0.194D-03 0.503D-03 0.449D-02
 Coeff-Com:  0.210D-01 0.214D-01-0.139D+00-0.167D+00 0.352D+00 0.906D+00
 Coeff:      0.127D-03-0.175D-03-0.848D-04-0.194D-03 0.503D-03 0.449D-02
 Coeff:      0.210D-01 0.214D-01-0.139D+00-0.167D+00 0.352D+00 0.906D+00
 Gap=     0.246 Goal=   None    Shift=    0.000
 RMSDP=4.12D-05 MaxDP=4.85D-03 DE=-4.22D-06 OVMax= 1.10D-03

 Cycle  13  Pass 1  IDiag  1:
 RMSU=  9.20D-06    CP:  1.47D-01  1.70D+00  1.47D+00  4.11D-01  7.68D-01
                    CP:  9.60D-01  1.34D+00  2.27D+00  1.64D+00  1.68D+00
                    CP:  1.60D+00  1.25D+00
 E= -3010.54026123116     Delta-E=       -0.000001201020 Rises=F Damp=F
 DIIS: error= 1.78D-05 at cycle  13 NSaved=  13.
 NSaved=13 IEnMin=13 EnMin= -3010.54026123116     IErMin=13 ErrMin= 1.78D-05
 ErrMax= 1.78D-05  0.00D+00 EMaxC= 1.00D-01 BMatC= 4.71D-08 BMatP= 2.53D-07
 IDIUse=1 WtCom= 1.00D+00 WtEn= 0.00D+00
 Coeff-Com:  0.635D-04-0.875D-04-0.518D-04-0.125D-03-0.564D-03 0.266D-03
 Coeff-Com:  0.837D-02 0.209D-01-0.283D-01-0.109D+00-0.543D-01 0.296D+00
 Coeff-Com:  0.866D+00
 Coeff:      0.635D-04-0.875D-04-0.518D-04-0.125D-03-0.564D-03 0.266D-03
 Coeff:      0.837D-02 0.209D-01-0.283D-01-0.109D+00-0.543D-01 0.296D+00
 Coeff:      0.866D+00
 Gap=     0.246 Goal=   None    Shift=    0.000
 RMSDP=1.03D-05 MaxDP=7.32D-04 DE=-1.20D-06 OVMax= 3.89D-04

 Cycle  14  Pass 1  IDiag  1:
 RMSU=  3.72D-06    CP:  1.47D-01  1.70D+00  1.47D+00  4.11D-01  7.69D-01
                    CP:  9.60D-01  1.34D+00  2.27D+00  1.63D+00  1.71D+00
                    CP:  1.68D+00  1.40D+00  1.28D+00
 E= -3010.54026141462     Delta-E=       -0.000000183461 Rises=F Damp=F
 DIIS: error= 1.23D-05 at cycle  14 NSaved=  14.
 NSaved=14 IEnMin=14 EnMin= -3010.54026141462     IErMin=14 ErrMin= 1.23D-05
 ErrMax= 1.23D-05  0.00D+00 EMaxC= 1.00D-01 BMatC= 1.35D-08 BMatP= 4.71D-08
 IDIUse=1 WtCom= 1.00D+00 WtEn= 0.00D+00
 Coeff-Com:  0.376D-04-0.505D-04-0.636D-05-0.185D-04-0.471D-03-0.953D-03
 Coeff-Com:  0.642D-04 0.733D-02 0.144D-01-0.217D-01-0.108D+00-0.402D-01
 Coeff-Com:  0.382D+00 0.767D+00
 Coeff:      0.376D-04-0.505D-04-0.636D-05-0.185D-04-0.471D-03-0.953D-03
 Coeff:      0.642D-04 0.733D-02 0.144D-01-0.217D-01-0.108D+00-0.402D-01
 Coeff:      0.382D+00 0.767D+00
 Gap=     0.246 Goal=   None    Shift=    0.000
 RMSDP=3.89D-06 MaxDP=1.58D-04 DE=-1.83D-07 OVMax= 1.56D-04

 Cycle  15  Pass 1  IDiag  1:
 RMSU=  2.16D-06    CP:  1.47D-01  1.70D+00  1.47D+00  4.11D-01  7.69D-01
                    CP:  9.60D-01  1.34D+00  2.27D+00  1.63D+00  1.72D+00
                    CP:  1.70D+00  1.49D+00  1.41D+00  1.24D+00
 E= -3010.54026145345     Delta-E=       -0.000000038825 Rises=F Damp=F
 DIIS: error= 3.30D-06 at cycle  15 NSaved=  15.
 NSaved=15 IEnMin=15 EnMin= -3010.54026145345     IErMin=15 ErrMin= 3.30D-06
 ErrMax= 3.30D-06  0.00D+00 EMaxC= 1.00D-01 BMatC= 1.76D-09 BMatP= 1.35D-08
 IDIUse=1 WtCom= 1.00D+00 WtEn= 0.00D+00
 Coeff-Com:  0.496D-05-0.749D-05 0.763D-06 0.985D-05 0.603D-04-0.177D-03
 Coeff-Com: -0.186D-02-0.375D-02 0.896D-02 0.195D-01-0.874D-02-0.619D-01
 Coeff-Com: -0.132D+00 0.178D+00 0.100D+01
 Coeff:      0.496D-05-0.749D-05 0.763D-06 0.985D-05 0.603D-04-0.177D-03
 Coeff:     -0.186D-02-0.375D-02 0.896D-02 0.195D-01-0.874D-02-0.619D-01
 Coeff:     -0.132D+00 0.178D+00 0.100D+01
 Gap=     0.246 Goal=   None    Shift=    0.000
 RMSDP=3.75D-06 MaxDP=4.50D-04 DE=-3.88D-08 OVMax= 7.63D-05

 Cycle  16  Pass 1  IDiag  1:
 RMSU=  6.47D-07    CP:  1.47D-01  1.70D+00  1.47D+00  4.11D-01  7.69D-01
                    CP:  9.60D-01  1.34D+00  2.27D+00  1.63D+00  1.72D+00
                    CP:  1.70D+00  1.48D+00  1.49D+00  1.50D+00  1.15D+00
 E= -3010.54026145946     Delta-E=       -0.000000006012 Rises=F Damp=F
 DIIS: error= 1.05D-06 at cycle  16 NSaved=  16.
 NSaved=16 IEnMin=16 EnMin= -3010.54026145946     IErMin=16 ErrMin= 1.05D-06
 ErrMax= 1.05D-06  0.00D+00 EMaxC= 1.00D-01 BMatC= 3.30D-10 BMatP= 1.76D-09
 IDIUse=1 WtCom= 1.00D+00 WtEn= 0.00D+00
 Coeff-Com: -0.128D-05 0.168D-05 0.576D-05 0.547D-05 0.708D-04 0.288D-05
 Coeff-Com: -0.732D-03-0.206D-02 0.205D-02 0.963D-02 0.723D-02-0.186D-01
 Coeff-Com: -0.901D-01-0.154D-01 0.398D+00 0.710D+00
 Coeff:     -0.128D-05 0.168D-05 0.576D-05 0.547D-05 0.708D-04 0.288D-05
 Coeff:     -0.732D-03-0.206D-02 0.205D-02 0.963D-02 0.723D-02-0.186D-01
 Coeff:     -0.901D-01-0.154D-01 0.398D+00 0.710D+00
 Gap=     0.246 Goal=   None    Shift=    0.000
 RMSDP=8.52D-07 MaxDP=1.02D-04 DE=-6.01D-09 OVMax= 1.48D-05

 Cycle  17  Pass 1  IDiag  1:
 RMSU=  1.90D-07    CP:  1.47D-01  1.70D+00  1.47D+00  4.11D-01  7.69D-01
                    CP:  9.60D-01  1.34D+00  2.27D+00  1.63D+00  1.72D+00
                    CP:  1.70D+00  1.48D+00  1.49D+00  1.54D+00  1.27D+00
                    CP:  1.24D+00
 E= -3010.54026146001     Delta-E=       -0.000000000555 Rises=F Damp=F
 DIIS: error= 6.80D-07 at cycle  17 NSaved=  17.
 NSaved=17 IEnMin=17 EnMin= -3010.54026146001     IErMin=17 ErrMin= 6.80D-07
 ErrMax= 6.80D-07  0.00D+00 EMaxC= 1.00D-01 BMatC= 5.35D-11 BMatP= 3.30D-10
 IDIUse=1 WtCom= 1.00D+00 WtEn= 0.00D+00
 Coeff-Com: -0.114D-05 0.190D-05 0.464D-05 0.187D-06 0.119D-04 0.157D-04
 Coeff-Com:  0.835D-04 0.193D-04-0.969D-03-0.714D-03 0.347D-02 0.661D-02
 Coeff-Com: -0.153D-02-0.376D-01-0.598D-01 0.187D+00 0.904D+00
 Coeff:     -0.114D-05 0.190D-05 0.464D-05 0.187D-06 0.119D-04 0.157D-04
 Coeff:      0.835D-04 0.193D-04-0.969D-03-0.714D-03 0.347D-02 0.661D-02
 Coeff:     -0.153D-02-0.376D-01-0.598D-01 0.187D+00 0.904D+00
 Gap=     0.246 Goal=   None    Shift=    0.000
 RMSDP=3.43D-07 MaxDP=2.42D-05 DE=-5.55D-10 OVMax= 6.34D-06

 Cycle  18  Pass 1  IDiag  1:
 RMSU=  1.03D-07    CP:  1.47D-01  1.70D+00  1.47D+00  4.11D-01  7.69D-01
                    CP:  9.60D-01  1.34D+00  2.27D+00  1.63D+00  1.72D+00
                    CP:  1.70D+00  1.48D+00  1.49D+00  1.55D+00  1.33D+00
                    CP:  1.41D+00  1.25D+00
 E= -3010.54026146011     Delta-E=       -0.000000000093 Rises=F Damp=F
 DIIS: error= 1.39D-07 at cycle  18 NSaved=  18.
 NSaved=18 IEnMin=18 EnMin= -3010.54026146011     IErMin=18 ErrMin= 1.39D-07
 ErrMax= 1.39D-07  0.00D+00 EMaxC= 1.00D-01 BMatC= 5.03D-12 BMatP= 5.35D-11
 IDIUse=1 WtCom= 1.00D+00 WtEn= 0.00D+00
 Coeff-Com: -0.627D-06 0.935D-06 0.652D-06-0.837D-07-0.360D-05 0.346D-05
 Coeff-Com:  0.105D-03 0.226D-03-0.300D-03-0.102D-02-0.499D-03 0.280D-02
 Coeff-Com:  0.907D-02-0.524D-02-0.577D-01-0.563D-01 0.195D+00 0.914D+00
 Coeff:     -0.627D-06 0.935D-06 0.652D-06-0.837D-07-0.360D-05 0.346D-05
 Coeff:      0.105D-03 0.226D-03-0.300D-03-0.102D-02-0.499D-03 0.280D-02
 Coeff:      0.907D-02-0.524D-02-0.577D-01-0.563D-01 0.195D+00 0.914D+00
 Gap=     0.246 Goal=   None    Shift=    0.000
 RMSDP=1.98D-07 MaxDP=1.90D-05 DE=-9.32D-11 OVMax= 2.98D-06

 Cycle  19  Pass 1  IDiag  1:
 RMSU=  3.33D-08    CP:  1.47D-01  1.70D+00  1.47D+00  4.11D-01  7.69D-01
                    CP:  9.60D-01  1.34D+00  2.27D+00  1.63D+00  1.72D+00
                    CP:  1.70D+00  1.48D+00  1.49D+00  1.55D+00  1.34D+00
                    CP:  1.46D+00  1.48D+00  1.36D+00
 E= -3010.54026146018     Delta-E=       -0.000000000079 Rises=F Damp=F
 DIIS: error= 9.64D-08 at cycle  19 NSaved=  19.
 NSaved=19 IEnMin=19 EnMin= -3010.54026146018     IErMin=19 ErrMin= 9.64D-08
 ErrMax= 9.64D-08  0.00D+00 EMaxC= 1.00D-01 BMatC= 9.95D-13 BMatP= 5.03D-12
 IDIUse=1 WtCom= 1.00D+00 WtEn= 0.00D+00
 Coeff-Com:  0.972D-07-0.173D-06-0.480D-06 0.808D-07-0.261D-05-0.239D-05
 Coeff-Com:  0.121D-04 0.376D-04 0.896D-04-0.110D-03-0.716D-03-0.231D-03
 Coeff-Com:  0.218D-02 0.524D-02-0.649D-02-0.451D-01-0.807D-01 0.299D+00
 Coeff-Com:  0.827D+00
 Coeff:      0.972D-07-0.173D-06-0.480D-06 0.808D-07-0.261D-05-0.239D-05
 Coeff:      0.121D-04 0.376D-04 0.896D-04-0.110D-03-0.716D-03-0.231D-03
 Coeff:      0.218D-02 0.524D-02-0.649D-02-0.451D-01-0.807D-01 0.299D+00
 Coeff:      0.827D+00
 Gap=     0.246 Goal=   None    Shift=    0.000
 RMSDP=6.80D-08 MaxDP=5.81D-06 DE=-7.91D-11 OVMax= 1.32D-06

 Cycle  20  Pass 1  IDiag  1:
 RMSU=  1.46D-08    CP:  1.47D-01  1.70D+00  1.47D+00  4.11D-01  7.69D-01
                    CP:  9.60D-01  1.34D+00  2.27D+00  1.63D+00  1.72D+00
                    CP:  1.70D+00  1.48D+00  1.49D+00  1.56D+00  1.35D+00
                    CP:  1.47D+00  1.54D+00  1.56D+00  1.35D+00
 E= -3010.54026146018     Delta-E=        0.000000000009 Rises=F Damp=F
 DIIS: error= 5.18D-08 at cycle  20 NSaved=  20.
 NSaved=20 IEnMin=19 EnMin= -3010.54026146018     IErMin=20 ErrMin= 5.18D-08
 ErrMax= 5.18D-08  0.00D+00 EMaxC= 1.00D-01 BMatC= 1.22D-13 BMatP= 9.95D-13
 IDIUse=1 WtCom= 1.00D+00 WtEn= 0.00D+00
 Coeff-Com:  0.123D-06-0.179D-06-0.142D-06-0.847D-07 0.363D-06-0.322D-07
 Coeff-Com: -0.123D-04-0.256D-04 0.383D-04 0.123D-03 0.898D-04-0.327D-03
 Coeff-Com: -0.143D-02 0.809D-03 0.803D-02 0.688D-02-0.286D-01-0.148D+00
 Coeff-Com:  0.114D-02 0.116D+01
 Coeff:      0.123D-06-0.179D-06-0.142D-06-0.847D-07 0.363D-06-0.322D-07
 Coeff:     -0.123D-04-0.256D-04 0.383D-04 0.123D-03 0.898D-04-0.327D-03
 Coeff:     -0.143D-02 0.809D-03 0.803D-02 0.688D-02-0.286D-01-0.148D+00
 Coeff:      0.114D-02 0.116D+01
 Gap=     0.246 Goal=   None    Shift=    0.000
 RMSDP=3.46D-08 MaxDP=3.10D-06 DE= 9.09D-12 OVMax= 9.25D-07

 Cycle  21  Pass 1  IDiag  1:
 Restarting incremental Fock formation.
 E= -3010.54026146018     Delta-E=       -0.000000000003 Rises=F Damp=F
 DIIS: error= 2.00D-08 at cycle  21 NSaved=  20.
 NSaved=20 IEnMin=18 EnMin= -3010.54026146018     IErMin=20 ErrMin= 2.00D-08
 ErrMax= 2.00D-08  0.00D+00 EMaxC= 1.00D-01 BMatC= 2.35D-14 BMatP= 1.22D-13
 IDIUse=1 WtCom= 1.00D+00 WtEn= 0.00D+00
 Coeff-Com:  0.897D-09 0.137D-07-0.882D-07 0.424D-06 0.757D-06-0.150D-05
 Coeff-Com: -0.660D-05-0.175D-04 0.125D-04 0.146D-03 0.312D-04-0.400D-03
 Coeff-Com: -0.912D-03 0.159D-02 0.789D-02 0.111D-01-0.750D-01-0.138D+00
 Coeff-Com:  0.223D+00 0.971D+00
 Coeff:      0.897D-09 0.137D-07-0.882D-07 0.424D-06 0.757D-06-0.150D-05
 Coeff:     -0.660D-05-0.175D-04 0.125D-04 0.146D-03 0.312D-04-0.400D-03
 Coeff:     -0.912D-03 0.159D-02 0.789D-02 0.111D-01-0.750D-01-0.138D+00
 Coeff:      0.223D+00 0.971D+00
 Gap=     0.246 Goal=   None    Shift=    0.000
 RMSDP=1.62D-08 MaxDP=1.68D-06 DE=-3.18D-12 OVMax= 3.48D-07

 Cycle  22  Pass 1  IDiag  1:
 RMSU=  1.23D-08    CP:  1.00D+00
 E= -3010.54026146025     Delta-E=       -0.000000000067 Rises=F Damp=F
 DIIS: error= 6.79D-09 at cycle  22 NSaved=  20.
 NSaved=20 IEnMin=20 EnMin= -3010.54026146025     IErMin=20 ErrMin= 6.79D-09
 ErrMax= 6.79D-09  0.00D+00 EMaxC= 1.00D-01 BMatC= 4.08D-15 BMatP= 2.35D-14
 IDIUse=1 WtCom= 1.00D+00 WtEn= 0.00D+00
 Coeff-Com:  0.123D-07-0.621D-08-0.993D-08 0.987D-07 0.107D-05-0.495D-07
 Coeff-Com: -0.948D-05-0.149D-04 0.238D-04 0.391D-04 0.130D-03-0.284D-03
 Coeff-Com: -0.564D-03 0.705D-03 0.566D-02 0.144D-02-0.280D-01-0.125D+00
 Coeff-Com:  0.216D+00 0.930D+00
 Coeff:      0.123D-07-0.621D-08-0.993D-08 0.987D-07 0.107D-05-0.495D-07
 Coeff:     -0.948D-05-0.149D-04 0.238D-04 0.391D-04 0.130D-03-0.284D-03
 Coeff:     -0.564D-03 0.705D-03 0.566D-02 0.144D-02-0.280D-01-0.125D+00
 Coeff:      0.216D+00 0.930D+00
 Gap=     0.246 Goal=   None    Shift=    0.000
 RMSDP=7.77D-09 MaxDP=1.07D-06 DE=-6.68D-11 OVMax= 1.43D-07

 Cycle  23  Pass 1  IDiag  1:
 RMSU=  5.22D-09    CP:  1.00D+00  1.16D+00
 E= -3010.54026146021     Delta-E=        0.000000000031 Rises=F Damp=F
 DIIS: error= 1.63D-09 at cycle  23 NSaved=  20.
 NSaved=20 IEnMin=19 EnMin= -3010.54026146025     IErMin=20 ErrMin= 1.63D-09
 ErrMax= 1.63D-09  0.00D+00 EMaxC= 1.00D-01 BMatC= 7.52D-16 BMatP= 4.08D-15
 IDIUse=1 WtCom= 1.00D+00 WtEn= 0.00D+00
 Large coefficients: NSaved= 20 BigCof=    0.00 CofMax=   10.00 Det=-2.66D-15
 Inversion failed.  Reducing to 19 matrices.
 Large coefficients: NSaved= 19 BigCof=    0.00 CofMax=   10.00 Det=-2.69D-15
 Inversion failed.  Reducing to 18 matrices.
 Large coefficients: NSaved= 18 BigCof=    0.00 CofMax=   10.00 Det=-2.71D-15
 Inversion failed.  Reducing to 17 matrices.
 Large coefficients: NSaved= 17 BigCof=    0.00 CofMax=   10.00 Det=-2.74D-15
 Inversion failed.  Reducing to 16 matrices.
 Large coefficients: NSaved= 16 BigCof=    0.00 CofMax=   10.00 Det=-2.74D-15
 Inversion failed.  Reducing to 15 matrices.
 Coeff-Com: -0.947D-06-0.173D-05 0.309D-05 0.606D-06-0.426D-05-0.317D-04
 Coeff-Com:  0.113D-04 0.146D-03 0.116D-02 0.294D-02 0.475D-02-0.470D-01
 Coeff-Com: -0.490D-01 0.248D+00 0.839D+00
 Coeff:     -0.947D-06-0.173D-05 0.309D-05 0.606D-06-0.426D-05-0.317D-04
 Coeff:      0.113D-04 0.146D-03 0.116D-02 0.294D-02 0.475D-02-0.470D-01
 Coeff:     -0.490D-01 0.248D+00 0.839D+00
 Gap=     0.246 Goal=   None    Shift=    0.000
 RMSDP=1.57D-09 MaxDP=1.03D-07 DE= 3.09D-11 OVMax= 3.44D-08

 SCF Done:  E(RwB97XD) =  -3010.54026146     A.U. after   23 cycles
            NFock= 23  Conv=0.16D-08     -V/T= 2.0016
 KE= 3.005868982392D+03 PE=-8.702031667023D+03 EE= 1.910851305398D+03
 Leave Link  502 at Thu May  2 14:22:19 2024, MaxMem=   134217728 cpu:            1416.5 elap:            1416.7
 (Enter /software/gaussian/g16-c01/sse4/g16/l601.exe)
 Copying SCF densities to generalized density rwf, IOpCl= 0 IROHF=0.

 **********************************************************************

            Population analysis using the SCF Density.

 **********************************************************************

 Alpha  occ. eigenvalues -- -483.33574 -62.88622 -56.68282 -56.67755 -56.67755
 Alpha  occ. eigenvalues --  -19.46571 -19.46267 -14.85807 -10.60210 -10.59581
 Alpha  occ. eigenvalues --  -10.58425 -10.57201 -10.53505 -10.53130  -9.04447
 Alpha  occ. eigenvalues --   -6.87034  -6.85299  -6.85293  -2.96960  -2.96496
 Alpha  occ. eigenvalues --   -2.96489  -2.95101  -2.95101  -1.50081  -1.33037
 Alpha  occ. eigenvalues --   -1.23393  -1.13926  -1.13174  -1.06327  -1.01120
 Alpha  occ. eigenvalues --   -0.96163  -0.91175  -0.85569  -0.81354  -0.80881
 Alpha  occ. eigenvalues --   -0.80342  -0.78692  -0.76449  -0.76196  -0.73076
 Alpha  occ. eigenvalues --   -0.69135  -0.67802  -0.64142  -0.61393  -0.59180
 Alpha  occ. eigenvalues --   -0.57820  -0.57274  -0.56051  -0.55668
 Alpha virt. eigenvalues --   -0.31099  -0.20669  -0.17627  -0.15216  -0.13339
 Alpha virt. eigenvalues --   -0.11058  -0.10214  -0.07508  -0.06261  -0.05529
 Alpha virt. eigenvalues --   -0.04719  -0.03961  -0.03341  -0.02847  -0.01306
 Alpha virt. eigenvalues --   -0.00514   0.00259   0.01055   0.02218   0.02596
 Alpha virt. eigenvalues --    0.03113   0.04450   0.04709   0.05333   0.06100
 Alpha virt. eigenvalues --    0.06410   0.07172   0.08701   0.09075   0.09228
 Alpha virt. eigenvalues --    0.10240   0.10837   0.11391   0.12501   0.12788
 Alpha virt. eigenvalues --    0.13392   0.13556   0.14021   0.14533   0.16156
 Alpha virt. eigenvalues --    0.17017   0.17929   0.18634   0.19642   0.19702
 Alpha virt. eigenvalues --    0.21149   0.21597   0.22661   0.24364   0.24492
 Alpha virt. eigenvalues --    0.25309   0.26091   0.27540   0.28253   0.28904
 Alpha virt. eigenvalues --    0.29351   0.32741   0.32823   0.34711   0.35690
 Alpha virt. eigenvalues --    0.37081   0.37603   0.39147   0.40583   0.41164
 Alpha virt. eigenvalues --    0.43045   0.43999   0.45746   0.46536   0.47731
 Alpha virt. eigenvalues --    0.48018   0.49190   0.50069   0.50997   0.53777
 Alpha virt. eigenvalues --    0.54006   0.54178   0.57131   0.58133   0.59682
 Alpha virt. eigenvalues --    0.61357   0.62056   0.63179   0.65170   0.68086
 Alpha virt. eigenvalues --    0.70947   0.71133   0.72731   0.73315   0.74334
 Alpha virt. eigenvalues --    0.75186   0.78491   0.80228   0.81453   0.84740
 Alpha virt. eigenvalues --    0.86564   0.87254   0.91370   0.93720   0.98721
 Alpha virt. eigenvalues --    0.99910   1.01926   1.03742   1.05057   1.06657
 Alpha virt. eigenvalues --    1.07484   1.12532   1.13341   1.14178   1.18209
 Alpha virt. eigenvalues --    1.20033   1.22728   1.27801   1.32576   1.35910
 Alpha virt. eigenvalues --    1.36286   1.38431   1.42117   1.53962   1.56057
 Alpha virt. eigenvalues --    1.57239   1.59470   1.60685   1.63531   1.64971
 Alpha virt. eigenvalues --    1.67765   1.70988   1.73729   1.74685   1.78966
 Alpha virt. eigenvalues --    1.82871   1.85154   1.87692   1.92401   1.94321
 Alpha virt. eigenvalues --    1.97269   2.01181   2.02622   2.06518   2.07751
 Alpha virt. eigenvalues --    2.11870   2.14102   2.21942   2.23355   2.27620
 Alpha virt. eigenvalues --    2.33346   2.38966   2.41453   2.43751   2.52837
 Alpha virt. eigenvalues --    2.57233   2.62822   2.65780   2.68504   2.71509
 Alpha virt. eigenvalues --    2.73582   2.76126   2.77072   2.80302   2.81311
 Alpha virt. eigenvalues --    2.92430   2.97438   3.00995   3.04571   3.08607
 Alpha virt. eigenvalues --    3.14638   3.15981   3.17347   3.22200   3.26541
 Alpha virt. eigenvalues --    3.28103   3.37627   3.46426   3.49867   3.54625
 Alpha virt. eigenvalues --    3.57065   3.68733   3.74086   3.83103   3.86814
 Alpha virt. eigenvalues --    4.07454   4.08278   4.17099   4.21119   4.41052
 Alpha virt. eigenvalues --    4.44939   4.53998   4.59717   4.93531   4.96160
 Alpha virt. eigenvalues --    5.05387   5.09315   5.61842   6.15034   6.65466
 Alpha virt. eigenvalues --    7.46296   7.48640   7.58821  23.21626  23.60855
 Alpha virt. eigenvalues --   23.70133  23.77631  23.95111  24.02141  35.31355
 Alpha virt. eigenvalues --   47.91705  49.85047  49.93707 289.79375 289.81718
 Alpha virt. eigenvalues --  289.943621020.92930
          Condensed to atoms (all electrons):
               1          2          3          4          5          6
     1  C    7.471247  -1.410065   0.442708  -0.034712   0.291428   0.043134
     2  C   -1.410065  16.777147  -2.944834   0.442209  -0.008828   0.223876
     3  C    0.442708  -2.944834  20.943595  -1.365701   0.019194   0.078892
     4  C   -0.034712   0.442209  -1.365701   6.449594   0.014164  -0.010651
     5  H    0.291428  -0.008828   0.019194   0.014164   0.277411  -0.000890
     6  H    0.043134   0.223876   0.078892  -0.010651  -0.000890   0.266706
     7  H    0.046343  -0.025904   0.021992   0.303476  -0.002166   0.000007
     8  N   -0.088592  -0.305020  -2.129886   0.042744  -0.000202  -0.023225
     9  O    0.015749   0.281271   0.068881  -0.026804  -0.000022  -0.001990
    10  O    0.232158  -0.090619  -0.266790  -0.018190  -0.000045   0.017115
    11  C    0.761007  -0.799657   2.070434  -0.299086  -0.018014   0.006106
    12  H   -0.027718   0.023313   0.011284   0.050532   0.000044  -0.000019
    13  C   -1.652527  -6.102283 -10.695584   0.796017   0.021017  -0.004814
    14  H    0.010228  -0.008008   0.021658  -0.008998  -0.000029   0.000066
    15  Br   0.018209  -0.262169  -0.226837  -0.038576   0.000121  -0.000431
               7          8          9         10         11         12
     1  C    0.046343  -0.088592   0.015749   0.232158   0.761007  -0.027718
     2  C   -0.025904  -0.305020   0.281271  -0.090619  -0.799657   0.023313
     3  C    0.021992  -2.129886   0.068881  -0.266790   2.070434   0.011284
     4  C    0.303476   0.042744  -0.026804  -0.018190  -0.299086   0.050532
     5  H   -0.002166  -0.000202  -0.000022  -0.000045  -0.018014   0.000044
     6  H    0.000007  -0.023225  -0.001990   0.017115   0.006106  -0.000019
     7  H    0.333839  -0.000035   0.000009  -0.000001   0.013026  -0.002886
     8  N   -0.000035   7.773685  -0.046821   0.246320  -0.401819  -0.000158
     9  O    0.000009  -0.046821   8.040234   0.012757   0.307210   0.000230
    10  O   -0.000001   0.246320   0.012757   7.660727  -0.009544  -0.000039
    11  C    0.013026  -0.401819   0.307210  -0.009544   8.997823   0.265178
    12  H   -0.002886  -0.000158   0.000230  -0.000039   0.265178   0.379351
    13  C   -0.022911   2.008109  -0.608463   0.054512  -4.685100   0.004940
    14  H   -0.000012  -0.022667   0.010968  -0.001145   0.127478  -0.006100
    15  Br  -0.000379   0.182446  -0.057718   0.003392  -0.128322   0.003777
              13         14         15
     1  C   -1.652527   0.010228   0.018209
     2  C   -6.102283  -0.008008  -0.262169
     3  C  -10.695584   0.021658  -0.226837
     4  C    0.796017  -0.008998  -0.038576
     5  H    0.021017  -0.000029   0.000121
     6  H   -0.004814   0.000066  -0.000431
     7  H   -0.022911  -0.000012  -0.000379
     8  N    2.008109  -0.022667   0.182446
     9  O   -0.608463   0.010968  -0.057718
    10  O    0.054512  -0.001145   0.003392
    11  C   -4.685100   0.127478  -0.128322
    12  H    0.004940  -0.006100   0.003777
    13  C   26.420882   0.202862   0.621063
    14  H    0.202862   0.358510  -0.057838
    15  Br   0.621063  -0.057838  34.873628
 Mulliken charges:
               1
     1  C   -0.118597
     2  C    0.209571
     3  C   -0.049006
     4  C   -0.296019
     5  H    0.406816
     6  H    0.406117
     7  H    0.335603
     8  N   -0.234878
     9  O    0.004511
    10  O    0.159392
    11  C   -0.206719
    12  H    0.298270
    13  C   -0.357721
    14  H    0.373026
    15  Br   0.069634
 Sum of Mulliken charges =   1.00000
 Mulliken charges with hydrogens summed into heavy atoms:
               1
     1  C    0.288220
     2  C    0.615689
     3  C   -0.049006
     4  C    0.039584
     8  N   -0.234878
     9  O    0.004511
    10  O    0.159392
    11  C    0.091551
    13  C    0.015305
    15  Br   0.069634
 Electronic spatial extent (au):  <R**2>=           3949.5923
 Charge=              1.0000 electrons
 Dipole moment (field-independent basis, Debye):
    X=              2.5498    Y=              3.6524    Z=             -0.1426  Tot=              4.4566
 Quadrupole moment (field-independent basis, Debye-Ang):
   XX=            -68.0916   YY=            -53.8453   ZZ=            -63.8836
   XY=              6.5196   XZ=             -1.2371   YZ=              0.0438
 Traceless Quadrupole moment (field-independent basis, Debye-Ang):
   XX=             -6.1514   YY=              8.0949   ZZ=             -1.9435
   XY=              6.5196   XZ=             -1.2371   YZ=              0.0438
 Octapole moment (field-independent basis, Debye-Ang**2):
  XXX=           -512.4609  YYY=            120.1590  ZZZ=             87.9490  XYY=           -142.5161
  XXY=             58.9845  XXZ=             28.3642  XZZ=           -136.6731  YZZ=             25.5915
  YYZ=             32.9093  XYZ=              2.7080
 Hexadecapole moment (field-independent basis, Debye-Ang**3):
 XXXX=          -3437.5256 YYYY=           -738.1010 ZZZZ=           -410.5543 XXXY=            318.3594
 XXXZ=            189.4565 YYYX=            240.1021 YYYZ=           -195.6869 ZZZX=            178.8393
 ZZZY=           -160.6794 XXYY=           -637.4891 XXZZ=           -537.2235 YYZZ=           -189.5375
 XXYZ=            -54.2802 YYXZ=             65.3554 ZZXY=             47.1776
 N-N= 7.747711177732D+02 E-N=-8.702031667208D+03  KE= 3.005868982392D+03
 No NMR shielding tensors so no spin-rotation constants.
 Leave Link  601 at Thu May  2 14:22:26 2024, MaxMem=   134217728 cpu:               7.4 elap:               7.4
 (Enter /software/gaussian/g16-c01/sse4/g16/l9999.exe)
 Unable to Open any file for archive entry.
 1\1\GINC-BHX0010\SP\RwB97XD\6-311+G(d)\C6H5Br1N1O2(1+)\BWEIGHT\02-May-
 2024\0\\#P wB97XD/6-311+G* NoSymm #P Field=Y-155\\TitleMe\\1,1\C,0,0.5
 193,1.233,-0.0319\C,0,1.9445,1.2692,-0.0367\C,0,2.6204,0.0928,-0.025\C
 ,0,-0.196,0.0301,0.001\H,0,-0.0207,2.1742,-0.0434\H,0,2.4828,2.2089,-0
 .0361\H,0,-1.2777,0.0399,0.0117\N,0,4.0921,0.0959,0.0366\O,0,4.6393,-1
 .0217,0.1446\O,0,4.6649,1.1984,-0.0233\C,0,0.4943,-1.1671,0.021\H,0,-0
 .0325,-2.1149,0.0545\C,0,1.9629,-1.2165,-0.0211\H,0,2.4436,-1.9631,0.6
 151\Br,0,2.173,-1.9491,-1.9062\\Version=ES64L-G16RevC.01\HF=-3010.5402
 615\RMSD=1.571e-09\Dipole=-3.3260469,2.665069,1.1930997\Quadrupole=-4.
 5734217,6.0183609,-1.4449392,4.8471406,-0.9197822,0.0325803\PG=C01 [X(
 C6H5Br1N1O2)]\\@
 The archive entry for this job was punched.


 If fifty million people say a stupid thing,
 it is still a stupid thing.
                   -- Anatole France
 Job cpu time:       0 days  0 hours 24 minutes 46.9 seconds.
 Elapsed time:       0 days  0 hours 24 minutes 47.2 seconds.
 File lengths (MBytes):  RWF=     40 Int=      0 D2E=      0 Chk=     32 Scr=      1
 Normal termination of Gaussian 16 at Thu May  2 14:22:27 2024.
