 Entering Gaussian System, Link 0=g16
 Initial command:
 /software/gaussian/g16-c01/sse4/g16/l1.exe "/local_scratch/24657581/Gau-26237.inp" -scrdir="/local_scratch/24657581/"
 Entering Link 1 = /software/gaussian/g16-c01/sse4/g16/l1.exe PID=     26238.
  
 Copyright (c) 1988-2019, Gaussian, Inc.  All Rights Reserved.
  
 This is part of the Gaussian(R) 16 program.  It is based on
 the Gaussian(R) 09 system (copyright 2009, Gaussian, Inc.),
 the Gaussian(R) 03 system (copyright 2003, Gaussian, Inc.),
 the Gaussian(R) 98 system (copyright 1998, Gaussian, Inc.),
 the Gaussian(R) 94 system (copyright 1995, Gaussian, Inc.),
 the Gaussian 92(TM) system (copyright 1992, Gaussian, Inc.),
 the Gaussian 90(TM) system (copyright 1990, Gaussian, Inc.),
 the Gaussian 88(TM) system (copyright 1988, Gaussian, Inc.),
 the Gaussian 86(TM) system (copyright 1986, Carnegie Mellon
 University), and the Gaussian 82(TM) system (copyright 1983,
 Carnegie Mellon University). Gaussian is a federally registered
 trademark of Gaussian, Inc.
  
 This software contains proprietary and confidential information,
 including trade secrets, belonging to Gaussian, Inc.
  
 This software is provided under written license and may be
 used, copied, transmitted, or stored only in accord with that
 written license.
  
 The following legend is applicable only to US Government
 contracts under FAR:
  
                    RESTRICTED RIGHTS LEGEND
  
 Use, reproduction and disclosure by the US Government is
 subject to restrictions as set forth in subparagraphs (a)
 and (c) of the Commercial Computer Software - Restricted
 Rights clause in FAR 52.227-19.
  
 Gaussian, Inc.
 340 Quinnipiac St., Bldg. 40, Wallingford CT 06492
  
  
 ---------------------------------------------------------------
 Warning -- This program may not be used in any manner that
 competes with the business of Gaussian, Inc. or will provide
 assistance to any competitor of Gaussian, Inc.  The licensee
 of this program is prohibited from giving any competitor of
 Gaussian, Inc. access to this program.  By using this program,
 the user acknowledges that Gaussian, Inc. is engaged in the
 business of creating and licensing software in the field of
 computational chemistry and represents and warrants to the
 licensee that it is not a competitor of Gaussian, Inc. and that
 it will not use this program in any manner prohibited above.
 ---------------------------------------------------------------
  

 Cite this work as:
 Gaussian 16, Revision C.01,
 M. J. Frisch, G. W. Trucks, H. B. Schlegel, G. E. Scuseria, 
 M. A. Robb, J. R. Cheeseman, G. Scalmani, V. Barone, 
 G. A. Petersson, H. Nakatsuji, X. Li, M. Caricato, A. V. Marenich, 
 J. Bloino, B. G. Janesko, R. Gomperts, B. Mennucci, H. P. Hratchian, 
 J. V. Ortiz, A. F. Izmaylov, J. L. Sonnenberg, D. Williams-Young, 
 F. Ding, F. Lipparini, F. Egidi, J. Goings, B. Peng, A. Petrone, 
 T. Henderson, D. Ranasinghe, V. G. Zakrzewski, J. Gao, N. Rega, 
 G. Zheng, W. Liang, M. Hada, M. Ehara, K. Toyota, R. Fukuda, 
 J. Hasegawa, M. Ishida, T. Nakajima, Y. Honda, O. Kitao, H. Nakai, 
 T. Vreven, K. Throssell, J. A. Montgomery, Jr., J. E. Peralta, 
 F. Ogliaro, M. J. Bearpark, J. J. Heyd, E. N. Brothers, K. N. Kudin, 
 V. N. Staroverov, T. A. Keith, R. Kobayashi, J. Normand, 
 K. Raghavachari, A. P. Rendell, J. C. Burant, S. S. Iyengar, 
 J. Tomasi, M. Cossi, J. M. Millam, M. Klene, C. Adamo, R. Cammi, 
 J. W. Ochterski, R. L. Martin, K. Morokuma, O. Farkas, 
 J. B. Foresman, and D. J. Fox, Gaussian, Inc., Wallingford CT, 2019.
 
 ******************************************
 Gaussian 16:  ES64L-G16RevC.01  3-Jul-2019
                 1-May-2024 
 ******************************************
 %chk=geometry.chk
 %mem=9GB
 %nprocshared=12
 Will use up to   12 processors via shared memory.
 ----------------------------------------
 #P wB97XD/6-311+G* NoSymm #P Field=Z+194
 ----------------------------------------
 1/38=1,172=1/1;
 2/12=2,15=1,17=6,18=5,40=1/2;
 3/5=4,6=6,7=11,11=2,14=3,15=194,25=1,30=1,74=-58/1,2,3;
 4//1;
 5/5=2,38=5/2;
 6/7=2,8=2,9=2,10=2,28=1/1;
 99/5=1,9=1/99;
 Leave Link    1 at Wed May  1 15:09:06 2024, MaxMem=  1207959552 cpu:               1.1 elap:               1.1
 (Enter /software/gaussian/g16-c01/sse4/g16/l101.exe)
 -------
 TitleMe
 -------
 Symbolic Z-matrix:
 Charge =  1 Multiplicity = 1
 C                     0.0295    1.3397    0.0682 
 C                     1.4348    1.2867    0.0064 
 C                     2.1118    0.0511   -0.0054 
 C                     1.4451   -1.1372    0.0312 
 C                    -0.6879    0.1682    0.11 
 H                    -0.4713    2.2984    0.0781 
 H                     2.0273    2.1965   -0.0322 
 H                     1.9897   -2.0764    0.0232 
 H                    -1.7716    0.1804    0.1582 
 N                     3.5864    0.051    -0.0675 
 O                     4.1471   -1.0597   -0.0881 
 O                     4.145     1.1639   -0.0901 
 C                    -0.0236   -1.1458    0.0835 
 H                    -0.4367   -1.8725    0.7889 
 Br                   -0.5359   -1.8697   -1.7408 
 
 ITRead=  0  0  0  0  0  0  0  0  0  0  0  0  0  0  0
 MicOpt= -1 -1 -1 -1 -1 -1 -1 -1 -1 -1 -1 -1 -1 -1 -1
 NAtoms=     15 NQM=       15 NQMF=       0 NMMI=      0 NMMIF=      0
                NMic=       0 NMicF=      0.
                    Isotopes and Nuclear Properties:
 (Nuclear quadrupole moments (NQMom) in fm**2, nuclear magnetic moments (NMagM)
  in nuclear magnetons)

  Atom         1           2           3           4           5           6           7           8           9          10
 IAtWgt=          12          12          12          12          12           1           1           1           1          14
 AtmWgt=  12.0000000  12.0000000  12.0000000  12.0000000  12.0000000   1.0078250   1.0078250   1.0078250   1.0078250  14.0030740
 NucSpn=           0           0           0           0           0           1           1           1           1           2
 AtZEff=  -0.0000000  -0.0000000  -0.0000000  -0.0000000  -0.0000000  -0.0000000  -0.0000000  -0.0000000  -0.0000000  -0.0000000
 NQMom=    0.0000000   0.0000000   0.0000000   0.0000000   0.0000000   0.0000000   0.0000000   0.0000000   0.0000000   2.0440000
 NMagM=    0.0000000   0.0000000   0.0000000   0.0000000   0.0000000   2.7928460   2.7928460   2.7928460   2.7928460   0.4037610
 AtZNuc=   6.0000000   6.0000000   6.0000000   6.0000000   6.0000000   1.0000000   1.0000000   1.0000000   1.0000000   7.0000000

  Atom        11          12          13          14          15
 IAtWgt=          16          16          12           1          79
 AtmWgt=  15.9949146  15.9949146  12.0000000   1.0078250  78.9183361
 NucSpn=           0           0           0           1           3
 AtZEff=  -0.0000000  -0.0000000  -0.0000000  -0.0000000  -0.0000000
 NQMom=    0.0000000   0.0000000   0.0000000   0.0000000  31.3000000
 NMagM=    0.0000000   0.0000000   0.0000000   2.7928460   2.1063990
 AtZNuc=   8.0000000   8.0000000   6.0000000   1.0000000  35.0000000
 Leave Link  101 at Wed May  1 15:09:07 2024, MaxMem=  1207959552 cpu:               1.4 elap:               1.4
 (Enter /software/gaussian/g16-c01/sse4/g16/l202.exe)
                          Input orientation:                          
 ---------------------------------------------------------------------
 Center     Atomic      Atomic             Coordinates (Angstroms)
 Number     Number       Type             X           Y           Z
 ---------------------------------------------------------------------
      1          6           0        0.029500    1.339700    0.068200
      2          6           0        1.434800    1.286700    0.006400
      3          6           0        2.111800    0.051100   -0.005400
      4          6           0        1.445100   -1.137200    0.031200
      5          6           0       -0.687900    0.168200    0.110000
      6          1           0       -0.471300    2.298400    0.078100
      7          1           0        2.027300    2.196500   -0.032200
      8          1           0        1.989700   -2.076400    0.023200
      9          1           0       -1.771600    0.180400    0.158200
     10          7           0        3.586400    0.051000   -0.067500
     11          8           0        4.147100   -1.059700   -0.088100
     12          8           0        4.145000    1.163900   -0.090100
     13          6           0       -0.023600   -1.145800    0.083500
     14          1           0       -0.436700   -1.872500    0.788900
     15         35           0       -0.535900   -1.869700   -1.740800
 ---------------------------------------------------------------------
                    Distance matrix (angstroms):
                    1          2          3          4          5
     1  C    0.000000
     2  C    1.407656   0.000000
     3  C    2.449874   1.408963   0.000000
     4  C    2.853126   2.424049   1.363043   0.000000
     5  C    1.374344   2.401589   2.804523   2.501993   0.000000
     6  H    1.081667   2.159142   3.424870   3.934226   2.141421
     7  H    2.176095   1.086408   2.147231   3.384750   3.392128
     8  H    3.938800   3.408612   2.131193   1.085702   3.495040
     9  H    2.143837   3.395283   3.888995   3.478413   1.084840
    10  N    3.785591   2.482297   1.475907   2.450862   4.279589
    11  O    4.768247   3.587631   2.320164   2.705743   4.992415
    12  O    4.122294   2.714696   2.319353   3.549540   4.938459
    13  C    2.486114   2.837240   2.449573   1.469656   1.472614
    14  H    3.324903   3.754379   3.290289   2.157764   2.165286
    15  Br   3.727252   4.110867   3.702891   2.756973   2.757100
                    6          7          8          9         10
     6  H    0.000000
     7  H    2.503108   0.000000
     8  H    5.019802   4.273425   0.000000
     9  H    2.486588   4.304945   4.388479   0.000000
    10  N    4.640790   2.652397   2.661486   5.364313   0.000000
    11  O    5.712624   3.885809   2.387560   6.052233   1.244373
    12  O    4.756638   2.356750   3.893289   6.002923   1.245428
    13  C    3.473180   3.923079   2.218790   2.195425   3.806210
    14  H    4.231175   4.827242   2.552506   2.528663   4.540772
    15  Br   4.548146   5.101303   3.087568   3.055498   4.845862
                   11         12         13         14         15
    11  O    0.000000
    12  O    2.223602   0.000000
    13  C    4.175117   4.768865   0.000000
    14  H    4.737193   5.566358   1.093770   0.000000
    15  Br   5.031700   5.817075   2.028436   2.531646   0.000000
 Symmetry turned off by external request.
 Stoichiometry    C6H5BrNO2(1+)
 Framework group  C1[X(C6H5BrNO2)]
 Deg. of freedom    39
 Full point group                 C1      NOp   1
 Rotational constants (GHZ):           1.8252210           0.5518633           0.4576002
 Leave Link  202 at Wed May  1 15:09:08 2024, MaxMem=  1207959552 cpu:               1.2 elap:               1.2
 (Enter /software/gaussian/g16-c01/sse4/g16/l301.exe)
 Standard basis: 6-311+G(d) (5D, 7F)
 Ernie: Thresh=  0.10000D-02 Tol=  0.10000D-05 Strict=F.
 The following finite field(s) will be applied:
 An electric field of              0.0000  0.0000  0.0194
   261 basis functions,   443 primitive gaussians,   273 cartesian basis functions
    49 alpha electrons       49 beta electrons
       nuclear repulsion energy       739.2122215416 Hartrees.
 IExCor= 4639 DFT=T Ex+Corr=wB97XD ExCW=0 ScaHFX=  1.000000
 ScaDFX=  1.000000  1.000000  1.000000  1.000000 ScalE2=  1.000000  1.000000
 IRadAn=      5 IRanWt=     -1 IRanGd=            0 ICorTp=0 IEmpDi=121
 HFx  wShort=  0.000000 wLong=  0.200000 cFull=  0.222036 cShort=  0.000000 cLong=  0.777964
 DFx  wShort=  0.000000 wLong=  0.200000 cFull=  0.000000 cShort=  0.000000 cLong=  1.000000
 NAtoms=   15 NActive=   15 NUniq=   15 SFac= 1.00D+00 NAtFMM=   60 NAOKFM=F Big=F
 Integral buffers will be    131072 words long.
 Raffenetti 2 integral format.
 Two-electron integral symmetry is turned off.
 R6Disp:  Grimme-D2 Dispersion energy=       -0.0077368520 Hartrees.
 Nuclear repulsion after empirical dispersion term =      739.2044846896 Hartrees.
 Leave Link  301 at Wed May  1 15:09:09 2024, MaxMem=  1207959552 cpu:               1.1 elap:               1.0
 (Enter /software/gaussian/g16-c01/sse4/g16/l302.exe)
 NPDir=0 NMtPBC=     1 NCelOv=     1 NCel=       1 NClECP=     1 NCelD=      1
         NCelK=      1 NCelE2=     1 NClLst=     1 CellRange=     0.0.
 One-electron integrals computed using PRISM.
 NBasis=   261 RedAO= T EigKep=  2.35D-06  NBF=   261
 NBsUse=   261 1.00D-06 EigRej= -1.00D+00 NBFU=   261
 Precomputing XC quadrature grid using
 IXCGrd= 4 IRadAn=           5 IRanWt=          -1 IRanGd=           0 AccXCQ= 0.00D+00.
 Generated NRdTot=       0 NPtTot=           0 NUsed=           0 NTot=          32
 NSgBfM=   273   273   273   273   273 MxSgAt=    15 MxSgA2=    15.
 Leave Link  302 at Wed May  1 15:09:31 2024, MaxMem=  1207959552 cpu:              21.6 elap:              21.6
 (Enter /software/gaussian/g16-c01/sse4/g16/l303.exe)
 DipDrv:  MaxL=1.
 The nuclear repulsion energy is now       737.0031387586 hartrees.
 Leave Link  303 at Wed May  1 15:09:34 2024, MaxMem=  1207959552 cpu:               3.3 elap:               3.3
 (Enter /software/gaussian/g16-c01/sse4/g16/l401.exe)
 ExpMin= 3.50D-02 ExpMax= 4.40D+05 ExpMxC= 1.51D+04 IAcc=3 IRadAn=         5 AccDes= 0.00D+00
 Harris functional with IExCor= 4639 and IRadAn=       5 diagonalized for initial guess.
 HarFok:  IExCor= 4639 AccDes= 0.00D+00 IRadAn=         5 IDoV= 1 UseB2=F ITyADJ=14
 ICtDFT=  3500011 ScaDFX=  1.000000  1.000000  1.000000  1.000000
 FoFCou: FMM=F IPFlag=           0 FMFlag=      100000 FMFlg1=           0
         NFxFlg=           0 DoJE=T BraDBF=F KetDBF=T FulRan=T
         wScrn=  0.000000 ICntrl=       500 IOpCl=  0 I1Cent=   200000004 NGrid=           0
         NMat0=    1 NMatS0=      1 NMatT0=    0 NMatD0=    1 NMtDS0=    0 NMtDT0=    0
 Symmetry not used in FoFCou.
 Harris En= -2970.62097553883    
 JPrj=0 DoOrth=F DoCkMO=F.
 Leave Link  401 at Wed May  1 15:10:05 2024, MaxMem=  1207959552 cpu:              30.8 elap:              30.8
 (Enter /software/gaussian/g16-c01/sse4/g16/l502.exe)
 Two-electron integral symmetry not used.
 Closed shell SCF:
 Using DIIS extrapolation, IDIIS=  1040.
 NGot=  1207959552 LenX=  1207804877 LenY=  1207729907
 Requested convergence on RMS density matrix=1.00D-08 within 128 cycles.
 Requested convergence on MAX density matrix=1.00D-06.
 Requested convergence on             energy=1.00D-06.
 No special actions if energy rises.
 Fock matrices will be formed incrementally for  20 cycles.

 Cycle   1  Pass 1  IDiag  1:
 FoFJK:  IHMeth= 1 ICntrl=       0 DoSepK=T KAlg= 0 I1Cent=           0 FoldK=F
 IRaf=         1 NMat=       1 IRICut=       1 DoRegI=T DoRafI=F ISym2E= 0 IDoP0=0 IntGTp=1.
 FoFCou: FMM=F IPFlag=           0 FMFlag=      100000 FMFlg1=           0
         NFxFlg=           0 DoJE=T BraDBF=F KetDBF=F FulRan=T
         wScrn=  0.000000 ICntrl=       500 IOpCl=  0 I1Cent=           0 NGrid=           0
         NMat0=    1 NMatS0=      1 NMatT0=    0 NMatD0=    1 NMtDS0=    0 NMtDT0=    0
 Symmetry not used in FoFCou.
 E= -3009.68354895995    
 DIIS: error= 3.21D-01 at cycle   1 NSaved=   1.
 NSaved= 1 IEnMin= 1 EnMin= -3009.68354895995     IErMin= 1 ErrMin= 3.21D-01
 ErrMax= 3.21D-01  0.00D+00 EMaxC= 1.00D-01 BMatC= 1.20D+01 BMatP= 1.20D+01
 IDIUse=3 WtCom= 0.00D+00 WtEn= 1.00D+00
 Coeff-Com:  0.100D+01
 Coeff-En:   0.100D+01
 Coeff:      0.100D+01
 Gap=     0.329 Goal=   None    Shift=    0.000
 GapD=    0.329 DampG=1.000 DampE=0.250 DampFc=0.2500 IDamp=-1.
 Damping current iteration by 2.50D-01
 RMSDP=1.26D-01 MaxDP=1.76D+01              OVMax= 2.54D-01

 Cycle   2  Pass 1  IDiag  1:
 RMSU=  6.71D-03    CP:  8.25D-01
 E= -3009.98791029035     Delta-E=       -0.304361330400 Rises=F Damp=T
 DIIS: error= 2.25D-01 at cycle   2 NSaved=   2.
 NSaved= 2 IEnMin= 2 EnMin= -3009.98791029035     IErMin= 2 ErrMin= 2.25D-01
 ErrMax= 2.25D-01  0.00D+00 EMaxC= 1.00D-01 BMatC= 5.46D+00 BMatP= 1.20D+01
 IDIUse=3 WtCom= 0.00D+00 WtEn= 1.00D+00
 Coeff-Com: -0.180D+01 0.280D+01
 Coeff-En:   0.000D+00 0.100D+01
 Coeff:      0.000D+00 0.100D+01
 Gap=     0.290 Goal=   None    Shift=    0.000
 RMSDP=9.46D-02 MaxDP=1.32D+01 DE=-3.04D-01 OVMax= 6.10D-02

 Cycle   3  Pass 1  IDiag  1:
 RMSU=  5.51D-03    CP:  2.98D-01  3.00D+00
 E= -3010.37995235238     Delta-E=       -0.392042062023 Rises=F Damp=F
 DIIS: error= 6.67D-02 at cycle   3 NSaved=   3.
 NSaved= 3 IEnMin= 3 EnMin= -3010.37995235238     IErMin= 3 ErrMin= 6.67D-02
 ErrMax= 6.67D-02  0.00D+00 EMaxC= 1.00D-01 BMatC= 7.74D-01 BMatP= 5.46D+00
 IDIUse=3 WtCom= 3.33D-01 WtEn= 6.67D-01
 Coeff-Com:  0.268D+01-0.352D+01 0.184D+01
 Coeff-En:   0.512D-01 0.000D+00 0.949D+00
 Coeff:      0.925D+00-0.117D+01 0.125D+01
 Gap=     0.280 Goal=   None    Shift=    0.000
 RMSDP=8.84D-03 MaxDP=6.72D-01 DE=-3.92D-01 OVMax= 9.97D-02

 Cycle   4  Pass 1  IDiag  1:
 RMSU=  7.21D-03    CP:  3.26D-01  3.00D+00  1.23D+00
 E= -3010.50013738095     Delta-E=       -0.120185028576 Rises=F Damp=F
 DIIS: error= 3.72D-02 at cycle   4 NSaved=   4.
 NSaved= 4 IEnMin= 4 EnMin= -3010.50013738095     IErMin= 4 ErrMin= 3.72D-02
 ErrMax= 3.72D-02  0.00D+00 EMaxC= 1.00D-01 BMatC= 2.23D-01 BMatP= 7.74D-01
 IDIUse=3 WtCom= 6.28D-01 WtEn= 3.72D-01
 Coeff-Com: -0.283D+00 0.390D+00 0.206D+00 0.687D+00
 Coeff-En:   0.000D+00 0.000D+00 0.182D+00 0.818D+00
 Coeff:     -0.178D+00 0.245D+00 0.197D+00 0.736D+00
 Gap=     0.253 Goal=   None    Shift=    0.000
 RMSDP=6.06D-03 MaxDP=8.07D-01 DE=-1.20D-01 OVMax= 4.21D-02

 Cycle   5  Pass 1  IDiag  1:
 RMSU=  1.82D-03    CP:  2.95D-01  3.00D+00  1.22D+00  7.41D-01
 E= -3010.54649079643     Delta-E=       -0.046353415475 Rises=F Damp=F
 DIIS: error= 6.97D-03 at cycle   5 NSaved=   5.
 NSaved= 5 IEnMin= 5 EnMin= -3010.54649079643     IErMin= 5 ErrMin= 6.97D-03
 ErrMax= 6.97D-03  0.00D+00 EMaxC= 1.00D-01 BMatC= 7.80D-03 BMatP= 2.23D-01
 IDIUse=3 WtCom= 9.30D-01 WtEn= 6.97D-02
 Coeff-Com: -0.171D+00 0.231D+00 0.171D-01 0.333D+00 0.590D+00
 Coeff-En:   0.000D+00 0.000D+00 0.000D+00 0.000D+00 0.100D+01
 Coeff:     -0.159D+00 0.215D+00 0.159D-01 0.310D+00 0.618D+00
 Gap=     0.239 Goal=   None    Shift=    0.000
 RMSDP=6.17D-04 MaxDP=4.03D-02 DE=-4.64D-02 OVMax= 1.31D-02

 Cycle   6  Pass 1  IDiag  1:
 RMSU=  4.30D-04    CP:  2.94D-01  3.00D+00  1.24D+00  7.72D-01  8.62D-01
 E= -3010.54826031946     Delta-E=       -0.001769523029 Rises=F Damp=F
 DIIS: error= 5.57D-04 at cycle   6 NSaved=   6.
 NSaved= 6 IEnMin= 6 EnMin= -3010.54826031946     IErMin= 6 ErrMin= 5.57D-04
 ErrMax= 5.57D-04  0.00D+00 EMaxC= 1.00D-01 BMatC= 7.62D-05 BMatP= 7.80D-03
 IDIUse=3 WtCom= 9.94D-01 WtEn= 5.57D-03
 Coeff-Com: -0.820D-01 0.110D+00-0.156D-01 0.112D+00 0.272D+00 0.604D+00
 Coeff-En:   0.000D+00 0.000D+00 0.000D+00 0.000D+00 0.000D+00 0.100D+01
 Coeff:     -0.815D-01 0.109D+00-0.155D-01 0.111D+00 0.270D+00 0.606D+00
 Gap=     0.240 Goal=   None    Shift=    0.000
 RMSDP=2.22D-04 MaxDP=2.70D-02 DE=-1.77D-03 OVMax= 4.48D-03

 Cycle   7  Pass 1  IDiag  1:
 RMSU=  1.22D-04    CP:  2.93D-01  3.00D+00  1.24D+00  7.73D-01  9.38D-01
                    CP:  1.01D+00
 E= -3010.54834334199     Delta-E=       -0.000083022539 Rises=F Damp=F
 DIIS: error= 3.91D-04 at cycle   7 NSaved=   7.
 NSaved= 7 IEnMin= 7 EnMin= -3010.54834334199     IErMin= 7 ErrMin= 3.91D-04
 ErrMax= 3.91D-04  0.00D+00 EMaxC= 1.00D-01 BMatC= 2.02D-05 BMatP= 7.62D-05
 IDIUse=3 WtCom= 9.96D-01 WtEn= 3.91D-03
 Coeff-Com: -0.280D-01 0.372D-01-0.135D-01 0.205D-01 0.658D-01 0.339D+00
 Coeff-Com:  0.579D+00
 Coeff-En:   0.000D+00 0.000D+00 0.000D+00 0.000D+00 0.000D+00 0.000D+00
 Coeff-En:   0.100D+01
 Coeff:     -0.279D-01 0.371D-01-0.135D-01 0.205D-01 0.656D-01 0.338D+00
 Coeff:      0.581D+00
 Gap=     0.240 Goal=   None    Shift=    0.000
 RMSDP=1.04D-04 MaxDP=9.94D-03 DE=-8.30D-05 OVMax= 2.71D-03

 Cycle   8  Pass 1  IDiag  1:
 RMSU=  5.60D-05    CP:  2.93D-01  3.00D+00  1.25D+00  7.76D-01  9.63D-01
                    CP:  1.14D+00  1.17D+00
 E= -3010.54836873064     Delta-E=       -0.000025388643 Rises=F Damp=F
 DIIS: error= 2.22D-04 at cycle   8 NSaved=   8.
 NSaved= 8 IEnMin= 8 EnMin= -3010.54836873064     IErMin= 8 ErrMin= 2.22D-04
 ErrMax= 2.22D-04  0.00D+00 EMaxC= 1.00D-01 BMatC= 5.25D-06 BMatP= 2.02D-05
 IDIUse=3 WtCom= 9.98D-01 WtEn= 2.22D-03
 Coeff-Com:  0.992D-02-0.136D-01-0.333D-02-0.240D-01-0.547D-01-0.168D-01
 Coeff-Com:  0.354D+00 0.749D+00
 Coeff-En:   0.000D+00 0.000D+00 0.000D+00 0.000D+00 0.000D+00 0.000D+00
 Coeff-En:   0.000D+00 0.100D+01
 Coeff:      0.989D-02-0.135D-01-0.332D-02-0.240D-01-0.546D-01-0.168D-01
 Coeff:      0.353D+00 0.750D+00
 Gap=     0.240 Goal=   None    Shift=    0.000
 RMSDP=9.55D-05 MaxDP=8.68D-03 DE=-2.54D-05 OVMax= 2.86D-03

 Cycle   9  Pass 1  IDiag  1:
 RMSU=  2.95D-05    CP:  2.93D-01  3.00D+00  1.25D+00  7.76D-01  9.77D-01
                    CP:  1.29D+00  1.62D+00  1.26D+00
 E= -3010.54838258282     Delta-E=       -0.000013852186 Rises=F Damp=F
 DIIS: error= 4.55D-05 at cycle   9 NSaved=   9.
 NSaved= 9 IEnMin= 9 EnMin= -3010.54838258282     IErMin= 9 ErrMin= 4.55D-05
 ErrMax= 4.55D-05  0.00D+00 EMaxC= 1.00D-01 BMatC= 6.71D-07 BMatP= 5.25D-06
 IDIUse=1 WtCom= 1.00D+00 WtEn= 0.00D+00
 Coeff-Com:  0.810D-02-0.108D-01 0.169D-02-0.113D-01-0.283D-01-0.783D-01
 Coeff-Com: -0.488D-01 0.224D+00 0.944D+00
 Coeff:      0.810D-02-0.108D-01 0.169D-02-0.113D-01-0.283D-01-0.783D-01
 Coeff:     -0.488D-01 0.224D+00 0.944D+00
 Gap=     0.240 Goal=   None    Shift=    0.000
 RMSDP=4.12D-05 MaxDP=3.21D-03 DE=-1.39D-05 OVMax= 2.36D-03

 Cycle  10  Pass 1  IDiag  1:
 RMSU=  1.72D-05    CP:  2.93D-01  3.00D+00  1.25D+00  7.76D-01  9.86D-01
                    CP:  1.35D+00  1.73D+00  1.46D+00  1.34D+00
 E= -3010.54838673627     Delta-E=       -0.000004153441 Rises=F Damp=F
 DIIS: error= 1.79D-05 at cycle  10 NSaved=  10.
 NSaved=10 IEnMin=10 EnMin= -3010.54838673627     IErMin=10 ErrMin= 1.79D-05
 ErrMax= 1.79D-05  0.00D+00 EMaxC= 1.00D-01 BMatC= 1.65D-07 BMatP= 6.71D-07
 IDIUse=1 WtCom= 1.00D+00 WtEn= 0.00D+00
 Coeff-Com: -0.911D-03 0.128D-02 0.625D-03 0.222D-02 0.584D-02-0.831D-02
 Coeff-Com: -0.773D-01-0.878D-01 0.234D+00 0.930D+00
 Coeff:     -0.911D-03 0.128D-02 0.625D-03 0.222D-02 0.584D-02-0.831D-02
 Coeff:     -0.773D-01-0.878D-01 0.234D+00 0.930D+00
 Gap=     0.240 Goal=   None    Shift=    0.000
 RMSDP=2.80D-05 MaxDP=3.15D-03 DE=-4.15D-06 OVMax= 1.21D-03

 Cycle  11  Pass 1  IDiag  1:
 RMSU=  7.24D-06    CP:  2.93D-01  3.00D+00  1.25D+00  7.75D-01  9.85D-01
                    CP:  1.36D+00  1.73D+00  1.51D+00  1.64D+00  1.49D+00
 E= -3010.54838771523     Delta-E=       -0.000000978968 Rises=F Damp=F
 DIIS: error= 9.72D-06 at cycle  11 NSaved=  11.
 NSaved=11 IEnMin=11 EnMin= -3010.54838771523     IErMin=11 ErrMin= 9.72D-06
 ErrMax= 9.72D-06  0.00D+00 EMaxC= 1.00D-01 BMatC= 3.25D-08 BMatP= 1.65D-07
 IDIUse=1 WtCom= 1.00D+00 WtEn= 0.00D+00
 Coeff-Com: -0.131D-02 0.175D-02-0.163D-03 0.259D-02 0.746D-02 0.227D-01
 Coeff-Com:  0.142D-01-0.730D-01-0.282D+00 0.697D-01 0.124D+01
 Coeff:     -0.131D-02 0.175D-02-0.163D-03 0.259D-02 0.746D-02 0.227D-01
 Coeff:      0.142D-01-0.730D-01-0.282D+00 0.697D-01 0.124D+01
 Gap=     0.240 Goal=   None    Shift=    0.000
 RMSDP=1.66D-05 MaxDP=1.76D-03 DE=-9.79D-07 OVMax= 9.78D-04

 Cycle  12  Pass 1  IDiag  1:
 RMSU=  3.24D-06    CP:  2.93D-01  3.00D+00  1.25D+00  7.75D-01  9.85D-01
                    CP:  1.37D+00  1.72D+00  1.51D+00  1.85D+00  1.95D+00
                    CP:  1.43D+00
 E= -3010.54838804254     Delta-E=       -0.000000327302 Rises=F Damp=F
 DIIS: error= 3.87D-06 at cycle  12 NSaved=  12.
 NSaved=12 IEnMin=12 EnMin= -3010.54838804254     IErMin=12 ErrMin= 3.87D-06
 ErrMax= 3.87D-06  0.00D+00 EMaxC= 1.00D-01 BMatC= 9.19D-09 BMatP= 3.25D-08
 IDIUse=1 WtCom= 1.00D+00 WtEn= 0.00D+00
 Coeff-Com: -0.463D-03 0.611D-03-0.133D-03 0.828D-03 0.185D-02 0.969D-02
 Coeff-Com:  0.152D-01-0.196D-01-0.149D+00-0.894D-01 0.559D+00 0.671D+00
 Coeff:     -0.463D-03 0.611D-03-0.133D-03 0.828D-03 0.185D-02 0.969D-02
 Coeff:      0.152D-01-0.196D-01-0.149D+00-0.894D-01 0.559D+00 0.671D+00
 Gap=     0.240 Goal=   None    Shift=    0.000
 RMSDP=2.96D-06 MaxDP=3.04D-04 DE=-3.27D-07 OVMax= 2.08D-04

 Cycle  13  Pass 1  IDiag  1:
 RMSU=  1.86D-06    CP:  2.93D-01  3.00D+00  1.25D+00  7.75D-01  9.85D-01
                    CP:  1.37D+00  1.71D+00  1.51D+00  1.86D+00  2.01D+00
                    CP:  1.58D+00  1.10D+00
 E= -3010.54838806922     Delta-E=       -0.000000026680 Rises=F Damp=F
 DIIS: error= 2.00D-06 at cycle  13 NSaved=  13.
 NSaved=13 IEnMin=13 EnMin= -3010.54838806922     IErMin=13 ErrMin= 2.00D-06
 ErrMax= 2.00D-06  0.00D+00 EMaxC= 1.00D-01 BMatC= 1.04D-09 BMatP= 9.19D-09
 IDIUse=1 WtCom= 1.00D+00 WtEn= 0.00D+00
 Coeff-Com:  0.647D-04-0.859D-04-0.184D-04-0.363D-03-0.165D-02-0.426D-02
 Coeff-Com: -0.150D-02 0.131D-01 0.468D-01-0.380D-01-0.204D+00 0.942D-01
 Coeff-Com:  0.110D+01
 Coeff:      0.647D-04-0.859D-04-0.184D-04-0.363D-03-0.165D-02-0.426D-02
 Coeff:     -0.150D-02 0.131D-01 0.468D-01-0.380D-01-0.204D+00 0.942D-01
 Coeff:      0.110D+01
 Gap=     0.240 Goal=   None    Shift=    0.000
 RMSDP=1.66D-06 MaxDP=6.76D-05 DE=-2.67D-08 OVMax= 1.18D-04

 Cycle  14  Pass 1  IDiag  1:
 RMSU=  4.82D-07    CP:  2.93D-01  3.00D+00  1.25D+00  7.75D-01  9.85D-01
                    CP:  1.37D+00  1.71D+00  1.51D+00  1.87D+00  2.02D+00
                    CP:  1.64D+00  1.39D+00  1.35D+00
 E= -3010.54838807538     Delta-E=       -0.000000006166 Rises=F Damp=F
 DIIS: error= 9.29D-07 at cycle  14 NSaved=  14.
 NSaved=14 IEnMin=14 EnMin= -3010.54838807538     IErMin=14 ErrMin= 9.29D-07
 ErrMax= 9.29D-07  0.00D+00 EMaxC= 1.00D-01 BMatC= 1.37D-10 BMatP= 1.04D-09
 IDIUse=1 WtCom= 1.00D+00 WtEn= 0.00D+00
 Coeff-Com:  0.709D-04-0.941D-04 0.643D-05-0.167D-03-0.435D-03-0.166D-02
 Coeff-Com: -0.173D-02 0.473D-02 0.260D-01 0.428D-03-0.106D+00-0.600D-01
 Coeff-Com:  0.281D+00 0.858D+00
 Coeff:      0.709D-04-0.941D-04 0.643D-05-0.167D-03-0.435D-03-0.166D-02
 Coeff:     -0.173D-02 0.473D-02 0.260D-01 0.428D-03-0.106D+00-0.600D-01
 Coeff:      0.281D+00 0.858D+00
 Gap=     0.240 Goal=   None    Shift=    0.000
 RMSDP=5.54D-07 MaxDP=4.31D-05 DE=-6.17D-09 OVMax= 2.00D-05

 Cycle  15  Pass 1  IDiag  1:
 RMSU=  2.23D-07    CP:  2.93D-01  3.00D+00  1.25D+00  7.75D-01  9.85D-01
                    CP:  1.37D+00  1.71D+00  1.51D+00  1.86D+00  2.02D+00
                    CP:  1.64D+00  1.46D+00  1.54D+00  1.25D+00
 E= -3010.54838807586     Delta-E=       -0.000000000475 Rises=F Damp=F
 DIIS: error= 3.47D-07 at cycle  15 NSaved=  15.
 NSaved=15 IEnMin=15 EnMin= -3010.54838807586     IErMin=15 ErrMin= 3.47D-07
 ErrMax= 3.47D-07  0.00D+00 EMaxC= 1.00D-01 BMatC= 3.22D-11 BMatP= 1.37D-10
 IDIUse=1 WtCom= 1.00D+00 WtEn= 0.00D+00
 Coeff-Com:  0.226D-04-0.302D-04 0.511D-05-0.740D-05 0.140D-03 0.186D-03
 Coeff-Com: -0.349D-03-0.596D-03 0.188D-02 0.667D-02-0.806D-02-0.403D-01
 Coeff-Com: -0.598D-01 0.356D+00 0.745D+00
 Coeff:      0.226D-04-0.302D-04 0.511D-05-0.740D-05 0.140D-03 0.186D-03
 Coeff:     -0.349D-03-0.596D-03 0.188D-02 0.667D-02-0.806D-02-0.403D-01
 Coeff:     -0.598D-01 0.356D+00 0.745D+00
 Gap=     0.240 Goal=   None    Shift=    0.000
 RMSDP=1.77D-07 MaxDP=1.11D-05 DE=-4.75D-10 OVMax= 7.20D-06

 Cycle  16  Pass 1  IDiag  1:
 RMSU=  7.30D-08    CP:  2.93D-01  3.00D+00  1.25D+00  7.75D-01  9.85D-01
                    CP:  1.37D+00  1.71D+00  1.51D+00  1.86D+00  2.02D+00
                    CP:  1.64D+00  1.48D+00  1.58D+00  1.43D+00  1.06D+00
 E= -3010.54838807597     Delta-E=       -0.000000000116 Rises=F Damp=F
 DIIS: error= 1.28D-07 at cycle  16 NSaved=  16.
 NSaved=16 IEnMin=16 EnMin= -3010.54838807597     IErMin=16 ErrMin= 1.28D-07
 ErrMax= 1.28D-07  0.00D+00 EMaxC= 1.00D-01 BMatC= 2.56D-12 BMatP= 3.22D-11
 IDIUse=1 WtCom= 1.00D+00 WtEn= 0.00D+00
 Coeff-Com: -0.122D-05 0.157D-05 0.107D-05 0.172D-04 0.885D-04 0.278D-03
 Coeff-Com:  0.122D-03-0.893D-03-0.303D-02 0.257D-02 0.119D-01-0.375D-02
 Coeff-Com: -0.578D-01-0.331D-01 0.156D+00 0.927D+00
 Coeff:     -0.122D-05 0.157D-05 0.107D-05 0.172D-04 0.885D-04 0.278D-03
 Coeff:      0.122D-03-0.893D-03-0.303D-02 0.257D-02 0.119D-01-0.375D-02
 Coeff:     -0.578D-01-0.331D-01 0.156D+00 0.927D+00
 Gap=     0.240 Goal=   None    Shift=    0.000
 RMSDP=8.60D-08 MaxDP=4.50D-06 DE=-1.16D-10 OVMax= 3.36D-06

 Cycle  17  Pass 1  IDiag  1:
 RMSU=  2.36D-08    CP:  2.93D-01  3.00D+00  1.25D+00  7.75D-01  9.85D-01
                    CP:  1.37D+00  1.71D+00  1.51D+00  1.86D+00  2.02D+00
                    CP:  1.64D+00  1.49D+00  1.60D+00  1.50D+00  1.25D+00
                    CP:  1.16D+00
 E= -3010.54838807599     Delta-E=       -0.000000000020 Rises=F Damp=F
 DIIS: error= 5.13D-08 at cycle  17 NSaved=  17.
 NSaved=17 IEnMin=17 EnMin= -3010.54838807599     IErMin=17 ErrMin= 5.13D-08
 ErrMax= 5.13D-08  0.00D+00 EMaxC= 1.00D-01 BMatC= 3.40D-13 BMatP= 2.56D-12
 IDIUse=1 WtCom= 1.00D+00 WtEn= 0.00D+00
 Coeff-Com: -0.232D-05 0.309D-05-0.263D-06 0.329D-05 0.552D-06 0.349D-04
 Coeff-Com:  0.719D-04-0.834D-04-0.708D-03-0.104D-03 0.268D-02 0.342D-02
 Coeff-Com: -0.413D-02-0.385D-01-0.611D-01 0.202D+00 0.897D+00
 Coeff:     -0.232D-05 0.309D-05-0.263D-06 0.329D-05 0.552D-06 0.349D-04
 Coeff:      0.719D-04-0.834D-04-0.708D-03-0.104D-03 0.268D-02 0.342D-02
 Coeff:     -0.413D-02-0.385D-01-0.611D-01 0.202D+00 0.897D+00
 Gap=     0.240 Goal=   None    Shift=    0.000
 RMSDP=3.02D-08 MaxDP=2.65D-06 DE=-2.00D-11 OVMax= 9.40D-07

 Cycle  18  Pass 1  IDiag  1:
 RMSU=  8.12D-09    CP:  2.93D-01  3.00D+00  1.25D+00  7.75D-01  9.85D-01
                    CP:  1.37D+00  1.71D+00  1.51D+00  1.86D+00  2.02D+00
                    CP:  1.63D+00  1.49D+00  1.61D+00  1.51D+00  1.30D+00
                    CP:  1.30D+00  1.33D+00
 E= -3010.54838807600     Delta-E=       -0.000000000009 Rises=F Damp=F
 DIIS: error= 1.23D-08 at cycle  18 NSaved=  18.
 NSaved=18 IEnMin=18 EnMin= -3010.54838807600     IErMin=18 ErrMin= 1.23D-08
 ErrMax= 1.23D-08  0.00D+00 EMaxC= 1.00D-01 BMatC= 8.50D-14 BMatP= 3.40D-13
 IDIUse=1 WtCom= 1.00D+00 WtEn= 0.00D+00
 Coeff-Com:  0.411D-07-0.556D-07-0.114D-06-0.223D-05-0.154D-04-0.325D-04
 Coeff-Com:  0.125D-04 0.106D-03 0.190D-03-0.469D-03-0.822D-03 0.216D-02
 Coeff-Com:  0.761D-02-0.853D-02-0.533D-01-0.783D-01 0.347D+00 0.784D+00
 Coeff:      0.411D-07-0.556D-07-0.114D-06-0.223D-05-0.154D-04-0.325D-04
 Coeff:      0.125D-04 0.106D-03 0.190D-03-0.469D-03-0.822D-03 0.216D-02
 Coeff:      0.761D-02-0.853D-02-0.533D-01-0.783D-01 0.347D+00 0.784D+00
 Gap=     0.240 Goal=   None    Shift=    0.000
 RMSDP=9.83D-09 MaxDP=5.29D-07 DE=-9.09D-12 OVMax= 2.35D-07

 SCF Done:  E(RwB97XD) =  -3010.54838808     A.U. after   18 cycles
            NFock= 18  Conv=0.98D-08     -V/T= 2.0016
 KE= 3.005820938793D+03 PE=-8.629247049584D+03 EE= 1.875874583956D+03
 Leave Link  502 at Wed May  1 15:27:20 2024, MaxMem=  1207959552 cpu:            1034.8 elap:            1035.0
 (Enter /software/gaussian/g16-c01/sse4/g16/l601.exe)
 Copying SCF densities to generalized density rwf, IOpCl= 0 IROHF=0.

 **********************************************************************

            Population analysis using the SCF Density.

 **********************************************************************

 Alpha  occ. eigenvalues -- -483.28348 -62.83321 -56.63067 -56.62421 -56.62420
 Alpha  occ. eigenvalues --  -19.44972 -19.44915 -14.84468 -10.56758 -10.56287
 Alpha  occ. eigenvalues --  -10.56137 -10.55905 -10.55728 -10.52024  -8.99090
 Alpha  occ. eigenvalues --   -6.81908  -6.79811  -6.79801  -2.91778  -2.91223
 Alpha  occ. eigenvalues --   -2.91213  -2.89538  -2.89538  -1.48732  -1.31713
 Alpha  occ. eigenvalues --   -1.21457  -1.12633  -1.10584  -1.01903  -1.00040
 Alpha  occ. eigenvalues --   -0.94207  -0.89894  -0.84349  -0.79848  -0.79580
 Alpha  occ. eigenvalues --   -0.79023  -0.77387  -0.75151  -0.74902  -0.70725
 Alpha  occ. eigenvalues --   -0.68249  -0.66512  -0.61906  -0.58599  -0.56152
 Alpha  occ. eigenvalues --   -0.55253  -0.54710  -0.52848  -0.52200
 Alpha virt. eigenvalues --   -0.28186  -0.20437  -0.14468  -0.13213  -0.11039
 Alpha virt. eigenvalues --   -0.09324  -0.08829  -0.06189  -0.05064  -0.04487
 Alpha virt. eigenvalues --   -0.02568  -0.01337  -0.00469   0.00748   0.01085
 Alpha virt. eigenvalues --    0.01927   0.02709   0.03796   0.03974   0.04866
 Alpha virt. eigenvalues --    0.05535   0.06245   0.06888   0.07145   0.07539
 Alpha virt. eigenvalues --    0.08339   0.08768   0.09402   0.10682   0.11281
 Alpha virt. eigenvalues --    0.11695   0.12106   0.12670   0.13266   0.13583
 Alpha virt. eigenvalues --    0.14658   0.15767   0.15990   0.16573   0.16702
 Alpha virt. eigenvalues --    0.17528   0.18320   0.18644   0.19150   0.20085
 Alpha virt. eigenvalues --    0.20720   0.22260   0.22537   0.23235   0.26021
 Alpha virt. eigenvalues --    0.26225   0.28679   0.29540   0.31786   0.34299
 Alpha virt. eigenvalues --    0.34826   0.35090   0.35888   0.37810   0.38007
 Alpha virt. eigenvalues --    0.39080   0.39381   0.40842   0.41587   0.43476
 Alpha virt. eigenvalues --    0.44234   0.44916   0.45364   0.46898   0.48395
 Alpha virt. eigenvalues --    0.48996   0.51498   0.52406   0.53571   0.54266
 Alpha virt. eigenvalues --    0.55365   0.56545   0.57225   0.58354   0.60375
 Alpha virt. eigenvalues --    0.62335   0.63390   0.65511   0.68319   0.69853
 Alpha virt. eigenvalues --    0.71072   0.73166   0.73546   0.74372   0.75122
 Alpha virt. eigenvalues --    0.75997   0.80144   0.80921   0.85457   0.86244
 Alpha virt. eigenvalues --    0.87909   0.89028   0.92654   0.94404   0.99667
 Alpha virt. eigenvalues --    1.00591   1.02081   1.05723   1.06244   1.07578
 Alpha virt. eigenvalues --    1.10499   1.11637   1.13031   1.13459   1.15109
 Alpha virt. eigenvalues --    1.22881   1.25322   1.27562   1.33920   1.37404
 Alpha virt. eigenvalues --    1.37757   1.39092   1.46428   1.55311   1.58027
 Alpha virt. eigenvalues --    1.59424   1.59729   1.61522   1.63300   1.67355
 Alpha virt. eigenvalues --    1.70044   1.70839   1.74471   1.76149   1.79982
 Alpha virt. eigenvalues --    1.82013   1.86317   1.88423   1.96229   1.98399
 Alpha virt. eigenvalues --    1.99922   2.03853   2.04909   2.08415   2.09447
 Alpha virt. eigenvalues --    2.11138   2.15798   2.21236   2.23501   2.30096
 Alpha virt. eigenvalues --    2.38333   2.42020   2.43161   2.44331   2.53393
 Alpha virt. eigenvalues --    2.57459   2.63924   2.67005   2.69093   2.72600
 Alpha virt. eigenvalues --    2.74270   2.77391   2.78230   2.81944   2.82852
 Alpha virt. eigenvalues --    2.94659   2.97342   3.01522   3.06595   3.09926
 Alpha virt. eigenvalues --    3.13836   3.15860   3.19908   3.24577   3.25149
 Alpha virt. eigenvalues --    3.28226   3.40006   3.48502   3.52144   3.55407
 Alpha virt. eigenvalues --    3.57762   3.70816   3.75007   3.83139   3.88189
 Alpha virt. eigenvalues --    4.12167   4.12377   4.19589   4.24859   4.45218
 Alpha virt. eigenvalues --    4.45604   4.58495   4.60805   4.94070   4.96730
 Alpha virt. eigenvalues --    5.05383   5.09551   5.63710   6.16637   6.67727
 Alpha virt. eigenvalues --    7.50894   7.52443   7.62042  23.22346  23.62243
 Alpha virt. eigenvalues --   23.70964  23.80552  23.96959  24.02366  35.33490
 Alpha virt. eigenvalues --   47.94147  49.86444  49.95254 289.83427 289.85094
 Alpha virt. eigenvalues --  289.974941020.94496
          Condensed to atoms (all electrons):
               1          2          3          4          5          6
     1  C    8.885075  -1.860946  -0.354060  -1.227692  -0.699051   0.305822
     2  C   -1.860946  13.060780  -1.319535  -4.038466   0.660051  -0.019211
     3  C   -0.354060  -1.319535  13.751637  -3.952233  -0.884094   0.032419
     4  C   -1.227692  -4.038466  -3.952233  17.706841   0.818461   0.002800
     5  C   -0.699051   0.660051  -0.884094   0.818461   7.785144   0.012259
     6  H    0.305822  -0.019211   0.032419   0.002800   0.012259   0.339789
     7  H    0.064309   0.227683   0.079669  -0.030756  -0.023908  -0.001655
     8  H    0.006561  -0.008926   0.079629   0.213285  -0.023251   0.000003
     9  H    0.038031  -0.025360   0.003047  -0.005776   0.292620  -0.002344
    10  N   -0.113313   0.358831  -1.015240   0.308163  -0.006914  -0.000736
    11  O    0.022448  -0.020735  -0.233782  -0.104254  -0.058944  -0.000024
    12  O    0.300595  -0.143316  -0.253730   0.020397  -0.046776   0.000084
    13  C    1.170044  -1.332832   0.712612  -3.937129  -1.764313   0.000240
    14  H   -0.029998   0.006002  -0.002055   0.006330   0.023576  -0.000028
    15  Br   0.036975   0.014212   0.046748  -0.037060  -0.022129  -0.000036
               7          8          9         10         11         12
     1  C    0.064309   0.006561   0.038031  -0.113313   0.022448   0.300595
     2  C    0.227683  -0.008926  -0.025360   0.358831  -0.020735  -0.143316
     3  C    0.079669   0.079629   0.003047  -1.015240  -0.233782  -0.253730
     4  C   -0.030756   0.213285  -0.005776   0.308163  -0.104254   0.020397
     5  C   -0.023908  -0.023251   0.292620  -0.006914  -0.058944  -0.046776
     6  H   -0.001655   0.000003  -0.002344  -0.000736  -0.000024   0.000084
     7  H    0.301490   0.000023   0.000063  -0.026473  -0.001488   0.021728
     8  H    0.000023   0.303319   0.000180  -0.024842   0.023829  -0.000917
     9  H    0.000063   0.000180   0.339789   0.000558  -0.000020   0.000015
    10  N   -0.026473  -0.024842   0.000558   7.419221   0.183333   0.133361
    11  O   -0.001488   0.023829  -0.000020   0.183333   7.845631  -0.005718
    12  O    0.021728  -0.000917   0.000015   0.133361  -0.005718   7.895672
    13  C    0.021482   0.061732   0.016986  -0.104944   0.314420   0.044138
    14  H   -0.000058  -0.008081  -0.009328  -0.001242  -0.000064   0.000007
    15  Br   0.000356   0.006770   0.005626   0.003493   0.001726   0.003220
              13         14         15
     1  C    1.170044  -0.029998   0.036975
     2  C   -1.332832   0.006002   0.014212
     3  C    0.712612  -0.002055   0.046748
     4  C   -3.937129   0.006330  -0.037060
     5  C   -1.764313   0.023576  -0.022129
     6  H    0.000240  -0.000028  -0.000036
     7  H    0.021482  -0.000058   0.000356
     8  H    0.061732  -0.008081   0.006770
     9  H    0.016986  -0.009328   0.005626
    10  N   -0.104944  -0.001242   0.003493
    11  O    0.314420  -0.000064   0.001726
    12  O    0.044138   0.000007   0.003220
    13  C   10.810594   0.278114   0.164850
    14  H    0.278114   0.457613  -0.056196
    15  Br   0.164850  -0.056196  34.477532
 Mulliken charges:
               1
     1  C   -0.544799
     2  C    0.441766
     3  C   -0.691032
     4  C    0.257091
     5  C   -0.062730
     6  H    0.330617
     7  H    0.367534
     8  H    0.370686
     9  H    0.345913
    10  N   -0.113256
    11  O    0.033642
    12  O    0.031240
    13  C   -0.455993
    14  H    0.335407
    15  Br   0.353913
 Sum of Mulliken charges =   1.00000
 Mulliken charges with hydrogens summed into heavy atoms:
               1
     1  C   -0.214182
     2  C    0.809301
     3  C   -0.691032
     4  C    0.627777
     5  C    0.283183
    10  N   -0.113256
    11  O    0.033642
    12  O    0.031240
    13  C   -0.120586
    15  Br   0.353913
 Electronic spatial extent (au):  <R**2>=           2795.7036
 Charge=              1.0000 electrons
 Dipole moment (field-independent basis, Debye):
    X=             -1.3063    Y=             -1.3432    Z=             -3.4141  Tot=              3.8945
 Quadrupole moment (field-independent basis, Debye-Ang):
   XX=            -71.9464   YY=            -51.0060   ZZ=            -59.3114
   XY=              1.8595   XZ=             -0.4581   YZ=              4.5317
 Traceless Quadrupole moment (field-independent basis, Debye-Ang):
   XX=            -11.1918   YY=              9.7486   ZZ=              1.4432
   XY=              1.8595   XZ=             -0.4581   YZ=              4.5317
 Octapole moment (field-independent basis, Debye-Ang**2):
  XXX=           -303.1386  YYY=             82.3808  ZZZ=             62.2296  XYY=            -78.0903
  XXY=             29.1520  XXZ=             20.8810  XZZ=            -80.5172  YZZ=              8.6738
  YYZ=             15.0169  XYZ=             -5.3570
 Hexadecapole moment (field-independent basis, Debye-Ang**3):
 XXXX=          -2292.1967 YYYY=           -666.4320 ZZZZ=           -317.2824 XXXY=            -66.2188
 XXXZ=            -52.8999 YYYX=            -56.0852 YYYZ=           -137.9088 ZZZX=            -16.0779
 ZZZY=           -114.0567 XXYY=           -456.5010 XXZZ=           -367.0009 YYZZ=           -147.1705
 XXYZ=            -51.9448 YYXZ=             -1.8109 ZZXY=             -4.1229
 N-N= 7.370031387586D+02 E-N=-8.629247051141D+03  KE= 3.005820938793D+03
 No NMR shielding tensors so no spin-rotation constants.
 Leave Link  601 at Wed May  1 15:27:28 2024, MaxMem=  1207959552 cpu:               7.7 elap:               7.7
 (Enter /software/gaussian/g16-c01/sse4/g16/l9999.exe)
 Unable to Open any file for archive entry.
 1\1\GINC-BHX0029\SP\RwB97XD\6-311+G(d)\C6H5Br1N1O2(1+)\BWEIGHT\01-May-
 2024\0\\#P wB97XD/6-311+G* NoSymm #P Field=Z+194\\TitleMe\\1,1\C,0,0.0
 295,1.3397,0.0682\C,0,1.4348,1.2867,0.0064\C,0,2.1118,0.0511,-0.0054\C
 ,0,1.4451,-1.1372,0.0312\C,0,-0.6879,0.1682,0.11\H,0,-0.4713,2.2984,0.
 0781\H,0,2.0273,2.1965,-0.0322\H,0,1.9897,-2.0764,0.0232\H,0,-1.7716,0
 .1804,0.1582\N,0,3.5864,0.051,-0.0675\O,0,4.1471,-1.0597,-0.0881\O,0,4
 .145,1.1639,-0.0901\C,0,-0.0236,-1.1458,0.0835\H,0,-0.4367,-1.8725,0.7
 889\Br,0,-0.5359,-1.8697,-1.7408\\Version=ES64L-G16RevC.01\HF=-3010.54
 83881\RMSD=9.835e-09\Dipole=-2.4204702,0.6196138,-0.1970368\Quadrupole
 =-8.3208435,7.2478535,1.07299,1.3824662,-0.340623,3.3692351\PG=C01 [X(
 C6H5Br1N1O2)]\\@
 The archive entry for this job was punched.


 IF YOU GIVE A BOY AND A PIG EVERYTHING THEY WANT,
 YOU'LL GET A BAD BOY AND A GOOD PIG.
 Job cpu time:       0 days  0 hours 18 minutes 23.7 seconds.
 Elapsed time:       0 days  0 hours 18 minutes 23.8 seconds.
 File lengths (MBytes):  RWF=     40 Int=      0 D2E=      0 Chk=     32 Scr=      1
 Normal termination of Gaussian 16 at Wed May  1 15:27:29 2024.
