 Entering Gaussian System, Link 0=g16
 Initial command:
 /software/gaussian/g16-c01/sse4/g16/l1.exe "/local_scratch/24665288/Gau-23314.inp" -scrdir="/local_scratch/24665288/"
 Entering Link 1 = /software/gaussian/g16-c01/sse4/g16/l1.exe PID=     23344.
  
 Copyright (c) 1988-2019, Gaussian, Inc.  All Rights Reserved.
  
 This is part of the Gaussian(R) 16 program.  It is based on
 the Gaussian(R) 09 system (copyright 2009, Gaussian, Inc.),
 the Gaussian(R) 03 system (copyright 2003, Gaussian, Inc.),
 the Gaussian(R) 98 system (copyright 1998, Gaussian, Inc.),
 the Gaussian(R) 94 system (copyright 1995, Gaussian, Inc.),
 the Gaussian 92(TM) system (copyright 1992, Gaussian, Inc.),
 the Gaussian 90(TM) system (copyright 1990, Gaussian, Inc.),
 the Gaussian 88(TM) system (copyright 1988, Gaussian, Inc.),
 the Gaussian 86(TM) system (copyright 1986, Carnegie Mellon
 University), and the Gaussian 82(TM) system (copyright 1983,
 Carnegie Mellon University). Gaussian is a federally registered
 trademark of Gaussian, Inc.
  
 This software contains proprietary and confidential information,
 including trade secrets, belonging to Gaussian, Inc.
  
 This software is provided under written license and may be
 used, copied, transmitted, or stored only in accord with that
 written license.
  
 The following legend is applicable only to US Government
 contracts under FAR:
  
                    RESTRICTED RIGHTS LEGEND
  
 Use, reproduction and disclosure by the US Government is
 subject to restrictions as set forth in subparagraphs (a)
 and (c) of the Commercial Computer Software - Restricted
 Rights clause in FAR 52.227-19.
  
 Gaussian, Inc.
 340 Quinnipiac St., Bldg. 40, Wallingford CT 06492
  
  
 ---------------------------------------------------------------
 Warning -- This program may not be used in any manner that
 competes with the business of Gaussian, Inc. or will provide
 assistance to any competitor of Gaussian, Inc.  The licensee
 of this program is prohibited from giving any competitor of
 Gaussian, Inc. access to this program.  By using this program,
 the user acknowledges that Gaussian, Inc. is engaged in the
 business of creating and licensing software in the field of
 computational chemistry and represents and warrants to the
 licensee that it is not a competitor of Gaussian, Inc. and that
 it will not use this program in any manner prohibited above.
 ---------------------------------------------------------------
  

 Cite this work as:
 Gaussian 16, Revision C.01,
 M. J. Frisch, G. W. Trucks, H. B. Schlegel, G. E. Scuseria, 
 M. A. Robb, J. R. Cheeseman, G. Scalmani, V. Barone, 
 G. A. Petersson, H. Nakatsuji, X. Li, M. Caricato, A. V. Marenich, 
 J. Bloino, B. G. Janesko, R. Gomperts, B. Mennucci, H. P. Hratchian, 
 J. V. Ortiz, A. F. Izmaylov, J. L. Sonnenberg, D. Williams-Young, 
 F. Ding, F. Lipparini, F. Egidi, J. Goings, B. Peng, A. Petrone, 
 T. Henderson, D. Ranasinghe, V. G. Zakrzewski, J. Gao, N. Rega, 
 G. Zheng, W. Liang, M. Hada, M. Ehara, K. Toyota, R. Fukuda, 
 J. Hasegawa, M. Ishida, T. Nakajima, Y. Honda, O. Kitao, H. Nakai, 
 T. Vreven, K. Throssell, J. A. Montgomery, Jr., J. E. Peralta, 
 F. Ogliaro, M. J. Bearpark, J. J. Heyd, E. N. Brothers, K. N. Kudin, 
 V. N. Staroverov, T. A. Keith, R. Kobayashi, J. Normand, 
 K. Raghavachari, A. P. Rendell, J. C. Burant, S. S. Iyengar, 
 J. Tomasi, M. Cossi, J. M. Millam, M. Klene, C. Adamo, R. Cammi, 
 J. W. Ochterski, R. L. Martin, K. Morokuma, O. Farkas, 
 J. B. Foresman, and D. J. Fox, Gaussian, Inc., Wallingford CT, 2019.
 
 ******************************************
 Gaussian 16:  ES64L-G16RevC.01  3-Jul-2019
                 2-May-2024 
 ******************************************
 %chk=geometry.chk
 %mem=1GB
 %nprocshared=12
 Will use up to   12 processors via shared memory.
 ----------------------------------------
 #P wB97XD/6-311+G* NoSymm #P Field=X+243
 ----------------------------------------
 1/38=1,172=1/1;
 2/12=2,15=1,17=6,18=5,40=1/2;
 3/5=4,6=6,7=11,11=2,14=1,15=243,25=1,30=1,74=-58/1,2,3;
 4//1;
 5/5=2,38=5/2;
 6/7=2,8=2,9=2,10=2,28=1/1;
 99/5=1,9=1/99;
 Leave Link    1 at Thu May  2 13:57:36 2024, MaxMem=   134217728 cpu:               1.5 elap:               1.5
 (Enter /software/gaussian/g16-c01/sse4/g16/l101.exe)
 -------
 TitleMe
 -------
 Symbolic Z-matrix:
 Charge =  1 Multiplicity = 1
 C                     0.5193    1.233    -0.0319 
 C                     1.9445    1.2692   -0.0367 
 C                     2.6204    0.0928   -0.025 
 C                    -0.196     0.0301    0.001 
 H                    -0.0207    2.1742   -0.0434 
 H                     2.4828    2.2089   -0.0361 
 H                    -1.2777    0.0399    0.0117 
 N                     4.0921    0.0959    0.0366 
 O                     4.6393   -1.0217    0.1446 
 O                     4.6649    1.1984   -0.0233 
 C                     0.4943   -1.1671    0.021 
 H                    -0.0325   -2.1149    0.0545 
 C                     1.9629   -1.2165   -0.0211 
 H                     2.4436   -1.9631    0.6151 
 Br                    2.173    -1.9491   -1.9062 
 
 ITRead=  0  0  0  0  0  0  0  0  0  0  0  0  0  0  0
 MicOpt= -1 -1 -1 -1 -1 -1 -1 -1 -1 -1 -1 -1 -1 -1 -1
 NAtoms=     15 NQM=       15 NQMF=       0 NMMI=      0 NMMIF=      0
                NMic=       0 NMicF=      0.
                    Isotopes and Nuclear Properties:
 (Nuclear quadrupole moments (NQMom) in fm**2, nuclear magnetic moments (NMagM)
  in nuclear magnetons)

  Atom         1           2           3           4           5           6           7           8           9          10
 IAtWgt=          12          12          12          12           1           1           1          14          16          16
 AtmWgt=  12.0000000  12.0000000  12.0000000  12.0000000   1.0078250   1.0078250   1.0078250  14.0030740  15.9949146  15.9949146
 NucSpn=           0           0           0           0           1           1           1           2           0           0
 AtZEff=  -0.0000000  -0.0000000  -0.0000000  -0.0000000  -0.0000000  -0.0000000  -0.0000000  -0.0000000  -0.0000000  -0.0000000
 NQMom=    0.0000000   0.0000000   0.0000000   0.0000000   0.0000000   0.0000000   0.0000000   2.0440000   0.0000000   0.0000000
 NMagM=    0.0000000   0.0000000   0.0000000   0.0000000   2.7928460   2.7928460   2.7928460   0.4037610   0.0000000   0.0000000
 AtZNuc=   6.0000000   6.0000000   6.0000000   6.0000000   1.0000000   1.0000000   1.0000000   7.0000000   8.0000000   8.0000000

  Atom        11          12          13          14          15
 IAtWgt=          12           1          12           1          79
 AtmWgt=  12.0000000   1.0078250  12.0000000   1.0078250  78.9183361
 NucSpn=           0           1           0           1           3
 AtZEff=  -0.0000000  -0.0000000  -0.0000000  -0.0000000  -0.0000000
 NQMom=    0.0000000   0.0000000   0.0000000   0.0000000  31.3000000
 NMagM=    0.0000000   2.7928460   0.0000000   2.7928460   2.1063990
 AtZNuc=   6.0000000   1.0000000   6.0000000   1.0000000  35.0000000
 Leave Link  101 at Thu May  2 13:57:39 2024, MaxMem=   134217728 cpu:               1.9 elap:               1.9
 (Enter /software/gaussian/g16-c01/sse4/g16/l202.exe)
                          Input orientation:                          
 ---------------------------------------------------------------------
 Center     Atomic      Atomic             Coordinates (Angstroms)
 Number     Number       Type             X           Y           Z
 ---------------------------------------------------------------------
      1          6           0        0.519300    1.233000   -0.031900
      2          6           0        1.944500    1.269200   -0.036700
      3          6           0        2.620400    0.092800   -0.025000
      4          6           0       -0.196000    0.030100    0.001000
      5          1           0       -0.020700    2.174200   -0.043400
      6          1           0        2.482800    2.208900   -0.036100
      7          1           0       -1.277700    0.039900    0.011700
      8          7           0        4.092100    0.095900    0.036600
      9          8           0        4.639300   -1.021700    0.144600
     10          8           0        4.664900    1.198400   -0.023300
     11          6           0        0.494300   -1.167100    0.021000
     12          1           0       -0.032500   -2.114900    0.054500
     13          6           0        1.962900   -1.216500   -0.021100
     14          1           0        2.443600   -1.963100    0.615100
     15         35           0        2.173000   -1.949100   -1.906200
 ---------------------------------------------------------------------
                    Distance matrix (angstroms):
                    1          2          3          4          5
     1  C    0.000000
     2  C    1.425668   0.000000
     3  C    2.390549   1.356796   0.000000
     4  C    1.399895   2.473566   2.817218   0.000000
     5  H    1.085168   2.163581   3.362733   2.151712   0.000000
     6  H    2.192654   1.082960   2.120598   3.453189   2.503751
     7  H    2.157452   3.449071   3.898632   1.081797   2.477564
     8  N    3.750012   2.448304   1.472992   4.288753   4.608780
     9  O    4.699917   3.541615   2.312322   4.950458   5.653735
    10  O    4.145753   2.721354   2.324292   4.999386   4.786171
    11  C    2.400813   2.835836   2.471794   1.382101   3.381369
    12  H    3.394169   3.920329   3.452266   2.151887   4.290233
    13  C    2.843264   2.485817   1.465124   2.493060   3.928360
    14  H    3.786370   3.334922   2.160489   3.364142   4.860416
    15  Br   4.046416   3.728900   2.812194   3.628609   5.028314
                    6          7          8          9         10
     6  H    0.000000
     7  H    4.341452   0.000000
     8  N    2.657047   5.370150   0.000000
     9  O    3.888434   6.012948   1.249048   0.000000
    10  O    2.404752   6.054572   1.243863   2.226587   0.000000
    11  C    3.918516   2.144043   3.813080   4.149391   4.794941
    12  H    5.003018   2.489080   4.679774   4.798846   5.748876
    13  C    3.464662   3.475788   2.501842   2.688591   3.623886
    14  H    4.222698   4.268978   2.700314   2.434893   3.916224
    15  Br   4.569706   4.420610   3.411663   3.338935   4.434144
                   11         12         13         14         15
    11  C    0.000000
    12  H    1.084880   0.000000
    13  C    1.470034   2.189625   0.000000
    14  H    2.187771   2.543302   1.092353   0.000000
    15  Br   2.672762   2.955683   2.033334   2.535818   0.000000
 Symmetry turned off by external request.
 Stoichiometry    C6H5BrNO2(1+)
 Framework group  C1[X(C6H5BrNO2)]
 Deg. of freedom    39
 Full point group                 C1      NOp   1
 Rotational constants (GHZ):           1.1632986           0.9594224           0.5957624
 Leave Link  202 at Thu May  2 13:57:40 2024, MaxMem=   134217728 cpu:               1.2 elap:               1.2
 (Enter /software/gaussian/g16-c01/sse4/g16/l301.exe)
 Standard basis: 6-311+G(d) (5D, 7F)
 Ernie: Thresh=  0.10000D-02 Tol=  0.10000D-05 Strict=F.
 The following finite field(s) will be applied:
 An electric field of              0.0243  0.0000  0.0000
   261 basis functions,   443 primitive gaussians,   273 cartesian basis functions
    49 alpha electrons       49 beta electrons
       nuclear repulsion energy       772.8945969580 Hartrees.
 IExCor= 4639 DFT=T Ex+Corr=wB97XD ExCW=0 ScaHFX=  1.000000
 ScaDFX=  1.000000  1.000000  1.000000  1.000000 ScalE2=  1.000000  1.000000
 IRadAn=      5 IRanWt=     -1 IRanGd=            0 ICorTp=0 IEmpDi=121
 HFx  wShort=  0.000000 wLong=  0.200000 cFull=  0.222036 cShort=  0.000000 cLong=  0.777964
 DFx  wShort=  0.000000 wLong=  0.200000 cFull=  0.000000 cShort=  0.000000 cLong=  1.000000
 NAtoms=   15 NActive=   15 NUniq=   15 SFac= 1.00D+00 NAtFMM=   60 NAOKFM=F Big=F
 Integral buffers will be    131072 words long.
 Raffenetti 2 integral format.
 Two-electron integral symmetry is turned off.
 R6Disp:  Grimme-D2 Dispersion energy=       -0.0080346408 Hartrees.
 Nuclear repulsion after empirical dispersion term =      772.8865623173 Hartrees.
 Leave Link  301 at Thu May  2 13:57:41 2024, MaxMem=   134217728 cpu:               1.1 elap:               1.1
 (Enter /software/gaussian/g16-c01/sse4/g16/l302.exe)
 NPDir=0 NMtPBC=     1 NCelOv=     1 NCel=       1 NClECP=     1 NCelD=      1
         NCelK=      1 NCelE2=     1 NClLst=     1 CellRange=     0.0.
 One-electron integrals computed using PRISM.
 NBasis=   261 RedAO= T EigKep=  2.52D-06  NBF=   261
 NBsUse=   261 1.00D-06 EigRej= -1.00D+00 NBFU=   261
 Precomputing XC quadrature grid using
 IXCGrd= 4 IRadAn=           5 IRanWt=          -1 IRanGd=           0 AccXCQ= 0.00D+00.
 Generated NRdTot=       0 NPtTot=           0 NUsed=           0 NTot=          32
 NSgBfM=   273   273   273   273   273 MxSgAt=    15 MxSgA2=    15.
 Leave Link  302 at Thu May  2 13:58:03 2024, MaxMem=   134217728 cpu:              21.9 elap:              21.9
 (Enter /software/gaussian/g16-c01/sse4/g16/l303.exe)
 DipDrv:  MaxL=1.
 The nuclear repulsion energy is now       783.3013516284 hartrees.
 Leave Link  303 at Thu May  2 13:58:07 2024, MaxMem=   134217728 cpu:               3.2 elap:               3.2
 (Enter /software/gaussian/g16-c01/sse4/g16/l401.exe)
 ExpMin= 3.50D-02 ExpMax= 4.40D+05 ExpMxC= 1.51D+04 IAcc=3 IRadAn=         5 AccDes= 0.00D+00
 Harris functional with IExCor= 4639 and IRadAn=       5 diagonalized for initial guess.
 HarFok:  IExCor= 4639 AccDes= 0.00D+00 IRadAn=         5 IDoV= 1 UseB2=F ITyADJ=14
 ICtDFT=  3500011 ScaDFX=  1.000000  1.000000  1.000000  1.000000
 FoFCou: FMM=F IPFlag=           0 FMFlag=      100000 FMFlg1=           0
         NFxFlg=           0 DoJE=T BraDBF=F KetDBF=T FulRan=T
         wScrn=  0.000000 ICntrl=       500 IOpCl=  0 I1Cent=   200000004 NGrid=           0
         NMat0=    1 NMatS0=      1 NMatT0=    0 NMatD0=    1 NMtDS0=    0 NMtDT0=    0
 Symmetry not used in FoFCou.
 Harris En= -2970.64078831716    
 JPrj=0 DoOrth=F DoCkMO=F.
 Leave Link  401 at Thu May  2 13:58:38 2024, MaxMem=   134217728 cpu:              31.3 elap:              31.3
 (Enter /software/gaussian/g16-c01/sse4/g16/l502.exe)
 Two-electron integral symmetry not used.
 Closed shell SCF:
 Using DIIS extrapolation, IDIIS=  1040.
 NGot=   134217728 LenX=   134063053 LenY=   133988083
 Requested convergence on RMS density matrix=1.00D-08 within 128 cycles.
 Requested convergence on MAX density matrix=1.00D-06.
 Requested convergence on             energy=1.00D-06.
 No special actions if energy rises.
 Fock matrices will be formed incrementally for  20 cycles.

 Cycle   1  Pass 1  IDiag  1:
 FoFJK:  IHMeth= 1 ICntrl=       0 DoSepK=T KAlg= 0 I1Cent=           0 FoldK=F
 IRaf=         1 NMat=       1 IRICut=       1 DoRegI=T DoRafI=F ISym2E= 0 IDoP0=0 IntGTp=1.
 FoFCou: FMM=F IPFlag=           0 FMFlag=      100000 FMFlg1=           0
         NFxFlg=           0 DoJE=T BraDBF=F KetDBF=F FulRan=T
         wScrn=  0.000000 ICntrl=       500 IOpCl=  0 I1Cent=           0 NGrid=           0
         NMat0=    1 NMatS0=      1 NMatT0=    0 NMatD0=    1 NMtDS0=    0 NMtDT0=    0
 Symmetry not used in FoFCou.
 E= -3009.69592708938    
 DIIS: error= 2.90D-01 at cycle   1 NSaved=   1.
 NSaved= 1 IEnMin= 1 EnMin= -3009.69592708938     IErMin= 1 ErrMin= 2.90D-01
 ErrMax= 2.90D-01  0.00D+00 EMaxC= 1.00D-01 BMatC= 1.19D+01 BMatP= 1.19D+01
 IDIUse=3 WtCom= 0.00D+00 WtEn= 1.00D+00
 Coeff-Com:  0.100D+01
 Coeff-En:   0.100D+01
 Coeff:      0.100D+01
 Gap=     0.294 Goal=   None    Shift=    0.000
 GapD=    0.294 DampG=1.000 DampE=0.250 DampFc=0.2500 IDamp=-1.
 Damping current iteration by 2.50D-01
 RMSDP=1.79D-01 MaxDP=1.85D+01              OVMax= 2.50D-01

 Cycle   2  Pass 1  IDiag  1:
 RMSU=  9.05D-03    CP:  8.15D-01
 E= -3009.98469411180     Delta-E=       -0.288767022419 Rises=F Damp=T
 DIIS: error= 2.19D-01 at cycle   2 NSaved=   2.
 NSaved= 2 IEnMin= 2 EnMin= -3009.98469411180     IErMin= 2 ErrMin= 2.19D-01
 ErrMax= 2.19D-01  0.00D+00 EMaxC= 1.00D-01 BMatC= 5.46D+00 BMatP= 1.19D+01
 IDIUse=3 WtCom= 0.00D+00 WtEn= 1.00D+00
 Coeff-Com: -0.185D+01 0.285D+01
 Coeff-En:   0.000D+00 0.100D+01
 Coeff:      0.000D+00 0.100D+01
 Gap=     0.236 Goal=   None    Shift=    0.000
 RMSDP=1.34D-01 MaxDP=1.41D+01 DE=-2.89D-01 OVMax= 7.46D-02

 Cycle   3  Pass 1  IDiag  1:
 RMSU=  6.12D-03    CP:  2.59D-01  3.00D+00
 E= -3010.39120095133     Delta-E=       -0.406506839530 Rises=F Damp=F
 DIIS: error= 6.57D-02 at cycle   3 NSaved=   3.
 NSaved= 3 IEnMin= 3 EnMin= -3010.39120095133     IErMin= 3 ErrMin= 6.57D-02
 ErrMax= 6.57D-02  0.00D+00 EMaxC= 1.00D-01 BMatC= 7.23D-01 BMatP= 5.46D+00
 IDIUse=3 WtCom= 3.43D-01 WtEn= 6.57D-01
 Coeff-Com:  0.276D+01-0.364D+01 0.187D+01
 Coeff-En:   0.000D+00 0.000D+00 0.100D+01
 Coeff:      0.947D+00-0.125D+01 0.130D+01
 Gap=     0.241 Goal=   None    Shift=    0.000
 RMSDP=1.74D-02 MaxDP=1.04D+00 DE=-4.07D-01 OVMax= 7.05D-02

 Cycle   4  Pass 1  IDiag  1:
 RMSU=  1.03D-02    CP:  2.86D-01  2.29D+00  2.48D+00
 E= -3010.48514335057     Delta-E=       -0.093942399239 Rises=F Damp=F
 DIIS: error= 4.15D-02 at cycle   4 NSaved=   4.
 NSaved= 4 IEnMin= 4 EnMin= -3010.48514335057     IErMin= 4 ErrMin= 4.15D-02
 ErrMax= 4.15D-02  0.00D+00 EMaxC= 1.00D-01 BMatC= 2.67D-01 BMatP= 7.23D-01
 IDIUse=3 WtCom= 5.85D-01 WtEn= 4.15D-01
 Coeff-Com: -0.227D+00 0.316D+00 0.268D+00 0.643D+00
 Coeff-En:   0.000D+00 0.000D+00 0.233D+00 0.767D+00
 Coeff:     -0.133D+00 0.185D+00 0.253D+00 0.695D+00
 Gap=     0.249 Goal=   None    Shift=    0.000
 RMSDP=8.22D-03 MaxDP=7.52D-01 DE=-9.39D-02 OVMax= 3.28D-02

 Cycle   5  Pass 1  IDiag  1:
 RMSU=  2.77D-03    CP:  2.57D-01  2.41D+00  2.19D+00  7.17D-01
 E= -3010.53660694472     Delta-E=       -0.051463594153 Rises=F Damp=F
 DIIS: error= 6.71D-03 at cycle   5 NSaved=   5.
 NSaved= 5 IEnMin= 5 EnMin= -3010.53660694472     IErMin= 5 ErrMin= 6.71D-03
 ErrMax= 6.71D-03  0.00D+00 EMaxC= 1.00D-01 BMatC= 7.44D-03 BMatP= 2.67D-01
 IDIUse=3 WtCom= 9.33D-01 WtEn= 6.71D-02
 Coeff-Com: -0.146D+00 0.198D+00 0.620D-01 0.331D+00 0.555D+00
 Coeff-En:   0.000D+00 0.000D+00 0.000D+00 0.000D+00 0.100D+01
 Coeff:     -0.136D+00 0.185D+00 0.578D-01 0.308D+00 0.585D+00
 Gap=     0.243 Goal=   None    Shift=    0.000
 RMSDP=1.45D-03 MaxDP=1.63D-01 DE=-5.15D-02 OVMax= 1.30D-02

 Cycle   6  Pass 1  IDiag  1:
 RMSU=  6.27D-04    CP:  2.59D-01  2.42D+00  2.27D+00  8.09D-01  8.22D-01
 E= -3010.53822473493     Delta-E=       -0.001617790216 Rises=F Damp=F
 DIIS: error= 1.93D-03 at cycle   6 NSaved=   6.
 NSaved= 6 IEnMin= 6 EnMin= -3010.53822473493     IErMin= 6 ErrMin= 1.93D-03
 ErrMax= 1.93D-03  0.00D+00 EMaxC= 1.00D-01 BMatC= 3.38D-04 BMatP= 7.44D-03
 IDIUse=3 WtCom= 9.81D-01 WtEn= 1.93D-02
 Coeff-Com: -0.892D-01 0.120D+00-0.621D-02 0.136D+00 0.373D+00 0.467D+00
 Coeff-En:   0.000D+00 0.000D+00 0.000D+00 0.000D+00 0.000D+00 0.100D+01
 Coeff:     -0.875D-01 0.117D+00-0.609D-02 0.133D+00 0.365D+00 0.477D+00
 Gap=     0.243 Goal=   None    Shift=    0.000
 RMSDP=5.58D-04 MaxDP=4.43D-02 DE=-1.62D-03 OVMax= 6.36D-03

 Cycle   7  Pass 1  IDiag  1:
 RMSU=  2.14D-04    CP:  2.57D-01  2.41D+00  2.28D+00  7.98D-01  9.31D-01
                    CP:  8.80D-01
 E= -3010.53847889901     Delta-E=       -0.000254164073 Rises=F Damp=F
 DIIS: error= 4.06D-04 at cycle   7 NSaved=   7.
 NSaved= 7 IEnMin= 7 EnMin= -3010.53847889901     IErMin= 7 ErrMin= 4.06D-04
 ErrMax= 4.06D-04  0.00D+00 EMaxC= 1.00D-01 BMatC= 2.16D-05 BMatP= 3.38D-04
 IDIUse=3 WtCom= 9.96D-01 WtEn= 4.06D-03
 Coeff-Com: -0.163D-01 0.213D-01-0.160D-01 0.735D-03 0.501D-01 0.198D+00
 Coeff-Com:  0.762D+00
 Coeff-En:   0.000D+00 0.000D+00 0.000D+00 0.000D+00 0.000D+00 0.000D+00
 Coeff-En:   0.100D+01
 Coeff:     -0.163D-01 0.212D-01-0.159D-01 0.733D-03 0.499D-01 0.197D+00
 Coeff:      0.763D+00
 Gap=     0.244 Goal=   None    Shift=    0.000
 RMSDP=3.60D-04 MaxDP=3.79D-02 DE=-2.54D-04 OVMax= 4.08D-03

 Cycle   8  Pass 1  IDiag  1:
 RMSU=  1.50D-04    CP:  2.57D-01  2.39D+00  2.30D+00  8.13D-01  9.85D-01
                    CP:  9.60D-01  1.38D+00
 E= -3010.53851452570     Delta-E=       -0.000035626691 Rises=F Damp=F
 DIIS: error= 2.00D-04 at cycle   8 NSaved=   8.
 NSaved= 8 IEnMin= 8 EnMin= -3010.53851452570     IErMin= 8 ErrMin= 2.00D-04
 ErrMax= 2.00D-04  0.00D+00 EMaxC= 1.00D-01 BMatC= 4.28D-06 BMatP= 2.16D-05
 IDIUse=3 WtCom= 9.98D-01 WtEn= 2.00D-03
 Coeff-Com:  0.166D-01-0.224D-01-0.320D-02-0.288D-01-0.604D-01-0.416D-01
 Coeff-Com:  0.291D+00 0.849D+00
 Coeff-En:   0.000D+00 0.000D+00 0.000D+00 0.000D+00 0.000D+00 0.000D+00
 Coeff-En:   0.000D+00 0.100D+01
 Coeff:      0.165D-01-0.224D-01-0.319D-02-0.287D-01-0.603D-01-0.415D-01
 Coeff:      0.290D+00 0.850D+00
 Gap=     0.244 Goal=   None    Shift=    0.000
 RMSDP=1.74D-04 MaxDP=1.35D-02 DE=-3.56D-05 OVMax= 2.69D-03

 Cycle   9  Pass 1  IDiag  1:
 RMSU=  4.58D-05    CP:  2.57D-01  2.39D+00  2.32D+00  8.22D-01  1.00D+00
                    CP:  1.06D+00  1.63D+00  1.23D+00
 E= -3010.53852558162     Delta-E=       -0.000011055923 Rises=F Damp=F
 DIIS: error= 3.97D-05 at cycle   9 NSaved=   9.
 NSaved= 9 IEnMin= 9 EnMin= -3010.53852558162     IErMin= 9 ErrMin= 3.97D-05
 ErrMax= 3.97D-05  0.00D+00 EMaxC= 1.00D-01 BMatC= 5.89D-07 BMatP= 4.28D-06
 IDIUse=1 WtCom= 1.00D+00 WtEn= 0.00D+00
 Coeff-Com:  0.855D-02-0.114D-01 0.160D-02-0.105D-01-0.264D-01-0.391D-01
 Coeff-Com: -0.288D-01 0.237D+00 0.869D+00
 Coeff:      0.855D-02-0.114D-01 0.160D-02-0.105D-01-0.264D-01-0.391D-01
 Coeff:     -0.288D-01 0.237D+00 0.869D+00
 Gap=     0.244 Goal=   None    Shift=    0.000
 RMSDP=5.19D-05 MaxDP=3.02D-03 DE=-1.11D-05 OVMax= 1.53D-03

 Cycle  10  Pass 1  IDiag  1:
 RMSU=  1.90D-05    CP:  2.57D-01  2.39D+00  2.32D+00  8.23D-01  1.01D+00
                    CP:  1.07D+00  1.66D+00  1.30D+00  1.31D+00
 E= -3010.53852766804     Delta-E=       -0.000002086414 Rises=F Damp=F
 DIIS: error= 2.24D-05 at cycle  10 NSaved=  10.
 NSaved=10 IEnMin=10 EnMin= -3010.53852766804     IErMin=10 ErrMin= 2.24D-05
 ErrMax= 2.24D-05  0.00D+00 EMaxC= 1.00D-01 BMatC= 1.55D-07 BMatP= 5.89D-07
 IDIUse=1 WtCom= 1.00D+00 WtEn= 0.00D+00
 Coeff-Com: -0.172D-03 0.277D-03 0.688D-03 0.745D-03 0.213D-02 0.336D-03
 Coeff-Com: -0.516D-01-0.918D-01 0.271D+00 0.868D+00
 Coeff:     -0.172D-03 0.277D-03 0.688D-03 0.745D-03 0.213D-02 0.336D-03
 Coeff:     -0.516D-01-0.918D-01 0.271D+00 0.868D+00
 Gap=     0.244 Goal=   None    Shift=    0.000
 RMSDP=3.03D-05 MaxDP=2.45D-03 DE=-2.09D-06 OVMax= 7.34D-04

 Cycle  11  Pass 1  IDiag  1:
 RMSU=  7.49D-06    CP:  2.57D-01  2.39D+00  2.32D+00  8.24D-01  1.01D+00
                    CP:  1.08D+00  1.62D+00  1.28D+00  1.54D+00  1.53D+00
 E= -3010.53852816509     Delta-E=       -0.000000497057 Rises=F Damp=F
 DIIS: error= 9.54D-06 at cycle  11 NSaved=  11.
 NSaved=11 IEnMin=11 EnMin= -3010.53852816509     IErMin=11 ErrMin= 9.54D-06
 ErrMax= 9.54D-06  0.00D+00 EMaxC= 1.00D-01 BMatC= 1.82D-08 BMatP= 1.55D-07
 IDIUse=1 WtCom= 1.00D+00 WtEn= 0.00D+00
 Coeff-Com: -0.752D-03 0.100D-02 0.541D-06 0.153D-02 0.449D-02 0.853D-02
 Coeff-Com:  0.102D-01-0.620D-01-0.141D+00 0.331D-01 0.115D+01
 Coeff:     -0.752D-03 0.100D-02 0.541D-06 0.153D-02 0.449D-02 0.853D-02
 Coeff:      0.102D-01-0.620D-01-0.141D+00 0.331D-01 0.115D+01
 Gap=     0.244 Goal=   None    Shift=    0.000
 RMSDP=1.92D-05 MaxDP=1.93D-03 DE=-4.97D-07 OVMax= 5.14D-04

 Cycle  12  Pass 1  IDiag  1:
 RMSU=  3.27D-06    CP:  2.57D-01  2.39D+00  2.32D+00  8.24D-01  1.01D+00
                    CP:  1.08D+00  1.58D+00  1.26D+00  1.69D+00  1.88D+00
                    CP:  1.52D+00
 E= -3010.53852829894     Delta-E=       -0.000000133849 Rises=F Damp=F
 DIIS: error= 4.91D-06 at cycle  12 NSaved=  12.
 NSaved=12 IEnMin=12 EnMin= -3010.53852829894     IErMin=12 ErrMin= 4.91D-06
 ErrMax= 4.91D-06  0.00D+00 EMaxC= 1.00D-01 BMatC= 8.90D-09 BMatP= 1.82D-08
 IDIUse=1 WtCom= 1.00D+00 WtEn= 0.00D+00
 Coeff-Com: -0.352D-03 0.463D-03-0.719D-04 0.693D-03 0.158D-02 0.373D-02
 Coeff-Com:  0.135D-01-0.217D-01-0.114D+00-0.147D+00 0.602D+00 0.661D+00
 Coeff:     -0.352D-03 0.463D-03-0.719D-04 0.693D-03 0.158D-02 0.373D-02
 Coeff:      0.135D-01-0.217D-01-0.114D+00-0.147D+00 0.602D+00 0.661D+00
 Gap=     0.244 Goal=   None    Shift=    0.000
 RMSDP=6.33D-06 MaxDP=4.15D-04 DE=-1.34D-07 OVMax= 1.70D-04

 Cycle  13  Pass 1  IDiag  1:
 RMSU=  1.83D-06    CP:  2.57D-01  2.39D+00  2.32D+00  8.23D-01  1.01D+00
                    CP:  1.08D+00  1.58D+00  1.25D+00  1.74D+00  2.00D+00
                    CP:  1.69D+00  1.06D+00
 E= -3010.53852832380     Delta-E=       -0.000000024858 Rises=F Damp=F
 DIIS: error= 1.49D-06 at cycle  13 NSaved=  13.
 NSaved=13 IEnMin=13 EnMin= -3010.53852832380     IErMin=13 ErrMin= 1.49D-06
 ErrMax= 1.49D-06  0.00D+00 EMaxC= 1.00D-01 BMatC= 8.68D-10 BMatP= 8.90D-09
 IDIUse=1 WtCom= 1.00D+00 WtEn= 0.00D+00
 Coeff-Com: -0.543D-04 0.731D-04-0.474D-04-0.165D-03-0.104D-02-0.172D-02
 Coeff-Com: -0.563D-03 0.999D-02 0.266D-01-0.349D-01-0.160D+00 0.376D-01
 Coeff-Com:  0.112D+01
 Coeff:     -0.543D-04 0.731D-04-0.474D-04-0.165D-03-0.104D-02-0.172D-02
 Coeff:     -0.563D-03 0.999D-02 0.266D-01-0.349D-01-0.160D+00 0.376D-01
 Coeff:      0.112D+01
 Gap=     0.244 Goal=   None    Shift=    0.000
 RMSDP=2.60D-06 MaxDP=1.85D-04 DE=-2.49D-08 OVMax= 9.21D-05

 Cycle  14  Pass 1  IDiag  1:
 RMSU=  8.00D-07    CP:  2.57D-01  2.39D+00  2.32D+00  8.24D-01  1.01D+00
                    CP:  1.08D+00  1.58D+00  1.25D+00  1.76D+00  2.01D+00
                    CP:  1.73D+00  1.27D+00  1.66D+00
 E= -3010.53852832883     Delta-E=       -0.000000005028 Rises=F Damp=F
 DIIS: error= 1.02D-06 at cycle  14 NSaved=  14.
 NSaved=14 IEnMin=14 EnMin= -3010.53852832883     IErMin=14 ErrMin= 1.02D-06
 ErrMax= 1.02D-06  0.00D+00 EMaxC= 1.00D-01 BMatC= 1.47D-10 BMatP= 8.68D-10
 IDIUse=1 WtCom= 1.00D+00 WtEn= 0.00D+00
 Coeff-Com:  0.462D-04-0.607D-04-0.401D-05-0.154D-03-0.471D-03-0.962D-03
 Coeff-Com: -0.204D-02 0.637D-02 0.262D-01 0.110D-01-0.133D+00-0.106D+00
 Coeff-Com:  0.322D+00 0.877D+00
 Coeff:      0.462D-04-0.607D-04-0.401D-05-0.154D-03-0.471D-03-0.962D-03
 Coeff:     -0.204D-02 0.637D-02 0.262D-01 0.110D-01-0.133D+00-0.106D+00
 Coeff:      0.322D+00 0.877D+00
 Gap=     0.244 Goal=   None    Shift=    0.000
 RMSDP=1.42D-06 MaxDP=1.69D-04 DE=-5.03D-09 OVMax= 2.78D-05

 Cycle  15  Pass 1  IDiag  1:
 RMSU=  2.18D-07    CP:  2.57D-01  2.39D+00  2.32D+00  8.24D-01  1.01D+00
                    CP:  1.08D+00  1.58D+00  1.26D+00  1.76D+00  2.00D+00
                    CP:  1.71D+00  1.32D+00  2.02D+00  1.34D+00
 E= -3010.53852832958     Delta-E=       -0.000000000751 Rises=F Damp=F
 DIIS: error= 3.97D-07 at cycle  15 NSaved=  15.
 NSaved=15 IEnMin=15 EnMin= -3010.53852832958     IErMin=15 ErrMin= 3.97D-07
 ErrMax= 3.97D-07  0.00D+00 EMaxC= 1.00D-01 BMatC= 3.36D-11 BMatP= 1.47D-10
 IDIUse=1 WtCom= 1.00D+00 WtEn= 0.00D+00
 Coeff-Com:  0.127D-04-0.168D-04 0.631D-05 0.700D-05 0.142D-03 0.134D-03
 Coeff-Com: -0.572D-03-0.756D-03 0.916D-03 0.903D-02-0.747D-02-0.408D-01
 Coeff-Com: -0.125D+00 0.299D+00 0.865D+00
 Coeff:      0.127D-04-0.168D-04 0.631D-05 0.700D-05 0.142D-03 0.134D-03
 Coeff:     -0.572D-03-0.756D-03 0.916D-03 0.903D-02-0.747D-02-0.408D-01
 Coeff:     -0.125D+00 0.299D+00 0.865D+00
 Gap=     0.244 Goal=   None    Shift=    0.000
 RMSDP=6.67D-07 MaxDP=5.81D-05 DE=-7.51D-10 OVMax= 1.52D-05

 Cycle  16  Pass 1  IDiag  1:
 RMSU=  8.59D-08    CP:  2.57D-01  2.39D+00  2.32D+00  8.24D-01  1.01D+00
                    CP:  1.08D+00  1.58D+00  1.26D+00  1.76D+00  2.00D+00
                    CP:  1.70D+00  1.32D+00  2.18D+00  1.56D+00  1.43D+00
 E= -3010.53852832971     Delta-E=       -0.000000000128 Rises=F Damp=F
 DIIS: error= 1.04D-07 at cycle  16 NSaved=  16.
 NSaved=16 IEnMin=16 EnMin= -3010.53852832971     IErMin=16 ErrMin= 1.04D-07
 ErrMax= 1.04D-07  0.00D+00 EMaxC= 1.00D-01 BMatC= 3.88D-12 BMatP= 3.36D-11
 IDIUse=1 WtCom= 1.00D+00 WtEn= 0.00D+00
 Coeff-Com: -0.707D-06 0.892D-06 0.219D-05 0.169D-04 0.796D-04 0.123D-03
 Coeff-Com:  0.706D-04-0.798D-03-0.267D-02 0.257D-02 0.139D-01 0.516D-02
 Coeff-Com: -0.784D-01-0.545D-01 0.202D+00 0.912D+00
 Coeff:     -0.707D-06 0.892D-06 0.219D-05 0.169D-04 0.796D-04 0.123D-03
 Coeff:      0.706D-04-0.798D-03-0.267D-02 0.257D-02 0.139D-01 0.516D-02
 Coeff:     -0.784D-01-0.545D-01 0.202D+00 0.912D+00
 Gap=     0.244 Goal=   None    Shift=    0.000
 RMSDP=2.76D-07 MaxDP=3.43D-05 DE=-1.28D-10 OVMax= 2.87D-06

 Cycle  17  Pass 1  IDiag  1:
 RMSU=  2.90D-08    CP:  2.57D-01  2.39D+00  2.32D+00  8.24D-01  1.01D+00
                    CP:  1.08D+00  1.58D+00  1.26D+00  1.77D+00  2.00D+00
                    CP:  1.69D+00  1.32D+00  2.24D+00  1.63D+00  1.70D+00
                    CP:  1.21D+00
 E= -3010.53852832971     Delta-E=       -0.000000000002 Rises=F Damp=F
 DIIS: error= 4.10D-08 at cycle  17 NSaved=  17.
 NSaved=17 IEnMin=17 EnMin= -3010.53852832971     IErMin=17 ErrMin= 4.10D-08
 ErrMax= 4.10D-08  0.00D+00 EMaxC= 1.00D-01 BMatC= 5.93D-13 BMatP= 3.88D-12
 IDIUse=1 WtCom= 1.00D+00 WtEn= 0.00D+00
 Coeff-Com: -0.145D-05 0.192D-05-0.562D-07 0.305D-05 0.114D-05 0.286D-05
 Coeff-Com:  0.702D-04-0.264D-04-0.943D-03-0.480D-03 0.299D-02 0.708D-02
 Coeff-Com: -0.498D-02-0.470D-01-0.524D-01 0.246D+00 0.850D+00
 Coeff:     -0.145D-05 0.192D-05-0.562D-07 0.305D-05 0.114D-05 0.286D-05
 Coeff:      0.702D-04-0.264D-04-0.943D-03-0.480D-03 0.299D-02 0.708D-02
 Coeff:     -0.498D-02-0.470D-01-0.524D-01 0.246D+00 0.850D+00
 Gap=     0.244 Goal=   None    Shift=    0.000
 RMSDP=4.61D-08 MaxDP=3.10D-06 DE=-1.82D-12 OVMax= 1.25D-06

 Cycle  18  Pass 1  IDiag  1:
 RMSU=  1.01D-08    CP:  2.57D-01  2.39D+00  2.32D+00  8.24D-01  1.01D+00
                    CP:  1.08D+00  1.58D+00  1.26D+00  1.77D+00  2.00D+00
                    CP:  1.69D+00  1.32D+00  2.24D+00  1.64D+00  1.78D+00
                    CP:  1.39D+00  1.21D+00
 E= -3010.53852832975     Delta-E=       -0.000000000038 Rises=F Damp=F
 DIIS: error= 1.59D-08 at cycle  18 NSaved=  18.
 NSaved=18 IEnMin=18 EnMin= -3010.53852832975     IErMin=18 ErrMin= 1.59D-08
 ErrMax= 1.59D-08  0.00D+00 EMaxC= 1.00D-01 BMatC= 1.33D-13 BMatP= 5.93D-13
 IDIUse=1 WtCom= 1.00D+00 WtEn= 0.00D+00
 Coeff-Com:  0.839D-07-0.112D-06-0.347D-06-0.241D-05-0.140D-04-0.235D-04
 Coeff-Com:  0.131D-04 0.165D-03 0.156D-03-0.499D-03-0.158D-02 0.242D-02
 Coeff-Com:  0.133D-01-0.704D-02-0.608D-01-0.927D-01 0.311D+00 0.835D+00
 Coeff:      0.839D-07-0.112D-06-0.347D-06-0.241D-05-0.140D-04-0.235D-04
 Coeff:      0.131D-04 0.165D-03 0.156D-03-0.499D-03-0.158D-02 0.242D-02
 Coeff:      0.133D-01-0.704D-02-0.608D-01-0.927D-01 0.311D+00 0.835D+00
 Gap=     0.244 Goal=   None    Shift=    0.000
 RMSDP=4.01D-08 MaxDP=4.58D-06 DE=-3.82D-11 OVMax= 3.69D-07

 Cycle  19  Pass 1  IDiag  1:
 RMSU=  4.20D-09    CP:  2.57D-01  2.39D+00  2.32D+00  8.24D-01  1.01D+00
                    CP:  1.08D+00  1.58D+00  1.26D+00  1.77D+00  2.00D+00
                    CP:  1.69D+00  1.32D+00  2.25D+00  1.63D+00  1.82D+00
                    CP:  1.45D+00  1.42D+00  1.06D+00
 E= -3010.53852832970     Delta-E=        0.000000000052 Rises=F Damp=F
 DIIS: error= 4.07D-09 at cycle  19 NSaved=  19.
 NSaved=19 IEnMin=18 EnMin= -3010.53852832975     IErMin=19 ErrMin= 4.07D-09
 ErrMax= 4.07D-09  0.00D+00 EMaxC= 1.00D-01 BMatC= 5.90D-15 BMatP= 1.33D-13
 IDIUse=1 WtCom= 1.00D+00 WtEn= 0.00D+00
 Coeff-Com: -0.119D-07 0.174D-07-0.445D-07-0.146D-06 0.987D-07-0.137D-05
 Coeff-Com: -0.730D-05 0.493D-05 0.624D-04 0.913D-04-0.485D-03-0.291D-03
 Coeff-Com:  0.570D-03 0.309D-02 0.327D-02-0.238D-01-0.438D-01 0.202D-01
 Coeff-Com:  0.104D+01
 Coeff:     -0.119D-07 0.174D-07-0.445D-07-0.146D-06 0.987D-07-0.137D-05
 Coeff:     -0.730D-05 0.493D-05 0.624D-04 0.913D-04-0.485D-03-0.291D-03
 Coeff:      0.570D-03 0.309D-02 0.327D-02-0.238D-01-0.438D-01 0.202D-01
 Coeff:      0.104D+01
 Gap=     0.244 Goal=   None    Shift=    0.000
 RMSDP=4.68D-09 MaxDP=3.94D-07 DE= 5.18D-11 OVMax= 1.21D-07

 SCF Done:  E(RwB97XD) =  -3010.53852833     A.U. after   19 cycles
            NFock= 19  Conv=0.47D-08     -V/T= 2.0016
 KE= 3.005874655298D+03 PE=-8.710674997443D+03 EE= 1.910960462188D+03
 Leave Link  502 at Thu May  2 14:17:56 2024, MaxMem=   134217728 cpu:            1158.0 elap:            1158.2
 (Enter /software/gaussian/g16-c01/sse4/g16/l601.exe)
 Copying SCF densities to generalized density rwf, IOpCl= 0 IROHF=0.

 **********************************************************************

            Population analysis using the SCF Density.

 **********************************************************************

 Alpha  occ. eigenvalues -- -483.39790 -62.94825 -56.74501 -56.73956 -56.73946
 Alpha  occ. eigenvalues --  -19.61432 -19.61294 -15.00383 -10.68148 -10.66841
 Alpha  occ. eigenvalues --  -10.64218 -10.63277 -10.63208 -10.58399  -9.10641
 Alpha  occ. eigenvalues --   -6.93273  -6.91479  -6.91450  -3.03188  -3.02715
 Alpha  occ. eigenvalues --   -3.02691  -3.01255  -3.01254  -1.64968  -1.48077
 Alpha  occ. eigenvalues --   -1.31150  -1.21899  -1.20728  -1.13532  -1.09878
 Alpha  occ. eigenvalues --   -1.03149  -1.00201  -0.96960  -0.94830  -0.93363
 Alpha  occ. eigenvalues --   -0.89204  -0.86754  -0.84752  -0.84116  -0.80054
 Alpha  occ. eigenvalues --   -0.74840  -0.74484  -0.72718  -0.72568  -0.71395
 Alpha  occ. eigenvalues --   -0.70956  -0.67803  -0.65173  -0.63296
 Alpha virt. eigenvalues --   -0.38886  -0.32520  -0.24356  -0.22004  -0.21685
 Alpha virt. eigenvalues --   -0.18572  -0.17028  -0.16422  -0.14943  -0.12303
 Alpha virt. eigenvalues --   -0.12084  -0.11016  -0.10772  -0.09201  -0.08289
 Alpha virt. eigenvalues --   -0.08176  -0.07735  -0.07046  -0.06088  -0.05116
 Alpha virt. eigenvalues --   -0.04435  -0.03916  -0.02602  -0.02285  -0.01861
 Alpha virt. eigenvalues --   -0.01588  -0.00539  -0.00029   0.00202   0.00460
 Alpha virt. eigenvalues --    0.02009   0.02808   0.03069   0.03759   0.04717
 Alpha virt. eigenvalues --    0.05317   0.06049   0.07054   0.07255   0.07401
 Alpha virt. eigenvalues --    0.08543   0.08853   0.09267   0.10810   0.11441
 Alpha virt. eigenvalues --    0.12179   0.13116   0.14462   0.14651   0.15766
 Alpha virt. eigenvalues --    0.16585   0.17140   0.17811   0.19474   0.20387
 Alpha virt. eigenvalues --    0.22111   0.22498   0.24369   0.24719   0.26982
 Alpha virt. eigenvalues --    0.28579   0.28941   0.31420   0.33094   0.34689
 Alpha virt. eigenvalues --    0.36136   0.36299   0.37436   0.38331   0.39620
 Alpha virt. eigenvalues --    0.40655   0.41473   0.42296   0.43268   0.45803
 Alpha virt. eigenvalues --    0.47181   0.48185   0.49788   0.50913   0.51811
 Alpha virt. eigenvalues --    0.55446   0.55600   0.57755   0.59332   0.61360
 Alpha virt. eigenvalues --    0.62392   0.63867   0.65241   0.66752   0.68210
 Alpha virt. eigenvalues --    0.68891   0.70425   0.71824   0.72081   0.74529
 Alpha virt. eigenvalues --    0.78070   0.78924   0.81040   0.84002   0.86231
 Alpha virt. eigenvalues --    0.87166   0.90709   0.93431   0.96080   0.96342
 Alpha virt. eigenvalues --    0.98099   0.99223   0.99928   1.01650   1.06209
 Alpha virt. eigenvalues --    1.07908   1.09433   1.19231   1.25310   1.28657
 Alpha virt. eigenvalues --    1.29214   1.30410   1.35159   1.43321   1.45097
 Alpha virt. eigenvalues --    1.47046   1.48845   1.53124   1.55150   1.57784
 Alpha virt. eigenvalues --    1.58682   1.60785   1.63375   1.68440   1.71347
 Alpha virt. eigenvalues --    1.76680   1.77197   1.79794   1.85611   1.86755
 Alpha virt. eigenvalues --    1.87182   1.92168   1.93481   1.98480   2.00592
 Alpha virt. eigenvalues --    2.04650   2.06861   2.12168   2.15312   2.21221
 Alpha virt. eigenvalues --    2.25884   2.29609   2.31836   2.35774   2.45597
 Alpha virt. eigenvalues --    2.50574   2.53793   2.55997   2.58424   2.60085
 Alpha virt. eigenvalues --    2.61733   2.62559   2.65801   2.68593   2.74050
 Alpha virt. eigenvalues --    2.83646   2.87214   2.90616   2.96638   3.00314
 Alpha virt. eigenvalues --    3.05082   3.09176   3.09553   3.11371   3.11918
 Alpha virt. eigenvalues --    3.19051   3.26278   3.39636   3.40514   3.41359
 Alpha virt. eigenvalues --    3.47886   3.54345   3.59477   3.75978   3.79430
 Alpha virt. eigenvalues --    4.01292   4.02155   4.10661   4.14899   4.29470
 Alpha virt. eigenvalues --    4.35018   4.44357   4.48890   4.77869   4.80603
 Alpha virt. eigenvalues --    4.89459   4.93957   5.46951   5.99598   6.59365
 Alpha virt. eigenvalues --    7.40197   7.42507   7.52702  23.14679  23.53444
 Alpha virt. eigenvalues --   23.63364  23.71383  23.88941  23.93667  35.16810
 Alpha virt. eigenvalues --   47.85516  49.70034  49.78697 289.73170 289.75510
 Alpha virt. eigenvalues --  289.881461020.86718
          Condensed to atoms (all electrons):
               1          2          3          4          5          6
     1  C    6.738222  -1.389986   0.482014   0.017983   0.284551   0.066600
     2  C   -1.389986  16.967586  -4.215258   0.417604  -0.030805   0.255367
     3  C    0.482014  -4.215258  20.926608  -0.837176   0.026522   0.088178
     4  C    0.017983   0.417604  -0.837176   6.242222   0.037121  -0.020073
     5  H    0.284551  -0.030805   0.026522   0.037121   0.279088  -0.001463
     6  H    0.066600   0.255367   0.088178  -0.020073  -0.001463   0.342691
     7  H    0.019739  -0.009575   0.003692   0.293325  -0.001488   0.000014
     8  N   -0.022451  -0.265681  -1.960866  -0.005177  -0.000468  -0.034202
     9  O    0.003625   0.321350   0.048488  -0.007656  -0.000017  -0.002087
    10  O    0.147826  -0.225863  -0.247348  -0.025499  -0.000072   0.012604
    11  C    0.387381  -0.692215   0.182061  -0.034891  -0.021575   0.011632
    12  H   -0.013463   0.014814   0.003628   0.038593   0.000069  -0.000012
    13  C   -0.598210  -5.216280  -8.138837   0.193471   0.023462  -0.040395
    14  H    0.003565   0.080207   0.315424  -0.011129  -0.000032   0.000127
    15  Br   0.018501  -0.173808  -0.487554  -0.009166   0.000066  -0.001139
               7          8          9         10         11         12
     1  C    0.019739  -0.022451   0.003625   0.147826   0.387381  -0.013463
     2  C   -0.009575  -0.265681   0.321350  -0.225863  -0.692215   0.014814
     3  C    0.003692  -1.960866   0.048488  -0.247348   0.182061   0.003628
     4  C    0.293325  -0.005177  -0.007656  -0.025499  -0.034891   0.038593
     5  H   -0.001488  -0.000468  -0.000017  -0.000072  -0.021575   0.000069
     6  H    0.000014  -0.034202  -0.002087   0.012604   0.011632  -0.000012
     7  H    0.250021   0.000217  -0.000010   0.000006   0.020826  -0.001422
     8  N    0.000217   7.332261   0.204943   0.314134   0.069446  -0.000572
     9  O   -0.000010   0.204943   7.956030  -0.045299   0.088983   0.000175
    10  O    0.000006   0.314134  -0.045299   7.910590   0.019990  -0.000024
    11  C    0.020826   0.069446   0.088983   0.019990   6.823957   0.306962
    12  H   -0.001422  -0.000572   0.000175  -0.000024   0.306962   0.265434
    13  C   -0.011420   1.489249  -0.514665   0.181369  -0.992519  -0.033830
    14  H   -0.000002  -0.061333   0.014567  -0.002104  -0.102804  -0.002949
    15  Br  -0.000358   0.178949  -0.060995   0.008203   0.073307   0.006870
              13         14         15
     1  C   -0.598210   0.003565   0.018501
     2  C   -5.216280   0.080207  -0.173808
     3  C   -8.138837   0.315424  -0.487554
     4  C    0.193471  -0.011129  -0.009166
     5  H    0.023462  -0.000032   0.000066
     6  H   -0.040395   0.000127  -0.001139
     7  H   -0.011420  -0.000002  -0.000358
     8  N    1.489249  -0.061333   0.178949
     9  O   -0.514665   0.014567  -0.060995
    10  O    0.181369  -0.002104   0.008203
    11  C   -0.992519  -0.102804   0.073307
    12  H   -0.033830  -0.002949   0.006870
    13  C   19.187843   0.066411   0.610336
    14  H    0.066411   0.374747  -0.057413
    15  Br   0.610336  -0.057413  34.752861
 Mulliken charges:
               1
     1  C   -0.145899
     2  C    0.162542
     3  C   -0.189576
     4  C   -0.289553
     5  H    0.405042
     6  H    0.322160
     7  H    0.436433
     8  N   -0.238450
     9  O   -0.007434
    10  O   -0.048515
    11  C   -0.140543
    12  H    0.415727
    13  C   -0.205988
    14  H    0.382716
    15  Br   0.141339
 Sum of Mulliken charges =   1.00000
 Mulliken charges with hydrogens summed into heavy atoms:
               1
     1  C    0.259143
     2  C    0.484702
     3  C   -0.189576
     4  C    0.146881
     8  N   -0.238450
     9  O   -0.007434
    10  O   -0.048515
    11  C    0.275184
    13  C    0.176728
    15  Br   0.141339
 Electronic spatial extent (au):  <R**2>=           3968.4069
 Charge=              1.0000 electrons
 Dipole moment (field-independent basis, Debye):
    X=             -4.2373    Y=             -0.5779    Z=             -0.4372  Tot=              4.2988
 Quadrupole moment (field-independent basis, Debye-Ang):
   XX=            -96.4752   YY=            -51.6868   ZZ=            -62.9648
   XY=             -1.1961   XZ=             -0.6826   YZ=              1.7105
 Traceless Quadrupole moment (field-independent basis, Debye-Ang):
   XX=            -26.0996   YY=             18.6888   ZZ=              7.4108
   XY=             -1.1961   XZ=             -0.6826   YZ=              1.7105
 Octapole moment (field-independent basis, Debye-Ang**2):
  XXX=           -661.2623  YYY=             94.6983  ZZZ=             85.2638  XYY=           -152.9490
  XXY=             29.4175  XXZ=             32.1612  XZZ=           -141.7082  YZZ=             19.2225
  YYZ=             27.4898  XYZ=              3.9889
 Hexadecapole moment (field-independent basis, Debye-Ang**3):
 XXXX=          -4197.5585 YYYY=           -705.8995 ZZZZ=           -401.9463 XXXY=            190.0604
 XXXZ=            205.3284 YYYX=            197.7052 YYYZ=           -177.2804 ZZZX=            180.3662
 ZZZY=           -149.5416 XXYY=           -692.1620 XXZZ=           -562.2534 YYZZ=           -176.2527
 XXYZ=            -55.4655 YYXZ=             59.3752 ZZXY=             39.5870
 N-N= 7.833013516284D+02 E-N=-8.710674996202D+03  KE= 3.005874655298D+03
 No NMR shielding tensors so no spin-rotation constants.
 Leave Link  601 at Thu May  2 14:18:04 2024, MaxMem=   134217728 cpu:               7.2 elap:               7.2
 (Enter /software/gaussian/g16-c01/sse4/g16/l9999.exe)
 Unable to Open any file for archive entry.
 1\1\GINC-BHX0008\SP\RwB97XD\6-311+G(d)\C6H5Br1N1O2(1+)\BWEIGHT\02-May-
 2024\0\\#P wB97XD/6-311+G* NoSymm #P Field=X+243\\TitleMe\\1,1\C,0,0.5
 193,1.233,-0.0319\C,0,1.9445,1.2692,-0.0367\C,0,2.6204,0.0928,-0.025\C
 ,0,-0.196,0.0301,0.001\H,0,-0.0207,2.1742,-0.0434\H,0,2.4828,2.2089,-0
 .0361\H,0,-1.2777,0.0399,0.0117\N,0,4.0921,0.0959,0.0366\O,0,4.6393,-1
 .0217,0.1446\O,0,4.6649,1.1984,-0.0233\C,0,0.4943,-1.1671,0.021\H,0,-0
 .0325,-2.1149,0.0545\C,0,1.9629,-1.2165,-0.0211\H,0,2.4436,-1.9631,0.6
 151\Br,0,2.173,-1.9491,-1.9062\\Version=ES64L-G16RevC.01\HF=-3010.5385
 283\RMSD=4.680e-09\Dipole=-5.9962848,1.000778,1.0772052\Quadrupole=-19
 .4044196,13.894681,5.5097387,-0.8892541,-0.5075083,1.2717247\PG=C01 [X
 (C6H5Br1N1O2)]\\@
 The archive entry for this job was punched.


 BETTER TO HUNT IN FIELDS, FOR HEALTH UNBOUGHT
 THAN FEE THE DOCTOR FOR A NAUSEOUS DRAUGHT.
 THE WISE, FOR CURE, ON EXERCISE DEPEND;
 GOD NEVER MADE HIS WORK FOR MAN TO MEND.
     -- JOHN DRYDEN (1631-1700)
 Job cpu time:       0 days  0 hours 20 minutes 28.4 seconds.
 Elapsed time:       0 days  0 hours 20 minutes 28.5 seconds.
 File lengths (MBytes):  RWF=     40 Int=      0 D2E=      0 Chk=     32 Scr=      1
 Normal termination of Gaussian 16 at Thu May  2 14:18:05 2024.
