 Entering Gaussian System, Link 0=g16
 Initial command:
 /software/gaussian/g16-c01/sse4/g16/l1.exe "/local_scratch/24665346/Gau-10552.inp" -scrdir="/local_scratch/24665346/"
 Entering Link 1 = /software/gaussian/g16-c01/sse4/g16/l1.exe PID=     10565.
  
 Copyright (c) 1988-2019, Gaussian, Inc.  All Rights Reserved.
  
 This is part of the Gaussian(R) 16 program.  It is based on
 the Gaussian(R) 09 system (copyright 2009, Gaussian, Inc.),
 the Gaussian(R) 03 system (copyright 2003, Gaussian, Inc.),
 the Gaussian(R) 98 system (copyright 1998, Gaussian, Inc.),
 the Gaussian(R) 94 system (copyright 1995, Gaussian, Inc.),
 the Gaussian 92(TM) system (copyright 1992, Gaussian, Inc.),
 the Gaussian 90(TM) system (copyright 1990, Gaussian, Inc.),
 the Gaussian 88(TM) system (copyright 1988, Gaussian, Inc.),
 the Gaussian 86(TM) system (copyright 1986, Carnegie Mellon
 University), and the Gaussian 82(TM) system (copyright 1983,
 Carnegie Mellon University). Gaussian is a federally registered
 trademark of Gaussian, Inc.
  
 This software contains proprietary and confidential information,
 including trade secrets, belonging to Gaussian, Inc.
  
 This software is provided under written license and may be
 used, copied, transmitted, or stored only in accord with that
 written license.
  
 The following legend is applicable only to US Government
 contracts under FAR:
  
                    RESTRICTED RIGHTS LEGEND
  
 Use, reproduction and disclosure by the US Government is
 subject to restrictions as set forth in subparagraphs (a)
 and (c) of the Commercial Computer Software - Restricted
 Rights clause in FAR 52.227-19.
  
 Gaussian, Inc.
 340 Quinnipiac St., Bldg. 40, Wallingford CT 06492
  
  
 ---------------------------------------------------------------
 Warning -- This program may not be used in any manner that
 competes with the business of Gaussian, Inc. or will provide
 assistance to any competitor of Gaussian, Inc.  The licensee
 of this program is prohibited from giving any competitor of
 Gaussian, Inc. access to this program.  By using this program,
 the user acknowledges that Gaussian, Inc. is engaged in the
 business of creating and licensing software in the field of
 computational chemistry and represents and warrants to the
 licensee that it is not a competitor of Gaussian, Inc. and that
 it will not use this program in any manner prohibited above.
 ---------------------------------------------------------------
  

 Cite this work as:
 Gaussian 16, Revision C.01,
 M. J. Frisch, G. W. Trucks, H. B. Schlegel, G. E. Scuseria, 
 M. A. Robb, J. R. Cheeseman, G. Scalmani, V. Barone, 
 G. A. Petersson, H. Nakatsuji, X. Li, M. Caricato, A. V. Marenich, 
 J. Bloino, B. G. Janesko, R. Gomperts, B. Mennucci, H. P. Hratchian, 
 J. V. Ortiz, A. F. Izmaylov, J. L. Sonnenberg, D. Williams-Young, 
 F. Ding, F. Lipparini, F. Egidi, J. Goings, B. Peng, A. Petrone, 
 T. Henderson, D. Ranasinghe, V. G. Zakrzewski, J. Gao, N. Rega, 
 G. Zheng, W. Liang, M. Hada, M. Ehara, K. Toyota, R. Fukuda, 
 J. Hasegawa, M. Ishida, T. Nakajima, Y. Honda, O. Kitao, H. Nakai, 
 T. Vreven, K. Throssell, J. A. Montgomery, Jr., J. E. Peralta, 
 F. Ogliaro, M. J. Bearpark, J. J. Heyd, E. N. Brothers, K. N. Kudin, 
 V. N. Staroverov, T. A. Keith, R. Kobayashi, J. Normand, 
 K. Raghavachari, A. P. Rendell, J. C. Burant, S. S. Iyengar, 
 J. Tomasi, M. Cossi, J. M. Millam, M. Klene, C. Adamo, R. Cammi, 
 J. W. Ochterski, R. L. Martin, K. Morokuma, O. Farkas, 
 J. B. Foresman, and D. J. Fox, Gaussian, Inc., Wallingford CT, 2019.
 
 ******************************************
 Gaussian 16:  ES64L-G16RevC.01  3-Jul-2019
                 2-May-2024 
 ******************************************
 %chk=geometry.chk
 %mem=1GB
 %nprocshared=12
 Will use up to   12 processors via shared memory.
 ----------------------------------------
 #P wB97XD/6-311+G* NoSymm #P Field=Y+223
 ----------------------------------------
 1/38=1,172=1/1;
 2/12=2,15=1,17=6,18=5,40=1/2;
 3/5=4,6=6,7=11,11=2,14=2,15=223,25=1,30=1,74=-58/1,2,3;
 4//1;
 5/5=2,38=5/2;
 6/7=2,8=2,9=2,10=2,28=1/1;
 99/5=1,9=1/99;
 Leave Link    1 at Thu May  2 13:58:21 2024, MaxMem=   134217728 cpu:               1.5 elap:               1.6
 (Enter /software/gaussian/g16-c01/sse4/g16/l101.exe)
 -------
 TitleMe
 -------
 Symbolic Z-matrix:
 Charge =  1 Multiplicity = 1
 C                     0.5193    1.233    -0.0319 
 C                     1.9445    1.2692   -0.0367 
 C                     2.6204    0.0928   -0.025 
 C                    -0.196     0.0301    0.001 
 H                    -0.0207    2.1742   -0.0434 
 H                     2.4828    2.2089   -0.0361 
 H                    -1.2777    0.0399    0.0117 
 N                     4.0921    0.0959    0.0366 
 O                     4.6393   -1.0217    0.1446 
 O                     4.6649    1.1984   -0.0233 
 C                     0.4943   -1.1671    0.021 
 H                    -0.0325   -2.1149    0.0545 
 C                     1.9629   -1.2165   -0.0211 
 H                     2.4436   -1.9631    0.6151 
 Br                    2.173    -1.9491   -1.9062 
 
 ITRead=  0  0  0  0  0  0  0  0  0  0  0  0  0  0  0
 MicOpt= -1 -1 -1 -1 -1 -1 -1 -1 -1 -1 -1 -1 -1 -1 -1
 NAtoms=     15 NQM=       15 NQMF=       0 NMMI=      0 NMMIF=      0
                NMic=       0 NMicF=      0.
                    Isotopes and Nuclear Properties:
 (Nuclear quadrupole moments (NQMom) in fm**2, nuclear magnetic moments (NMagM)
  in nuclear magnetons)

  Atom         1           2           3           4           5           6           7           8           9          10
 IAtWgt=          12          12          12          12           1           1           1          14          16          16
 AtmWgt=  12.0000000  12.0000000  12.0000000  12.0000000   1.0078250   1.0078250   1.0078250  14.0030740  15.9949146  15.9949146
 NucSpn=           0           0           0           0           1           1           1           2           0           0
 AtZEff=  -0.0000000  -0.0000000  -0.0000000  -0.0000000  -0.0000000  -0.0000000  -0.0000000  -0.0000000  -0.0000000  -0.0000000
 NQMom=    0.0000000   0.0000000   0.0000000   0.0000000   0.0000000   0.0000000   0.0000000   2.0440000   0.0000000   0.0000000
 NMagM=    0.0000000   0.0000000   0.0000000   0.0000000   2.7928460   2.7928460   2.7928460   0.4037610   0.0000000   0.0000000
 AtZNuc=   6.0000000   6.0000000   6.0000000   6.0000000   1.0000000   1.0000000   1.0000000   7.0000000   8.0000000   8.0000000

  Atom        11          12          13          14          15
 IAtWgt=          12           1          12           1          79
 AtmWgt=  12.0000000   1.0078250  12.0000000   1.0078250  78.9183361
 NucSpn=           0           1           0           1           3
 AtZEff=  -0.0000000  -0.0000000  -0.0000000  -0.0000000  -0.0000000
 NQMom=    0.0000000   0.0000000   0.0000000   0.0000000  31.3000000
 NMagM=    0.0000000   2.7928460   0.0000000   2.7928460   2.1063990
 AtZNuc=   6.0000000   1.0000000   6.0000000   1.0000000  35.0000000
 Leave Link  101 at Thu May  2 13:58:23 2024, MaxMem=   134217728 cpu:               1.5 elap:               1.6
 (Enter /software/gaussian/g16-c01/sse4/g16/l202.exe)
                          Input orientation:                          
 ---------------------------------------------------------------------
 Center     Atomic      Atomic             Coordinates (Angstroms)
 Number     Number       Type             X           Y           Z
 ---------------------------------------------------------------------
      1          6           0        0.519300    1.233000   -0.031900
      2          6           0        1.944500    1.269200   -0.036700
      3          6           0        2.620400    0.092800   -0.025000
      4          6           0       -0.196000    0.030100    0.001000
      5          1           0       -0.020700    2.174200   -0.043400
      6          1           0        2.482800    2.208900   -0.036100
      7          1           0       -1.277700    0.039900    0.011700
      8          7           0        4.092100    0.095900    0.036600
      9          8           0        4.639300   -1.021700    0.144600
     10          8           0        4.664900    1.198400   -0.023300
     11          6           0        0.494300   -1.167100    0.021000
     12          1           0       -0.032500   -2.114900    0.054500
     13          6           0        1.962900   -1.216500   -0.021100
     14          1           0        2.443600   -1.963100    0.615100
     15         35           0        2.173000   -1.949100   -1.906200
 ---------------------------------------------------------------------
                    Distance matrix (angstroms):
                    1          2          3          4          5
     1  C    0.000000
     2  C    1.425668   0.000000
     3  C    2.390549   1.356796   0.000000
     4  C    1.399895   2.473566   2.817218   0.000000
     5  H    1.085168   2.163581   3.362733   2.151712   0.000000
     6  H    2.192654   1.082960   2.120598   3.453189   2.503751
     7  H    2.157452   3.449071   3.898632   1.081797   2.477564
     8  N    3.750012   2.448304   1.472992   4.288753   4.608780
     9  O    4.699917   3.541615   2.312322   4.950458   5.653735
    10  O    4.145753   2.721354   2.324292   4.999386   4.786171
    11  C    2.400813   2.835836   2.471794   1.382101   3.381369
    12  H    3.394169   3.920329   3.452266   2.151887   4.290233
    13  C    2.843264   2.485817   1.465124   2.493060   3.928360
    14  H    3.786370   3.334922   2.160489   3.364142   4.860416
    15  Br   4.046416   3.728900   2.812194   3.628609   5.028314
                    6          7          8          9         10
     6  H    0.000000
     7  H    4.341452   0.000000
     8  N    2.657047   5.370150   0.000000
     9  O    3.888434   6.012948   1.249048   0.000000
    10  O    2.404752   6.054572   1.243863   2.226587   0.000000
    11  C    3.918516   2.144043   3.813080   4.149391   4.794941
    12  H    5.003018   2.489080   4.679774   4.798846   5.748876
    13  C    3.464662   3.475788   2.501842   2.688591   3.623886
    14  H    4.222698   4.268978   2.700314   2.434893   3.916224
    15  Br   4.569706   4.420610   3.411663   3.338935   4.434144
                   11         12         13         14         15
    11  C    0.000000
    12  H    1.084880   0.000000
    13  C    1.470034   2.189625   0.000000
    14  H    2.187771   2.543302   1.092353   0.000000
    15  Br   2.672762   2.955683   2.033334   2.535818   0.000000
 Symmetry turned off by external request.
 Stoichiometry    C6H5BrNO2(1+)
 Framework group  C1[X(C6H5BrNO2)]
 Deg. of freedom    39
 Full point group                 C1      NOp   1
 Rotational constants (GHZ):           1.1632986           0.9594224           0.5957624
 Leave Link  202 at Thu May  2 13:58:24 2024, MaxMem=   134217728 cpu:               1.3 elap:               1.3
 (Enter /software/gaussian/g16-c01/sse4/g16/l301.exe)
 Standard basis: 6-311+G(d) (5D, 7F)
 Ernie: Thresh=  0.10000D-02 Tol=  0.10000D-05 Strict=F.
 The following finite field(s) will be applied:
 An electric field of              0.0000  0.0223  0.0000
   261 basis functions,   443 primitive gaussians,   273 cartesian basis functions
    49 alpha electrons       49 beta electrons
       nuclear repulsion energy       772.8945969580 Hartrees.
 IExCor= 4639 DFT=T Ex+Corr=wB97XD ExCW=0 ScaHFX=  1.000000
 ScaDFX=  1.000000  1.000000  1.000000  1.000000 ScalE2=  1.000000  1.000000
 IRadAn=      5 IRanWt=     -1 IRanGd=            0 ICorTp=0 IEmpDi=121
 HFx  wShort=  0.000000 wLong=  0.200000 cFull=  0.222036 cShort=  0.000000 cLong=  0.777964
 DFx  wShort=  0.000000 wLong=  0.200000 cFull=  0.000000 cShort=  0.000000 cLong=  1.000000
 NAtoms=   15 NActive=   15 NUniq=   15 SFac= 1.00D+00 NAtFMM=   60 NAOKFM=F Big=F
 Integral buffers will be    131072 words long.
 Raffenetti 2 integral format.
 Two-electron integral symmetry is turned off.
 R6Disp:  Grimme-D2 Dispersion energy=       -0.0080346408 Hartrees.
 Nuclear repulsion after empirical dispersion term =      772.8865623173 Hartrees.
 Leave Link  301 at Thu May  2 13:58:25 2024, MaxMem=   134217728 cpu:               1.1 elap:               1.0
 (Enter /software/gaussian/g16-c01/sse4/g16/l302.exe)
 NPDir=0 NMtPBC=     1 NCelOv=     1 NCel=       1 NClECP=     1 NCelD=      1
         NCelK=      1 NCelE2=     1 NClLst=     1 CellRange=     0.0.
 One-electron integrals computed using PRISM.
 NBasis=   261 RedAO= T EigKep=  2.52D-06  NBF=   261
 NBsUse=   261 1.00D-06 EigRej= -1.00D+00 NBFU=   261
 Precomputing XC quadrature grid using
 IXCGrd= 4 IRadAn=           5 IRanWt=          -1 IRanGd=           0 AccXCQ= 0.00D+00.
 Generated NRdTot=       0 NPtTot=           0 NUsed=           0 NTot=          32
 NSgBfM=   273   273   273   273   273 MxSgAt=    15 MxSgA2=    15.
 Leave Link  302 at Thu May  2 13:58:46 2024, MaxMem=   134217728 cpu:              21.6 elap:              21.6
 (Enter /software/gaussian/g16-c01/sse4/g16/l303.exe)
 DipDrv:  MaxL=1.
 The nuclear repulsion energy is now       770.1752341452 hartrees.
 Leave Link  303 at Thu May  2 13:58:50 2024, MaxMem=   134217728 cpu:               3.2 elap:               3.2
 (Enter /software/gaussian/g16-c01/sse4/g16/l401.exe)
 ExpMin= 3.50D-02 ExpMax= 4.40D+05 ExpMxC= 1.51D+04 IAcc=3 IRadAn=         5 AccDes= 0.00D+00
 Harris functional with IExCor= 4639 and IRadAn=       5 diagonalized for initial guess.
 HarFok:  IExCor= 4639 AccDes= 0.00D+00 IRadAn=         5 IDoV= 1 UseB2=F ITyADJ=14
 ICtDFT=  3500011 ScaDFX=  1.000000  1.000000  1.000000  1.000000
 FoFCou: FMM=F IPFlag=           0 FMFlag=      100000 FMFlg1=           0
         NFxFlg=           0 DoJE=T BraDBF=F KetDBF=T FulRan=T
         wScrn=  0.000000 ICntrl=       500 IOpCl=  0 I1Cent=   200000004 NGrid=           0
         NMat0=    1 NMatS0=      1 NMatT0=    0 NMatD0=    1 NMtDS0=    0 NMtDT0=    0
 Symmetry not used in FoFCou.
 Harris En= -2970.72121536182    
 JPrj=0 DoOrth=F DoCkMO=F.
 Leave Link  401 at Thu May  2 13:59:21 2024, MaxMem=   134217728 cpu:              31.5 elap:              31.6
 (Enter /software/gaussian/g16-c01/sse4/g16/l502.exe)
 Two-electron integral symmetry not used.
 Closed shell SCF:
 Using DIIS extrapolation, IDIIS=  1040.
 NGot=   134217728 LenX=   134063053 LenY=   133988083
 Requested convergence on RMS density matrix=1.00D-08 within 128 cycles.
 Requested convergence on MAX density matrix=1.00D-06.
 Requested convergence on             energy=1.00D-06.
 No special actions if energy rises.
 Fock matrices will be formed incrementally for  20 cycles.

 Cycle   1  Pass 1  IDiag  1:
 FoFJK:  IHMeth= 1 ICntrl=       0 DoSepK=T KAlg= 0 I1Cent=           0 FoldK=F
 IRaf=         1 NMat=       1 IRICut=       1 DoRegI=T DoRafI=F ISym2E= 0 IDoP0=0 IntGTp=1.
 FoFCou: FMM=F IPFlag=           0 FMFlag=      100000 FMFlg1=           0
         NFxFlg=           0 DoJE=T BraDBF=F KetDBF=F FulRan=T
         wScrn=  0.000000 ICntrl=       500 IOpCl=  0 I1Cent=           0 NGrid=           0
         NMat0=    1 NMatS0=      1 NMatT0=    0 NMatD0=    1 NMtDS0=    0 NMtDT0=    0
 Symmetry not used in FoFCou.
 E= -3007.57795918008    
 DIIS: error= 2.91D-01 at cycle   1 NSaved=   1.
 NSaved= 1 IEnMin= 1 EnMin= -3007.57795918008     IErMin= 1 ErrMin= 2.91D-01
 ErrMax= 2.91D-01  0.00D+00 EMaxC= 1.00D-01 BMatC= 1.32D+01 BMatP= 1.32D+01
 IDIUse=3 WtCom= 0.00D+00 WtEn= 1.00D+00
 Coeff-Com:  0.100D+01
 Coeff-En:   0.100D+01
 Coeff:      0.100D+01
 Gap=    -0.475 Goal=   None    Shift=    0.000
 GapD=   -0.475 DampG=0.250 DampE=0.250 DampFc=0.2500 IDamp=-1.
 Damping current iteration by 2.50D-01
 RMSDP=9.47D+00 MaxDP=1.01D+03              OVMax= 7.47D-01

 Cycle   2  Pass 1  IDiag  1:
 RMSU=  3.90D-02    CP:  7.51D-01
 E= -3008.33976000378     Delta-E=       -0.761800823700 Rises=F Damp=T
 DIIS: error= 2.19D-01 at cycle   2 NSaved=   2.
 NSaved= 2 IEnMin= 2 EnMin= -3008.33976000378     IErMin= 2 ErrMin= 2.19D-01
 ErrMax= 2.19D-01  0.00D+00 EMaxC= 1.00D-01 BMatC= 5.46D+00 BMatP= 1.32D+01
 IDIUse=3 WtCom= 0.00D+00 WtEn= 1.00D+00
 Coeff-Com: -0.104D+01 0.204D+01
 Coeff-En:   0.207D+00 0.793D+00
 Coeff:      0.207D+00 0.793D+00
 Gap=    -0.024 Goal=   None    Shift=    0.000
 RMSDP=7.12D+00 MaxDP=7.64D+02 DE=-7.62D-01 OVMax= 7.06D-01

 Cycle   3  Pass 1  IDiag  1:
 RMSU=  2.67D-02    CP:  2.69D-03  2.07D+00
 E= -3009.50644450027     Delta-E=       -1.166684496486 Rises=F Damp=F
 DIIS: error= 1.10D-01 at cycle   3 NSaved=   3.
 NSaved= 3 IEnMin= 3 EnMin= -3009.50644450027     IErMin= 3 ErrMin= 1.10D-01
 ErrMax= 1.10D-01  0.00D+00 EMaxC= 1.00D-01 BMatC= 2.11D+00 BMatP= 5.46D+00
 IDIUse=3 WtCom= 0.00D+00 WtEn= 1.00D+00
 EnCoef did   100 forward-backward iterations
 Coeff-Com:  0.190D+00 0.738D-01 0.736D+00
 Coeff-En:   0.263D+00 0.302D-02 0.734D+00
 Coeff:      0.263D+00 0.302D-02 0.734D+00
 Gap=     0.501 Goal=   None    Shift=    0.000
 RMSDP=4.43D-02 MaxDP=4.61D+00 DE=-1.17D+00 OVMax= 4.01D-01

 Cycle   4  Pass 1  IDiag  1:
 RMSU=  2.81D-02    CP:  3.66D-03  1.25D+00  1.34D+00
 E= -3009.63387166340     Delta-E=       -0.127427163127 Rises=F Damp=F
 DIIS: error= 1.15D-01 at cycle   4 NSaved=   4.
 NSaved= 4 IEnMin= 4 EnMin= -3009.63387166340     IErMin= 3 ErrMin= 1.10D-01
 ErrMax= 1.15D-01  0.00D+00 EMaxC= 1.00D-01 BMatC= 1.30D+00 BMatP= 2.11D+00
 IDIUse=3 WtCom= 0.00D+00 WtEn= 1.00D+00
 Coeff-Com:  0.194D+00-0.149D+00 0.490D+00 0.465D+00
 Coeff-En:   0.000D+00 0.000D+00 0.473D+00 0.527D+00
 Coeff:      0.000D+00 0.000D+00 0.473D+00 0.527D+00
 Gap=     0.201 Goal=   None    Shift=    0.000
 RMSDP=2.17D-02 MaxDP=1.32D+00 DE=-1.27D-01 OVMax= 4.12D-01

 Cycle   5  Pass 1  IDiag  1:
 RMSU=  1.72D-02    CP:  4.09D-03  1.27D+00  1.30D+00  5.53D-01
 E= -3010.46009714642     Delta-E=       -0.826225483020 Rises=F Damp=F
 DIIS: error= 2.64D-02 at cycle   5 NSaved=   5.
 NSaved= 5 IEnMin= 5 EnMin= -3010.46009714642     IErMin= 5 ErrMin= 2.64D-02
 ErrMax= 2.64D-02  0.00D+00 EMaxC= 1.00D-01 BMatC= 2.20D-01 BMatP= 1.30D+00
 IDIUse=3 WtCom= 7.36D-01 WtEn= 2.64D-01
 Coeff-Com: -0.532D-01 0.721D-01 0.162D+00 0.255D+00 0.564D+00
 Coeff-En:   0.000D+00 0.000D+00 0.000D+00 0.666D-01 0.933D+00
 Coeff:     -0.391D-01 0.530D-01 0.119D+00 0.205D+00 0.662D+00
 Gap=     0.249 Goal=   None    Shift=    0.000
 RMSDP=8.95D-03 MaxDP=6.38D-01 DE=-8.26D-01 OVMax= 1.17D-01

 Cycle   6  Pass 1  IDiag  1:
 RMSU=  5.74D-03    CP:  4.06D-03  1.18D+00  1.19D+00  5.18D-01  7.19D-01
 E= -3010.55091508629     Delta-E=       -0.090817939871 Rises=F Damp=F
 DIIS: error= 1.61D-02 at cycle   6 NSaved=   6.
 NSaved= 6 IEnMin= 6 EnMin= -3010.55091508629     IErMin= 6 ErrMin= 1.61D-02
 ErrMax= 1.61D-02  0.00D+00 EMaxC= 1.00D-01 BMatC= 3.37D-02 BMatP= 2.20D-01
 IDIUse=3 WtCom= 8.39D-01 WtEn= 1.61D-01
 Coeff-Com: -0.458D-01 0.633D-01 0.149D-01 0.133D-01 0.308D+00 0.646D+00
 Coeff-En:   0.000D+00 0.000D+00 0.000D+00 0.000D+00 0.880D-01 0.912D+00
 Coeff:     -0.384D-01 0.531D-01 0.125D-01 0.112D-01 0.273D+00 0.689D+00
 Gap=     0.235 Goal=   None    Shift=    0.000
 RMSDP=2.92D-03 MaxDP=3.02D-01 DE=-9.08D-02 OVMax= 5.06D-02

 Cycle   7  Pass 1  IDiag  1:
 RMSU=  1.66D-03    CP:  3.94D-03  1.18D+00  1.17D+00  4.50D-01  7.28D-01
                    CP:  9.58D-01
 E= -3010.56680150966     Delta-E=       -0.015886423369 Rises=F Damp=F
 DIIS: error= 3.54D-03 at cycle   7 NSaved=   7.
 NSaved= 7 IEnMin= 7 EnMin= -3010.56680150966     IErMin= 7 ErrMin= 3.54D-03
 ErrMax= 3.54D-03  0.00D+00 EMaxC= 1.00D-01 BMatC= 2.41D-03 BMatP= 3.37D-02
 IDIUse=3 WtCom= 9.65D-01 WtEn= 3.54D-02
 Coeff-Com: -0.236D-01 0.326D-01-0.122D-01-0.872D-02 0.582D-01 0.284D+00
 Coeff-Com:  0.669D+00
 Coeff-En:   0.000D+00 0.000D+00 0.000D+00 0.000D+00 0.000D+00 0.301D-01
 Coeff-En:   0.970D+00
 Coeff:     -0.227D-01 0.314D-01-0.118D-01-0.841D-02 0.562D-01 0.275D+00
 Coeff:      0.680D+00
 Gap=     0.229 Goal=   None    Shift=    0.000
 RMSDP=1.03D-03 MaxDP=9.35D-02 DE=-1.59D-02 OVMax= 9.39D-03

 Cycle   8  Pass 1  IDiag  1:
 RMSU=  5.28D-04    CP:  4.01D-03  1.19D+00  1.17D+00  4.54D-01  7.32D-01
                    CP:  1.03D+00  1.01D+00
 E= -3010.56835267761     Delta-E=       -0.001551167950 Rises=F Damp=F
 DIIS: error= 1.16D-03 at cycle   8 NSaved=   8.
 NSaved= 8 IEnMin= 8 EnMin= -3010.56835267761     IErMin= 8 ErrMin= 1.16D-03
 ErrMax= 1.16D-03  0.00D+00 EMaxC= 1.00D-01 BMatC= 2.46D-04 BMatP= 2.41D-03
 IDIUse=3 WtCom= 9.88D-01 WtEn= 1.16D-02
 Coeff-Com: -0.784D-02 0.106D-01-0.594D-02-0.133D-02-0.181D-01 0.136D-01
 Coeff-Com:  0.315D+00 0.694D+00
 Coeff-En:   0.000D+00 0.000D+00 0.000D+00 0.000D+00 0.000D+00 0.000D+00
 Coeff-En:   0.000D+00 0.100D+01
 Coeff:     -0.775D-02 0.104D-01-0.587D-02-0.131D-02-0.178D-01 0.135D-01
 Coeff:      0.311D+00 0.698D+00
 Gap=     0.231 Goal=   None    Shift=    0.000
 RMSDP=7.42D-04 MaxDP=6.37D-02 DE=-1.55D-03 OVMax= 4.80D-03

 Cycle   9  Pass 1  IDiag  1:
 RMSU=  2.82D-04    CP:  3.97D-03  1.19D+00  1.16D+00  4.52D-01  7.07D-01
                    CP:  1.03D+00  1.21D+00  1.19D+00
 E= -3010.56859342730     Delta-E=       -0.000240749692 Rises=F Damp=F
 DIIS: error= 3.30D-04 at cycle   9 NSaved=   9.
 NSaved= 9 IEnMin= 9 EnMin= -3010.56859342730     IErMin= 9 ErrMin= 3.30D-04
 ErrMax= 3.30D-04  0.00D+00 EMaxC= 1.00D-01 BMatC= 2.78D-05 BMatP= 2.46D-04
 IDIUse=3 WtCom= 9.97D-01 WtEn= 3.30D-03
 Coeff-Com: -0.869D-03 0.117D-02-0.747D-03 0.123D-02-0.165D-01-0.412D-01
 Coeff-Com:  0.788D-02 0.285D+00 0.764D+00
 Coeff-En:   0.000D+00 0.000D+00 0.000D+00 0.000D+00 0.000D+00 0.000D+00
 Coeff-En:   0.000D+00 0.000D+00 0.100D+01
 Coeff:     -0.866D-03 0.117D-02-0.745D-03 0.122D-02-0.164D-01-0.410D-01
 Coeff:      0.786D-02 0.284D+00 0.765D+00
 Gap=     0.230 Goal=   None    Shift=    0.000
 RMSDP=2.30D-04 MaxDP=1.27D-02 DE=-2.41D-04 OVMax= 2.98D-03

 Cycle  10  Pass 1  IDiag  1:
 RMSU=  1.12D-04    CP:  3.97D-03  1.19D+00  1.16D+00  4.52D-01  7.01D-01
                    CP:  1.04D+00  1.27D+00  1.36D+00  1.05D+00
 E= -3010.56863284695     Delta-E=       -0.000039419650 Rises=F Damp=F
 DIIS: error= 7.16D-05 at cycle  10 NSaved=  10.
 NSaved=10 IEnMin=10 EnMin= -3010.56863284695     IErMin=10 ErrMin= 7.16D-05
 ErrMax= 7.16D-05  0.00D+00 EMaxC= 1.00D-01 BMatC= 2.07D-06 BMatP= 2.78D-05
 IDIUse=1 WtCom= 1.00D+00 WtEn= 0.00D+00
 Coeff-Com:  0.290D-04-0.570D-04-0.520D-04 0.897D-04-0.423D-03-0.227D-02
 Coeff-Com: -0.228D-01-0.383D-02 0.153D+00 0.876D+00
 Coeff:      0.290D-04-0.570D-04-0.520D-04 0.897D-04-0.423D-03-0.227D-02
 Coeff:     -0.228D-01-0.383D-02 0.153D+00 0.876D+00
 Gap=     0.230 Goal=   None    Shift=    0.000
 RMSDP=7.55D-05 MaxDP=3.22D-03 DE=-3.94D-05 OVMax= 2.43D-03

 Cycle  11  Pass 1  IDiag  1:
 RMSU=  5.08D-05    CP:  3.97D-03  1.19D+00  1.16D+00  4.51D-01  7.02D-01
                    CP:  1.04D+00  1.29D+00  1.40D+00  1.13D+00  1.04D+00
 E= -3010.56864117717     Delta-E=       -0.000008330224 Rises=F Damp=F
 DIIS: error= 5.01D-05 at cycle  11 NSaved=  11.
 NSaved=11 IEnMin=11 EnMin= -3010.56864117717     IErMin=11 ErrMin= 5.01D-05
 ErrMax= 5.01D-05  0.00D+00 EMaxC= 1.00D-01 BMatC= 6.33D-07 BMatP= 2.07D-06
 IDIUse=1 WtCom= 1.00D+00 WtEn= 0.00D+00
 Coeff-Com:  0.449D-04-0.852D-04-0.207D-03-0.138D-03 0.235D-02 0.762D-02
 Coeff-Com:  0.561D-02-0.342D-01-0.121D+00 0.104D+00 0.104D+01
 Coeff:      0.449D-04-0.852D-04-0.207D-03-0.138D-03 0.235D-02 0.762D-02
 Coeff:      0.561D-02-0.342D-01-0.121D+00 0.104D+00 0.104D+01
 Gap=     0.230 Goal=   None    Shift=    0.000
 RMSDP=5.45D-05 MaxDP=4.10D-03 DE=-8.33D-06 OVMax= 1.79D-03

 Cycle  12  Pass 1  IDiag  1:
 RMSU=  1.86D-05    CP:  3.97D-03  1.19D+00  1.16D+00  4.51D-01  7.03D-01
                    CP:  1.04D+00  1.30D+00  1.41D+00  1.11D+00  1.21D+00
                    CP:  1.64D+00
 E= -3010.56864485453     Delta-E=       -0.000003677360 Rises=F Damp=F
 DIIS: error= 2.27D-05 at cycle  12 NSaved=  12.
 NSaved=12 IEnMin=12 EnMin= -3010.56864485453     IErMin=12 ErrMin= 2.27D-05
 ErrMax= 2.27D-05  0.00D+00 EMaxC= 1.00D-01 BMatC= 1.77D-07 BMatP= 6.33D-07
 IDIUse=1 WtCom= 1.00D+00 WtEn= 0.00D+00
 Coeff-Com:  0.875D-04-0.121D-03-0.726D-04-0.564D-05 0.470D-03 0.280D-02
 Coeff-Com:  0.109D-01-0.880D-02-0.887D-01-0.230D+00 0.327D+00 0.986D+00
 Coeff:      0.875D-04-0.121D-03-0.726D-04-0.564D-05 0.470D-03 0.280D-02
 Coeff:      0.109D-01-0.880D-02-0.887D-01-0.230D+00 0.327D+00 0.986D+00
 Gap=     0.230 Goal=   None    Shift=    0.000
 RMSDP=3.93D-05 MaxDP=1.64D-03 DE=-3.68D-06 OVMax= 1.46D-03

 Cycle  13  Pass 1  IDiag  1:
 RMSU=  1.14D-05    CP:  3.97D-03  1.19D+00  1.16D+00  4.51D-01  7.04D-01
                    CP:  1.04D+00  1.31D+00  1.43D+00  1.11D+00  1.33D+00
                    CP:  2.02D+00  1.45D+00
 E= -3010.56864631727     Delta-E=       -0.000001462737 Rises=F Damp=F
 DIIS: error= 1.13D-05 at cycle  13 NSaved=  13.
 NSaved=13 IEnMin=13 EnMin= -3010.56864631727     IErMin=13 ErrMin= 1.13D-05
 ErrMax= 1.13D-05  0.00D+00 EMaxC= 1.00D-01 BMatC= 3.43D-08 BMatP= 1.77D-07
 IDIUse=1 WtCom= 1.00D+00 WtEn= 0.00D+00
 Coeff-Com: -0.373D-05 0.108D-04 0.326D-04 0.764D-05-0.428D-03-0.106D-02
 Coeff-Com:  0.797D-03 0.517D-02 0.112D-01-0.733D-01-0.202D+00 0.245D+00
 Coeff-Com:  0.101D+01
 Coeff:     -0.373D-05 0.108D-04 0.326D-04 0.764D-05-0.428D-03-0.106D-02
 Coeff:      0.797D-03 0.517D-02 0.112D-01-0.733D-01-0.202D+00 0.245D+00
 Coeff:      0.101D+01
 Gap=     0.230 Goal=   None    Shift=    0.000
 RMSDP=2.10D-05 MaxDP=2.34D-03 DE=-1.46D-06 OVMax= 7.95D-04

 Cycle  14  Pass 1  IDiag  1:
 RMSU=  5.20D-06    CP:  3.97D-03  1.19D+00  1.16D+00  4.51D-01  7.04D-01
                    CP:  1.04D+00  1.31D+00  1.43D+00  1.10D+00  1.38D+00
                    CP:  2.20D+00  1.89D+00  1.31D+00
 E= -3010.56864665051     Delta-E=       -0.000000333245 Rises=F Damp=F
 DIIS: error= 3.66D-06 at cycle  14 NSaved=  14.
 NSaved=14 IEnMin=14 EnMin= -3010.56864665051     IErMin=14 ErrMin= 3.66D-06
 ErrMax= 3.66D-06  0.00D+00 EMaxC= 1.00D-01 BMatC= 8.14D-09 BMatP= 3.43D-08
 IDIUse=1 WtCom= 1.00D+00 WtEn= 0.00D+00
 Coeff-Com: -0.115D-04 0.188D-04 0.441D-04 0.648D-05-0.178D-03-0.974D-03
 Coeff-Com: -0.227D-02 0.247D-02 0.166D-01 0.174D-01-0.102D+00-0.921D-01
 Coeff-Com:  0.242D+00 0.919D+00
 Coeff:     -0.115D-04 0.188D-04 0.441D-04 0.648D-05-0.178D-03-0.974D-03
 Coeff:     -0.227D-02 0.247D-02 0.166D-01 0.174D-01-0.102D+00-0.921D-01
 Coeff:      0.242D+00 0.919D+00
 Gap=     0.230 Goal=   None    Shift=    0.000
 RMSDP=8.04D-06 MaxDP=6.52D-04 DE=-3.33D-07 OVMax= 2.83D-04

 Cycle  15  Pass 1  IDiag  1:
 RMSU=  1.67D-06    CP:  3.97D-03  1.19D+00  1.16D+00  4.51D-01  7.04D-01
                    CP:  1.04D+00  1.31D+00  1.44D+00  1.10D+00  1.39D+00
                    CP:  2.22D+00  2.01D+00  1.55D+00  1.39D+00
 E= -3010.56864669873     Delta-E=       -0.000000048217 Rises=F Damp=F
 DIIS: error= 2.62D-06 at cycle  15 NSaved=  15.
 NSaved=15 IEnMin=15 EnMin= -3010.56864669873     IErMin=15 ErrMin= 2.62D-06
 ErrMax= 2.62D-06  0.00D+00 EMaxC= 1.00D-01 BMatC= 2.83D-09 BMatP= 8.14D-09
 IDIUse=1 WtCom= 1.00D+00 WtEn= 0.00D+00
 Coeff-Com: -0.518D-05 0.730D-05 0.185D-04 0.450D-05 0.622D-04-0.247D-03
 Coeff-Com: -0.142D-02-0.580D-03 0.195D-02 0.236D-01 0.287D-01-0.945D-01
 Coeff-Com: -0.214D+00 0.315D+00 0.942D+00
 Coeff:     -0.518D-05 0.730D-05 0.185D-04 0.450D-05 0.622D-04-0.247D-03
 Coeff:     -0.142D-02-0.580D-03 0.195D-02 0.236D-01 0.287D-01-0.945D-01
 Coeff:     -0.214D+00 0.315D+00 0.942D+00
 Gap=     0.230 Goal=   None    Shift=    0.000
 RMSDP=5.43D-06 MaxDP=4.92D-04 DE=-4.82D-08 OVMax= 1.35D-04

 Cycle  16  Pass 1  IDiag  1:
 RMSU=  6.58D-07    CP:  3.97D-03  1.19D+00  1.16D+00  4.51D-01  7.04D-01
                    CP:  1.04D+00  1.31D+00  1.44D+00  1.10D+00  1.41D+00
                    CP:  2.22D+00  2.07D+00  1.66D+00  1.64D+00  1.46D+00
 E= -3010.56864670918     Delta-E=       -0.000000010451 Rises=F Damp=F
 DIIS: error= 7.54D-07 at cycle  16 NSaved=  16.
 NSaved=16 IEnMin=16 EnMin= -3010.56864670918     IErMin=16 ErrMin= 7.54D-07
 ErrMax= 7.54D-07  0.00D+00 EMaxC= 1.00D-01 BMatC= 2.28D-10 BMatP= 2.83D-09
 IDIUse=1 WtCom= 1.00D+00 WtEn= 0.00D+00
 Coeff-Com:  0.524D-06-0.748D-06 0.232D-05 0.102D-05 0.261D-04 0.702D-04
 Coeff-Com:  0.162D-03-0.328D-03-0.179D-02-0.177D-02 0.176D-01 0.236D-02
 Coeff-Com: -0.388D-01-0.111D+00 0.766D-01 0.106D+01
 Coeff:      0.524D-06-0.748D-06 0.232D-05 0.102D-05 0.261D-04 0.702D-04
 Coeff:      0.162D-03-0.328D-03-0.179D-02-0.177D-02 0.176D-01 0.236D-02
 Coeff:     -0.388D-01-0.111D+00 0.766D-01 0.106D+01
 Gap=     0.230 Goal=   None    Shift=    0.000
 RMSDP=1.65D-06 MaxDP=1.51D-04 DE=-1.05D-08 OVMax= 3.01D-05

 Cycle  17  Pass 1  IDiag  1:
 RMSU=  3.56D-07    CP:  3.97D-03  1.19D+00  1.16D+00  4.51D-01  7.04D-01
                    CP:  1.04D+00  1.31D+00  1.44D+00  1.10D+00  1.41D+00
                    CP:  2.22D+00  2.07D+00  1.68D+00  1.70D+00  1.64D+00
                    CP:  1.20D+00
 E= -3010.56864671006     Delta-E=       -0.000000000877 Rises=F Damp=F
 DIIS: error= 2.68D-07 at cycle  17 NSaved=  17.
 NSaved=17 IEnMin=17 EnMin= -3010.56864671006     IErMin=17 ErrMin= 2.68D-07
 ErrMax= 2.68D-07  0.00D+00 EMaxC= 1.00D-01 BMatC= 1.76D-11 BMatP= 2.28D-10
 IDIUse=1 WtCom= 1.00D+00 WtEn= 0.00D+00
 Coeff-Com:  0.544D-06-0.787D-06-0.130D-05-0.733D-07-0.708D-06 0.350D-04
 Coeff-Com:  0.155D-03 0.795D-04-0.351D-03-0.218D-02-0.107D-02 0.564D-02
 Coeff-Com:  0.211D-01-0.413D-01-0.776D-01 0.685D-01 0.103D+01
 Coeff:      0.544D-06-0.787D-06-0.130D-05-0.733D-07-0.708D-06 0.350D-04
 Coeff:      0.155D-03 0.795D-04-0.351D-03-0.218D-02-0.107D-02 0.564D-02
 Coeff:      0.211D-01-0.413D-01-0.776D-01 0.685D-01 0.103D+01
 Gap=     0.230 Goal=   None    Shift=    0.000
 RMSDP=3.65D-07 MaxDP=2.99D-05 DE=-8.77D-10 OVMax= 6.97D-06

 Cycle  18  Pass 1  IDiag  1:
 RMSU=  9.88D-08    CP:  3.97D-03  1.19D+00  1.16D+00  4.51D-01  7.04D-01
                    CP:  1.04D+00  1.31D+00  1.44D+00  1.10D+00  1.41D+00
                    CP:  2.22D+00  2.06D+00  1.69D+00  1.70D+00  1.69D+00
                    CP:  1.26D+00  1.25D+00
 E= -3010.56864671014     Delta-E=       -0.000000000076 Rises=F Damp=F
 DIIS: error= 1.28D-07 at cycle  18 NSaved=  18.
 NSaved=18 IEnMin=18 EnMin= -3010.56864671014     IErMin=18 ErrMin= 1.28D-07
 ErrMax= 1.28D-07  0.00D+00 EMaxC= 1.00D-01 BMatC= 4.07D-12 BMatP= 1.76D-11
 IDIUse=1 WtCom= 1.00D+00 WtEn= 0.00D+00
 Coeff-Com:  0.120D-06-0.173D-06-0.833D-06-0.472D-06-0.274D-05 0.358D-05
 Coeff-Com:  0.618D-05 0.768D-04 0.138D-03 0.105D-04-0.219D-02-0.494D-03
 Coeff-Com:  0.954D-02 0.798D-02-0.167D-01-0.140D+00 0.132D+00 0.101D+01
 Coeff:      0.120D-06-0.173D-06-0.833D-06-0.472D-06-0.274D-05 0.358D-05
 Coeff:      0.618D-05 0.768D-04 0.138D-03 0.105D-04-0.219D-02-0.494D-03
 Coeff:      0.954D-02 0.798D-02-0.167D-01-0.140D+00 0.132D+00 0.101D+01
 Gap=     0.230 Goal=   None    Shift=    0.000
 RMSDP=1.81D-07 MaxDP=2.15D-05 DE=-7.64D-11 OVMax= 2.38D-06

 Cycle  19  Pass 1  IDiag  1:
 RMSU=  4.00D-08    CP:  3.97D-03  1.19D+00  1.16D+00  4.51D-01  7.04D-01
                    CP:  1.04D+00  1.31D+00  1.44D+00  1.10D+00  1.41D+00
                    CP:  2.22D+00  2.06D+00  1.69D+00  1.70D+00  1.68D+00
                    CP:  1.26D+00  1.38D+00  1.36D+00
 E= -3010.56864671019     Delta-E=       -0.000000000051 Rises=F Damp=F
 DIIS: error= 5.01D-08 at cycle  19 NSaved=  19.
 NSaved=19 IEnMin=19 EnMin= -3010.56864671019     IErMin=19 ErrMin= 5.01D-08
 ErrMax= 5.01D-08  0.00D+00 EMaxC= 1.00D-01 BMatC= 6.93D-13 BMatP= 4.07D-12
 IDIUse=1 WtCom= 1.00D+00 WtEn= 0.00D+00
 Coeff-Com:  0.395D-07-0.513D-07-0.145D-06-0.140D-06-0.832D-06-0.368D-05
 Coeff-Com: -0.214D-04 0.127D-04 0.583D-04 0.306D-03-0.205D-03-0.116D-02
 Coeff-Com: -0.619D-03 0.697D-02 0.800D-02-0.411D-01-0.120D+00 0.229D+00
 Coeff-Com:  0.919D+00
 Coeff:      0.395D-07-0.513D-07-0.145D-06-0.140D-06-0.832D-06-0.368D-05
 Coeff:     -0.214D-04 0.127D-04 0.583D-04 0.306D-03-0.205D-03-0.116D-02
 Coeff:     -0.619D-03 0.697D-02 0.800D-02-0.411D-01-0.120D+00 0.229D+00
 Coeff:      0.919D+00
 Gap=     0.230 Goal=   None    Shift=    0.000
 RMSDP=6.86D-08 MaxDP=4.90D-06 DE=-5.09D-11 OVMax= 1.42D-06

 Cycle  20  Pass 1  IDiag  1:
 RMSU=  1.25D-08    CP:  3.97D-03  1.19D+00  1.16D+00  4.51D-01  7.04D-01
                    CP:  1.04D+00  1.31D+00  1.44D+00  1.10D+00  1.41D+00
                    CP:  2.22D+00  2.06D+00  1.69D+00  1.70D+00  1.68D+00
                    CP:  1.25D+00  1.40D+00  1.58D+00  1.39D+00
 E= -3010.56864671018     Delta-E=        0.000000000010 Rises=F Damp=F
 DIIS: error= 2.63D-08 at cycle  20 NSaved=  20.
 NSaved=20 IEnMin=19 EnMin= -3010.56864671019     IErMin=20 ErrMin= 2.63D-08
 ErrMax= 2.63D-08  0.00D+00 EMaxC= 1.00D-01 BMatC= 1.46D-13 BMatP= 6.93D-13
 IDIUse=1 WtCom= 1.00D+00 WtEn= 0.00D+00
 Coeff-Com: -0.670D-08 0.441D-08 0.442D-07 0.821D-07 0.170D-07-0.171D-05
 Coeff-Com: -0.530D-05-0.789D-05-0.177D-04 0.375D-04 0.424D-03-0.151D-03
 Coeff-Com: -0.178D-02-0.648D-03 0.397D-02 0.194D-01-0.522D-01-0.150D+00
 Coeff-Com:  0.207D+00 0.974D+00
 Coeff:     -0.670D-08 0.441D-08 0.442D-07 0.821D-07 0.170D-07-0.171D-05
 Coeff:     -0.530D-05-0.789D-05-0.177D-04 0.375D-04 0.424D-03-0.151D-03
 Coeff:     -0.178D-02-0.648D-03 0.397D-02 0.194D-01-0.522D-01-0.150D+00
 Coeff:      0.207D+00 0.974D+00
 Gap=     0.230 Goal=   None    Shift=    0.000
 RMSDP=3.68D-08 MaxDP=3.39D-06 DE= 1.00D-11 OVMax= 9.52D-07

 Cycle  21  Pass 1  IDiag  1:
 Restarting incremental Fock formation.
 E= -3010.56864671018     Delta-E=       -0.000000000001 Rises=F Damp=F
 DIIS: error= 1.25D-08 at cycle  21 NSaved=  20.
 NSaved=20 IEnMin=18 EnMin= -3010.56864671019     IErMin=20 ErrMin= 1.25D-08
 ErrMax= 1.25D-08  0.00D+00 EMaxC= 1.00D-01 BMatC= 2.90D-14 BMatP= 1.46D-13
 IDIUse=1 WtCom= 1.00D+00 WtEn= 0.00D+00
 Coeff-Com:  0.164D-08 0.471D-07 0.596D-07 0.151D-06 0.391D-06 0.289D-05
 Coeff-Com: -0.503D-05-0.133D-04-0.635D-04 0.131D-03 0.187D-03-0.109D-03
 Coeff-Com: -0.143D-02-0.102D-02 0.122D-01 0.191D-01-0.704D-01-0.164D+00
 Coeff-Com:  0.151D+00 0.105D+01
 Coeff:      0.164D-08 0.471D-07 0.596D-07 0.151D-06 0.391D-06 0.289D-05
 Coeff:     -0.503D-05-0.133D-04-0.635D-04 0.131D-03 0.187D-03-0.109D-03
 Coeff:     -0.143D-02-0.102D-02 0.122D-01 0.191D-01-0.704D-01-0.164D+00
 Coeff:      0.151D+00 0.105D+01
 Gap=     0.230 Goal=   None    Shift=    0.000
 RMSDP=1.92D-08 MaxDP=2.32D-06 DE=-9.09D-13 OVMax= 5.50D-07

 Cycle  22  Pass 1  IDiag  1:
 RMSU=  1.71D-08    CP:  1.00D+00
 E= -3010.56864671014     Delta-E=        0.000000000038 Rises=F Damp=F
 DIIS: error= 5.27D-09 at cycle  22 NSaved=  20.
 NSaved=20 IEnMin=17 EnMin= -3010.56864671019     IErMin=20 ErrMin= 5.27D-09
 ErrMax= 5.27D-09  0.00D+00 EMaxC= 1.00D-01 BMatC= 7.44D-15 BMatP= 2.90D-14
 IDIUse=1 WtCom= 1.00D+00 WtEn= 0.00D+00
 Large coefficients: NSaved= 20 BigCof=    0.00 CofMax=   10.00 Det=-1.18D-14
 Inversion failed.  Reducing to 19 matrices.
 Coeff-Com:  0.450D-08 0.101D-07 0.389D-06 0.162D-05 0.132D-05 0.531D-05
 Coeff-Com: -0.191D-04-0.845D-04 0.764D-04 0.380D-03-0.275D-04-0.133D-02
 Coeff-Com: -0.322D-02 0.126D-01 0.224D-01-0.696D-01-0.220D+00 0.136D+00
 Coeff-Com:  0.112D+01
 Coeff:      0.450D-08 0.101D-07 0.389D-06 0.162D-05 0.132D-05 0.531D-05
 Coeff:     -0.191D-04-0.845D-04 0.764D-04 0.380D-03-0.275D-04-0.133D-02
 Coeff:     -0.322D-02 0.126D-01 0.224D-01-0.696D-01-0.220D+00 0.136D+00
 Coeff:      0.112D+01
 Gap=     0.230 Goal=   None    Shift=    0.000
 RMSDP=9.47D-09 MaxDP=8.69D-07 DE= 3.82D-11 OVMax= 4.04D-07

 SCF Done:  E(RwB97XD) =  -3010.56864671     A.U. after   22 cycles
            NFock= 22  Conv=0.95D-08     -V/T= 2.0016
 KE= 3.005797175082D+03 PE=-8.695568856749D+03 EE= 1.909027800811D+03
 Leave Link  502 at Thu May  2 14:22:19 2024, MaxMem=   134217728 cpu:            1377.1 elap:            1378.2
 (Enter /software/gaussian/g16-c01/sse4/g16/l601.exe)
 Copying SCF densities to generalized density rwf, IOpCl= 0 IROHF=0.

 **********************************************************************

            Population analysis using the SCF Density.

 **********************************************************************

 Alpha  occ. eigenvalues -- -483.28063 -62.83025 -56.62767 -56.62141 -56.62117
 Alpha  occ. eigenvalues --  -19.46420 -19.45998 -14.85437 -10.58607 -10.56672
 Alpha  occ. eigenvalues --  -10.55461 -10.54994 -10.53771 -10.51987  -8.98786
 Alpha  occ. eigenvalues --   -6.81590  -6.79544  -6.79471  -2.91462  -2.90937
 Alpha  occ. eigenvalues --   -2.90879  -2.89243  -2.89242  -1.49801  -1.32780
 Alpha  occ. eigenvalues --   -1.21322  -1.12055  -1.10946  -1.02898  -0.98992
 Alpha  occ. eigenvalues --   -0.94200  -0.89815  -0.84663  -0.80461  -0.79841
 Alpha  occ. eigenvalues --   -0.79300  -0.77164  -0.75859  -0.74410  -0.70675
 Alpha  occ. eigenvalues --   -0.67376  -0.66524  -0.62038  -0.58298  -0.57358
 Alpha  occ. eigenvalues --   -0.56452  -0.55683  -0.52201  -0.51628
 Alpha virt. eigenvalues --   -0.28650  -0.20147  -0.18010  -0.13700  -0.13485
 Alpha virt. eigenvalues --   -0.12078  -0.08322  -0.08073  -0.06409  -0.03974
 Alpha virt. eigenvalues --   -0.03739  -0.02382  -0.01125  -0.00190   0.00012
 Alpha virt. eigenvalues --    0.00483   0.02212   0.03306   0.03727   0.04042
 Alpha virt. eigenvalues --    0.05073   0.05797   0.06524   0.07227   0.08055
 Alpha virt. eigenvalues --    0.08673   0.08808   0.09098   0.10070   0.10776
 Alpha virt. eigenvalues --    0.11729   0.12207   0.13217   0.13694   0.14099
 Alpha virt. eigenvalues --    0.14508   0.15749   0.16185   0.16668   0.17584
 Alpha virt. eigenvalues --    0.17791   0.19081   0.19526   0.20918   0.21588
 Alpha virt. eigenvalues --    0.22491   0.23930   0.24636   0.25314   0.26251
 Alpha virt. eigenvalues --    0.28157   0.28350   0.28818   0.31195   0.33423
 Alpha virt. eigenvalues --    0.34076   0.34762   0.36944   0.37604   0.38247
 Alpha virt. eigenvalues --    0.39135   0.40108   0.41236   0.43127   0.43937
 Alpha virt. eigenvalues --    0.44899   0.45227   0.45911   0.47141   0.48991
 Alpha virt. eigenvalues --    0.50132   0.52253   0.52737   0.52938   0.54899
 Alpha virt. eigenvalues --    0.55186   0.57381   0.58272   0.60851   0.61245
 Alpha virt. eigenvalues --    0.63841   0.64100   0.67218   0.68729   0.69793
 Alpha virt. eigenvalues --    0.70877   0.71597   0.74040   0.75089   0.76200
 Alpha virt. eigenvalues --    0.77543   0.78317   0.80110   0.86170   0.86953
 Alpha virt. eigenvalues --    0.88178   0.88950   0.91889   0.95087   0.98144
 Alpha virt. eigenvalues --    1.01634   1.03416   1.04038   1.06641   1.07589
 Alpha virt. eigenvalues --    1.10510   1.13009   1.13548   1.14217   1.18066
 Alpha virt. eigenvalues --    1.22465   1.24326   1.28520   1.35205   1.36952
 Alpha virt. eigenvalues --    1.37962   1.40040   1.45065   1.56512   1.57434
 Alpha virt. eigenvalues --    1.57944   1.60343   1.62435   1.64654   1.67221
 Alpha virt. eigenvalues --    1.68665   1.72489   1.74628   1.76449   1.80446
 Alpha virt. eigenvalues --    1.84669   1.86011   1.88092   1.98018   1.98790
 Alpha virt. eigenvalues --    1.99372   2.03668   2.05029   2.08515   2.10574
 Alpha virt. eigenvalues --    2.14654   2.16112   2.23122   2.24352   2.27005
 Alpha virt. eigenvalues --    2.34035   2.41040   2.42569   2.45714   2.53978
 Alpha virt. eigenvalues --    2.59854   2.63825   2.66613   2.69528   2.71778
 Alpha virt. eigenvalues --    2.73969   2.76552   2.78178   2.80975   2.83486
 Alpha virt. eigenvalues --    2.94796   2.99147   3.02163   3.07745   3.09725
 Alpha virt. eigenvalues --    3.15435   3.16337   3.19121   3.22934   3.26515
 Alpha virt. eigenvalues --    3.27652   3.38509   3.46934   3.50960   3.54859
 Alpha virt. eigenvalues --    3.58645   3.69093   3.74422   3.84801   3.88456
 Alpha virt. eigenvalues --    4.13571   4.14474   4.22689   4.26995   4.44837
 Alpha virt. eigenvalues --    4.47123   4.55872   4.60127   4.93300   4.96704
 Alpha virt. eigenvalues --    5.04802   5.10271   5.62129   6.15212   6.71631
 Alpha virt. eigenvalues --    7.52525   7.54818   7.64834  23.23166  23.62203
 Alpha virt. eigenvalues --   23.74581  23.78950  23.96650  24.02422  35.31724
 Alpha virt. eigenvalues --   47.97384  49.85246  49.93918 289.84950 289.87285
 Alpha virt. eigenvalues --  289.998731020.98466
          Condensed to atoms (all electrons):
               1          2          3          4          5          6
     1  C    9.961104  -5.037618   1.371773  -0.665895   0.272391   0.089828
     2  C   -5.037618  20.555093  -5.963114   0.893663  -0.039609   0.062785
     3  C    1.371773  -5.963114  18.543230  -1.807686   0.019651   0.250630
     4  C   -0.665895   0.893663  -1.807686   7.327959   0.082533  -0.038111
     5  H    0.272391  -0.039609   0.019651   0.082533   0.437062  -0.003541
     6  H    0.089828   0.062785   0.250630  -0.038111  -0.003541   0.401673
     7  H    0.005758  -0.025248   0.019929   0.285464  -0.003921  -0.000012
     8  N   -0.168837   0.236507  -1.514458  -0.039783  -0.000570  -0.044267
     9  O   -0.078823   0.305679  -0.215014   0.009692  -0.000056  -0.003475
    10  O    0.383326  -0.352248  -0.210176  -0.037973   0.000064   0.028833
    11  C    1.278638  -1.570965   2.181337  -0.821423  -0.039699   0.019650
    12  H    0.003059   0.014169  -0.001718  -0.002647   0.000032  -0.000023
    13  C   -1.254426  -3.241607  -6.390407   1.117042   0.030228  -0.021063
    14  H   -0.017559   0.033682   0.068754   0.018825  -0.000040   0.000027
    15  Br  -0.040141  -0.098256  -0.215681   0.076352   0.000041  -0.001048
               7          8          9         10         11         12
     1  C    0.005758  -0.168837  -0.078823   0.383326   1.278638   0.003059
     2  C   -0.025248   0.236507   0.305679  -0.352248  -1.570965   0.014169
     3  C    0.019929  -1.514458  -0.215014  -0.210176   2.181337  -0.001718
     4  C    0.285464  -0.039783   0.009692  -0.037973  -0.821423  -0.002647
     5  H   -0.003921  -0.000570  -0.000056   0.000064  -0.039699   0.000032
     6  H   -0.000012  -0.044267  -0.003475   0.028833   0.019650  -0.000023
     7  H    0.343675   0.000162  -0.000010   0.000006   0.065022  -0.001616
     8  N    0.000162   7.678700   0.133387   0.100314  -0.072745   0.001291
     9  O   -0.000010   0.133387   7.715868  -0.013954   0.180616   0.000011
    10  O    0.000006   0.100314  -0.013954   8.062451   0.039534  -0.000016
    11  C    0.065022  -0.072745   0.180616   0.039534   8.989576   0.324407
    12  H   -0.001616   0.001291   0.000011  -0.000016   0.324407   0.259839
    13  C   -0.014911   0.826756  -0.205531   0.055462  -4.433210  -0.022927
    14  H   -0.000058  -0.045124   0.014732  -0.002474  -0.088747  -0.003449
    15  Br  -0.000419   0.156824  -0.056811   0.003030   0.111820  -0.002286
              13         14         15
     1  C   -1.254426  -0.017559  -0.040141
     2  C   -3.241607   0.033682  -0.098256
     3  C   -6.390407   0.068754  -0.215681
     4  C    1.117042   0.018825   0.076352
     5  H    0.030228  -0.000040   0.000041
     6  H   -0.021063   0.000027  -0.001048
     7  H   -0.014911  -0.000058  -0.000419
     8  N    0.826756  -0.045124   0.156824
     9  O   -0.205531   0.014732  -0.056811
    10  O    0.055462  -0.002474   0.003030
    11  C   -4.433210  -0.088747   0.111820
    12  H   -0.022927  -0.003449  -0.002286
    13  C   19.426078   0.300902   0.243707
    14  H    0.300902   0.285821  -0.028471
    15  Br   0.243707  -0.028471  34.495018
 Mulliken charges:
               1
     1  C   -0.102580
     2  C    0.227086
     3  C   -0.137050
     4  C   -0.398012
     5  H    0.245435
     6  H    0.258114
     7  H    0.326180
     8  N   -0.248158
     9  O    0.213689
    10  O   -0.056178
    11  C   -0.163810
    12  H    0.431875
    13  C   -0.416092
    14  H    0.463181
    15  Br   0.356319
 Sum of Mulliken charges =   1.00000
 Mulliken charges with hydrogens summed into heavy atoms:
               1
     1  C    0.142855
     2  C    0.485201
     3  C   -0.137050
     4  C   -0.071831
     8  N   -0.248158
     9  O    0.213689
    10  O   -0.056178
    11  C    0.268065
    13  C    0.047088
    15  Br   0.356319
 Electronic spatial extent (au):  <R**2>=           3942.1765
 Charge=              1.0000 electrons
 Dipole moment (field-independent basis, Debye):
    X=              3.1224    Y=             -7.4919    Z=             -1.6831  Tot=              8.2892
 Quadrupole moment (field-independent basis, Debye-Ang):
   XX=            -67.5175   YY=            -48.4750   ZZ=            -59.8535
   XY=            -16.7436   XZ=             -4.6000   YZ=              5.9593
 Traceless Quadrupole moment (field-independent basis, Debye-Ang):
   XX=             -8.9022   YY=             10.1404   ZZ=             -1.2382
   XY=            -16.7436   XZ=             -4.6000   YZ=              5.9593
 Octapole moment (field-independent basis, Debye-Ang**2):
  XXX=           -514.6174  YYY=             52.7115  ZZZ=             75.8095  XYY=           -129.7792
  XXY=            -25.7112  XXZ=             20.9920  XZZ=           -126.7661  YZZ=              4.9820
  YYZ=             15.6779  XYZ=             15.7109
 Hexadecapole moment (field-independent basis, Debye-Ang**3):
 XXXX=          -3471.1492 YYYY=           -669.0858 ZZZZ=           -375.5910 XXXY=            -21.6920
 XXXZ=            174.4848 YYYX=            108.0749 YYYZ=           -140.5195 ZZZX=            151.3215
 ZZZY=           -121.8693 XXYY=           -611.5669 XXZZ=           -511.4311 YYZZ=           -148.1907
 XXYZ=            -21.9725 YYXZ=             27.0850 ZZXY=              2.4141
 N-N= 7.701752341452D+02 E-N=-8.695568857156D+03  KE= 3.005797175082D+03
 No NMR shielding tensors so no spin-rotation constants.
 Leave Link  601 at Thu May  2 14:22:27 2024, MaxMem=   134217728 cpu:               7.4 elap:               7.4
 (Enter /software/gaussian/g16-c01/sse4/g16/l9999.exe)
 Unable to Open any file for archive entry.
 1\1\GINC-BHX0014\SP\RwB97XD\6-311+G(d)\C6H5Br1N1O2(1+)\BWEIGHT\02-May-
 2024\0\\#P wB97XD/6-311+G* NoSymm #P Field=Y+223\\TitleMe\\1,1\C,0,0.5
 193,1.233,-0.0319\C,0,1.9445,1.2692,-0.0367\C,0,2.6204,0.0928,-0.025\C
 ,0,-0.196,0.0301,0.001\H,0,-0.0207,2.1742,-0.0434\H,0,2.4828,2.2089,-0
 .0361\H,0,-1.2777,0.0399,0.0117\N,0,4.0921,0.0959,0.0366\O,0,4.6393,-1
 .0217,0.1446\O,0,4.6649,1.1984,-0.0233\C,0,0.4943,-1.1671,0.021\H,0,-0
 .0325,-2.1149,0.0545\C,0,1.9629,-1.2165,-0.0211\H,0,2.4436,-1.9631,0.6
 151\Br,0,2.173,-1.9491,-1.9062\\Version=ES64L-G16RevC.01\HF=-3010.5686
 467\RMSD=9.474e-09\Dipole=-3.1007586,-1.7194091,0.5870193\Quadrupole=-
 6.6185404,7.5391079,-0.9205675,-12.4484218,-3.4200057,4.4305901\PG=C01
  [X(C6H5Br1N1O2)]\\@
 The archive entry for this job was punched.


 A SOLDIER'S LIFE IS A LIFE OF HONOR, BUT A DOG WOULD NOT LEAD IT.
 -- PRINCE RUPERT, FOUNDER OF THE HUDSON'S BAY COMPANY
 Job cpu time:       0 days  0 hours 24 minutes  7.1 seconds.
 Elapsed time:       0 days  0 hours 24 minutes  8.3 seconds.
 File lengths (MBytes):  RWF=     40 Int=      0 D2E=      0 Chk=     32 Scr=      1
 Normal termination of Gaussian 16 at Thu May  2 14:22:28 2024.
