 Entering Gaussian System, Link 0=g16
 Initial command:
 /software/gaussian/g16-a03/l1.exe "/local_scratch/6484801/Gau-24579.inp" -scrdir="/local_scratch/6484801/"
 Entering Link 1 = /software/gaussian/g16-a03/l1.exe PID=     24645.
  
 Copyright (c) 1988,1990,1992,1993,1995,1998,2003,2009,2016,
            Gaussian, Inc.  All Rights Reserved.
  
 This is part of the Gaussian(R) 16 program.  It is based on
 the Gaussian(R) 09 system (copyright 2009, Gaussian, Inc.),
 the Gaussian(R) 03 system (copyright 2003, Gaussian, Inc.),
 the Gaussian(R) 98 system (copyright 1998, Gaussian, Inc.),
 the Gaussian(R) 94 system (copyright 1995, Gaussian, Inc.),
 the Gaussian 92(TM) system (copyright 1992, Gaussian, Inc.),
 the Gaussian 90(TM) system (copyright 1990, Gaussian, Inc.),
 the Gaussian 88(TM) system (copyright 1988, Gaussian, Inc.),
 the Gaussian 86(TM) system (copyright 1986, Carnegie Mellon
 University), and the Gaussian 82(TM) system (copyright 1983,
 Carnegie Mellon University). Gaussian is a federally registered
 trademark of Gaussian, Inc.
  
 This software contains proprietary and confidential information,
 including trade secrets, belonging to Gaussian, Inc.
  
 This software is provided under written license and may be
 used, copied, transmitted, or stored only in accord with that
 written license.
  
 The following legend is applicable only to US Government
 contracts under FAR:
  
                    RESTRICTED RIGHTS LEGEND
  
 Use, reproduction and disclosure by the US Government is
 subject to restrictions as set forth in subparagraphs (a)
 and (c) of the Commercial Computer Software - Restricted
 Rights clause in FAR 52.227-19.
  
 Gaussian, Inc.
 340 Quinnipiac St., Bldg. 40, Wallingford CT 06492
  
  
 ---------------------------------------------------------------
 Warning -- This program may not be used in any manner that
 competes with the business of Gaussian, Inc. or will provide
 assistance to any competitor of Gaussian, Inc.  The licensee
 of this program is prohibited from giving any competitor of
 Gaussian, Inc. access to this program.  By using this program,
 the user acknowledges that Gaussian, Inc. is engaged in the
 business of creating and licensing software in the field of
 computational chemistry and represents and warrants to the
 licensee that it is not a competitor of Gaussian, Inc. and that
 it will not use this program in any manner prohibited above.
 ---------------------------------------------------------------
  

 Cite this work as:
 Gaussian 16, Revision A.03,
 M. J. Frisch, G. W. Trucks, H. B. Schlegel, G. E. Scuseria, 
 M. A. Robb, J. R. Cheeseman, G. Scalmani, V. Barone, 
 G. A. Petersson, H. Nakatsuji, X. Li, M. Caricato, A. V. Marenich, 
 J. Bloino, B. G. Janesko, R. Gomperts, B. Mennucci, H. P. Hratchian, 
 J. V. Ortiz, A. F. Izmaylov, J. L. Sonnenberg, D. Williams-Young, 
 F. Ding, F. Lipparini, F. Egidi, J. Goings, B. Peng, A. Petrone, 
 T. Henderson, D. Ranasinghe, V. G. Zakrzewski, J. Gao, N. Rega, 
 G. Zheng, W. Liang, M. Hada, M. Ehara, K. Toyota, R. Fukuda, 
 J. Hasegawa, M. Ishida, T. Nakajima, Y. Honda, O. Kitao, H. Nakai, 
 T. Vreven, K. Throssell, J. A. Montgomery, Jr., J. E. Peralta, 
 F. Ogliaro, M. J. Bearpark, J. J. Heyd, E. N. Brothers, K. N. Kudin, 
 V. N. Staroverov, T. A. Keith, R. Kobayashi, J. Normand, 
 K. Raghavachari, A. P. Rendell, J. C. Burant, S. S. Iyengar, 
 J. Tomasi, M. Cossi, J. M. Millam, M. Klene, C. Adamo, R. Cammi, 
 J. W. Ochterski, R. L. Martin, K. Morokuma, O. Farkas, 
 J. B. Foresman, and D. J. Fox, Gaussian, Inc., Wallingford CT, 2016.
 
 ******************************************
 Gaussian 16:  ES64L-G16RevA.03 25-Dec-2016
                17-Sep-2021 
 ******************************************
 %chk=geometry.chk
 %mem=2GB
 %nprocshared=1
 Will use up to    1 processors via shared memory.
 --------------------------------------------------------------------
 #p B3LYP/6-311+G** #p TD=(singlets,nstates=30)IOp(6/8=3) IOp(9/40=4)
 --------------------------------------------------------------------
 1/38=1,172=1/1;
 2/12=2,17=6,18=5,40=1/2;
 3/5=4,6=6,7=111,11=9,25=1,30=1,74=-5/1,2,3,8;
 4//1;
 5/5=2,38=5/2;
 8/6=1,10=2,108=30/1;
 9/40=4,41=30,42=1,48=1,70=2/14;
 6/7=2,8=3,9=2,10=2/1;
 99/5=1,9=1/99;
 Leave Link    1 at Fri Sep 17 10:52:02 2021, MaxMem=   268435456 cpu:               0.0 elap:               0.4
 (Enter /software/gaussian/g16-a03/l101.exe)
 --------------------------------------------
 Scan Step 70, Bond Length 0.8500000000000001
 --------------------------------------------
 Symbolic Z-matrix:
 Charge =  0 Multiplicity = 1
 C                     0.        0.       -0.52736 
 H                     0.        0.93726  -1.11871 
 H                     0.       -0.93726  -1.11871 
 O                     0.        0.        0.32264 
 
 ITRead=  0  0  0  0
 MicOpt= -1 -1 -1 -1
 NAtoms=      4 NQM=        4 NQMF=       0 NMMI=      0 NMMIF=      0
                NMic=       0 NMicF=      0.
                    Isotopes and Nuclear Properties:
 (Nuclear quadrupole moments (NQMom) in fm**2, nuclear magnetic moments (NMagM)
  in nuclear magnetons)

  Atom         1           2           3           4
 IAtWgt=          12           1           1          16
 AtmWgt=  12.0000000   1.0078250   1.0078250  15.9949146
 NucSpn=           0           1           1           0
 AtZEff=  -0.0000000  -0.0000000  -0.0000000  -0.0000000
 NQMom=    0.0000000   0.0000000   0.0000000   0.0000000
 NMagM=    0.0000000   2.7928460   2.7928460   0.0000000
 AtZNuc=   6.0000000   1.0000000   1.0000000   8.0000000
 Leave Link  101 at Fri Sep 17 10:52:03 2021, MaxMem=   268435456 cpu:               0.1 elap:               0.1
 (Enter /software/gaussian/g16-a03/l202.exe)
                          Input orientation:                          
 ---------------------------------------------------------------------
 Center     Atomic      Atomic             Coordinates (Angstroms)
 Number     Number       Type             X           Y           Z
 ---------------------------------------------------------------------
      1          6           0        0.000000    0.000000   -0.527360
      2          1           0        0.000000    0.937260   -1.118710
      3          1           0        0.000000   -0.937260   -1.118710
      4          8           0        0.000000    0.000000    0.322640
 ---------------------------------------------------------------------
                    Distance matrix (angstroms):
                    1          2          3          4
     1  C    0.000000
     2  H    1.108220   0.000000
     3  H    1.108220   1.874520   0.000000
     4  O    0.850000   1.719287   1.719287   0.000000
 Stoichiometry    CH2O
 Framework group  C2V[C2(CO),SGV(H2)]
 Deg. of freedom     3
 Full point group                 C2V     NOp   4
 Largest Abelian subgroup         C2V     NOp   4
 Largest concise Abelian subgroup C2      NOp   2
                         Standard orientation:                         
 ---------------------------------------------------------------------
 Center     Atomic      Atomic             Coordinates (Angstroms)
 Number     Number       Type             X           Y           Z
 ---------------------------------------------------------------------
      1          6           0        0.000000    0.000000   -0.351081
      2          1           0        0.000000    0.937260   -0.942431
      3          1           0       -0.000000   -0.937260   -0.942431
      4          8           0        0.000000   -0.000000    0.498919
 ---------------------------------------------------------------------
 Rotational constants (GHZ):         285.4183527          70.8351222          56.7507275
 Leave Link  202 at Fri Sep 17 10:52:03 2021, MaxMem=   268435456 cpu:               0.0 elap:               0.0
 (Enter /software/gaussian/g16-a03/l301.exe)
 Standard basis: 6-311+G(d,p) (5D, 7F)
 Ernie: Thresh=  0.10000D-02 Tol=  0.10000D-05 Strict=F.
 There are    29 symmetry adapted cartesian basis functions of A1  symmetry.
 There are     3 symmetry adapted cartesian basis functions of A2  symmetry.
 There are    11 symmetry adapted cartesian basis functions of B1  symmetry.
 There are    15 symmetry adapted cartesian basis functions of B2  symmetry.
 There are    27 symmetry adapted basis functions of A1  symmetry.
 There are     3 symmetry adapted basis functions of A2  symmetry.
 There are    11 symmetry adapted basis functions of B1  symmetry.
 There are    15 symmetry adapted basis functions of B2  symmetry.
    56 basis functions,    88 primitive gaussians,    58 cartesian basis functions
     8 alpha electrons        8 beta electrons
       nuclear repulsion energy        40.8198944317 Hartrees.
 IExCor=  402 DFT=T Ex+Corr=B3LYP ExCW=0 ScaHFX=  0.200000
 ScaDFX=  0.800000  0.720000  1.000000  0.810000 ScalE2=  1.000000  1.000000
 IRadAn=      5 IRanWt=     -1 IRanGd=            0 ICorTp=0 IEmpDi=  4
 NAtoms=    4 NActive=    4 NUniq=    3 SFac= 1.78D+00 NAtFMM=   60 NAOKFM=F Big=F
 Integral buffers will be    131072 words long.
 Regular integral format.
 Two-electron integral symmetry is turned on.
 Leave Link  301 at Fri Sep 17 10:52:03 2021, MaxMem=   268435456 cpu:               0.1 elap:               0.1
 (Enter /software/gaussian/g16-a03/l302.exe)
 NPDir=0 NMtPBC=     1 NCelOv=     1 NCel=       1 NClECP=     1 NCelD=      1
         NCelK=      1 NCelE2=     1 NClLst=     1 CellRange=     0.0.
 One-electron integrals computed using PRISM.
 One-electron integral symmetry used in STVInt
 NBasis=    56 RedAO= T EigKep=  1.08D-03  NBF=    27     3    11    15
 NBsUse=    56 1.00D-06 EigRej= -1.00D+00 NBFU=    27     3    11    15
 Precomputing XC quadrature grid using
 IXCGrd= 4 IRadAn=           5 IRanWt=          -1 IRanGd=           0 AccXCQ= 0.00D+00.
 Generated NRdTot=       0 NPtTot=           0 NUsed=           0 NTot=          32
 NSgBfM=    58    58    58    58    58 MxSgAt=     4 MxSgA2=     4.
 Leave Link  302 at Fri Sep 17 10:52:03 2021, MaxMem=   268435456 cpu:               0.1 elap:               0.1
 (Enter /software/gaussian/g16-a03/l303.exe)
 DipDrv:  MaxL=1.
 Leave Link  303 at Fri Sep 17 10:52:03 2021, MaxMem=   268435456 cpu:               0.0 elap:               0.0
 (Enter /software/gaussian/g16-a03/l308.exe)
 Leave Link  308 at Fri Sep 17 10:52:03 2021, MaxMem=   268435456 cpu:               0.0 elap:               0.0
 (Enter /software/gaussian/g16-a03/l401.exe)
 ExpMin= 4.38D-02 ExpMax= 8.59D+03 ExpMxC= 1.30D+03 IAcc=3 IRadAn=         5 AccDes= 0.00D+00
 Harris functional with IExCor=  402 and IRadAn=       5 diagonalized for initial guess.
 HarFok:  IExCor=  402 AccDes= 0.00D+00 IRadAn=         5 IDoV= 1 UseB2=F ITyADJ=14
 ICtDFT=  3500011 ScaDFX=  1.000000  1.000000  1.000000  1.000000
 FoFCou: FMM=F IPFlag=           0 FMFlag=      100000 FMFlg1=           0
         NFxFlg=           0 DoJE=T BraDBF=F KetDBF=T FulRan=T
         wScrn=  0.000000 ICntrl=       500 IOpCl=  0 I1Cent=   200000004 NGrid=           0
         NMat0=    1 NMatS0=      1 NMatT0=    0 NMatD0=    1 NMtDS0=    0 NMtDT0=    0
 Petite list used in FoFCou.
 Harris En= -114.201040168386    
 JPrj=0 DoOrth=F DoCkMO=F.
 Initial guess orbital symmetries:
       Occupied  (A1) (A1) (A1) (B2) (B1) (A1) (A1) (B2)
       Virtual   (B1) (A1) (B2) (A1) (B1) (A1) (A1) (B2) (B2) (B1)
                 (A1) (A1) (A1) (B1) (B2) (B2) (A1) (A1) (A2) (B1)
                 (B2) (A1) (A1) (B1) (B2) (A1) (A2) (B2) (B1) (A1)
                 (A1) (B2) (A1) (B2) (B1) (A1) (A1) (A2) (B2) (A1)
                 (B1) (B2) (A1) (B1) (B2) (A1) (A1) (A1)
 The electronic state of the initial guess is 1-A1.
 Leave Link  401 at Fri Sep 17 10:52:03 2021, MaxMem=   268435456 cpu:               0.3 elap:               0.3
 (Enter /software/gaussian/g16-a03/l502.exe)
 Keep R1 ints in memory in symmetry-blocked form, NReq=2159909.
 FoFCou: FMM=F IPFlag=           0 FMFlag=           0 FMFlg1=           0
         NFxFlg=           0 DoJE=F BraDBF=F KetDBF=F FulRan=T
         wScrn=  0.000000 ICntrl=       600 IOpCl=  0 I1Cent=           0 NGrid=           0
         NMat0=    1 NMatS0=   1596 NMatT0=    0 NMatD0=    1 NMtDS0=    0 NMtDT0=    0
 Petite list used in FoFCou.
 Closed shell SCF:
 Using DIIS extrapolation, IDIIS=  1040.
 NGot=   268435456 LenX=   268074384 LenY=   268070579
 Requested convergence on RMS density matrix=1.00D-08 within 128 cycles.
 Requested convergence on MAX density matrix=1.00D-06.
 Requested convergence on             energy=1.00D-06.
 No special actions if energy rises.

 Cycle   1  Pass 1  IDiag  1:
 E= -113.906980883690    
 DIIS: error= 8.37D-02 at cycle   1 NSaved=   1.
 NSaved= 1 IEnMin= 1 EnMin= -113.906980883690     IErMin= 1 ErrMin= 8.37D-02
 ErrMax= 8.37D-02  0.00D+00 EMaxC= 1.00D-01 BMatC= 2.79D-01 BMatP= 2.79D-01
 IDIUse=3 WtCom= 1.63D-01 WtEn= 8.37D-01
 Coeff-Com:  0.100D+01
 Coeff-En:   0.100D+01
 Coeff:      0.100D+01
 Gap=     0.145 Goal=   None    Shift=    0.000
 GapD=    0.145 DampG=1.000 DampE=0.500 DampFc=0.5000 IDamp=-1.
 Damping current iteration by 5.00D-01
 RMSDP=1.44D-02 MaxDP=2.00D-01              OVMax= 2.94D-01

 Cycle   2  Pass 1  IDiag  1:
 E= -113.972031413487     Delta-E=       -0.065050529797 Rises=F Damp=T
 DIIS: error= 1.55D-02 at cycle   2 NSaved=   2.
 NSaved= 2 IEnMin= 2 EnMin= -113.972031413487     IErMin= 2 ErrMin= 1.55D-02
 ErrMax= 1.55D-02  0.00D+00 EMaxC= 1.00D-01 BMatC= 1.06D-02 BMatP= 2.79D-01
 IDIUse=3 WtCom= 8.45D-01 WtEn= 1.55D-01
 Coeff-Com:  0.703D-01 0.930D+00
 Coeff-En:   0.212D+00 0.788D+00
 Coeff:      0.924D-01 0.908D+00
 Gap=     0.264 Goal=   None    Shift=    0.000
 RMSDP=3.63D-03 MaxDP=5.14D-02 DE=-6.51D-02 OVMax= 1.73D-01

 Cycle   3  Pass 1  IDiag  1:
 E= -114.070972843571     Delta-E=       -0.098941430084 Rises=F Damp=F
 DIIS: error= 1.54D-02 at cycle   3 NSaved=   3.
 NSaved= 3 IEnMin= 3 EnMin= -114.070972843571     IErMin= 3 ErrMin= 1.54D-02
 ErrMax= 1.54D-02  0.00D+00 EMaxC= 1.00D-01 BMatC= 6.86D-03 BMatP= 1.06D-02
 IDIUse=3 WtCom= 8.46D-01 WtEn= 1.54D-01
 Coeff-Com: -0.255D-01 0.422D+00 0.604D+00
 Coeff-En:   0.000D+00 0.000D+00 0.100D+01
 Coeff:     -0.216D-01 0.357D+00 0.665D+00
 Gap=     0.252 Goal=   None    Shift=    0.000
 RMSDP=1.16D-03 MaxDP=1.37D-02 DE=-9.89D-02 OVMax= 2.94D-02

 Cycle   4  Pass 1  IDiag  1:
 E= -114.074973520109     Delta-E=       -0.004000676538 Rises=F Damp=F
 DIIS: error= 4.39D-03 at cycle   4 NSaved=   4.
 NSaved= 4 IEnMin= 4 EnMin= -114.074973520109     IErMin= 4 ErrMin= 4.39D-03
 ErrMax= 4.39D-03  0.00D+00 EMaxC= 1.00D-01 BMatC= 6.79D-04 BMatP= 6.86D-03
 IDIUse=3 WtCom= 9.56D-01 WtEn= 4.39D-02
 Coeff-Com: -0.200D-01 0.692D-01 0.297D+00 0.654D+00
 Coeff-En:   0.000D+00 0.000D+00 0.000D+00 0.100D+01
 Coeff:     -0.191D-01 0.662D-01 0.284D+00 0.669D+00
 Gap=     0.248 Goal=   None    Shift=    0.000
 RMSDP=3.09D-04 MaxDP=6.47D-03 DE=-4.00D-03 OVMax= 6.53D-03

 Cycle   5  Pass 1  IDiag  1:
 E= -114.075463633793     Delta-E=       -0.000490113684 Rises=F Damp=F
 DIIS: error= 3.02D-04 at cycle   5 NSaved=   5.
 NSaved= 5 IEnMin= 5 EnMin= -114.075463633793     IErMin= 5 ErrMin= 3.02D-04
 ErrMax= 3.02D-04  0.00D+00 EMaxC= 1.00D-01 BMatC= 4.42D-06 BMatP= 6.79D-04
 IDIUse=3 WtCom= 9.97D-01 WtEn= 3.02D-03
 Coeff-Com: -0.105D-02-0.162D-02 0.188D-01 0.114D+00 0.869D+00
 Coeff-En:   0.000D+00 0.000D+00 0.000D+00 0.000D+00 0.100D+01
 Coeff:     -0.104D-02-0.161D-02 0.188D-01 0.114D+00 0.870D+00
 Gap=     0.248 Goal=   None    Shift=    0.000
 RMSDP=3.61D-05 MaxDP=6.38D-04 DE=-4.90D-04 OVMax= 6.55D-04

 Cycle   6  Pass 1  IDiag  1:
 E= -114.075467310707     Delta-E=       -0.000003676914 Rises=F Damp=F
 DIIS: error= 2.07D-05 at cycle   6 NSaved=   6.
 NSaved= 6 IEnMin= 6 EnMin= -114.075467310707     IErMin= 6 ErrMin= 2.07D-05
 ErrMax= 2.07D-05  0.00D+00 EMaxC= 1.00D-01 BMatC= 1.69D-08 BMatP= 4.42D-06
 IDIUse=1 WtCom= 1.00D+00 WtEn= 0.00D+00
 Coeff-Com:  0.189D-03-0.715D-03-0.304D-03 0.667D-02 0.791D-01 0.915D+00
 Coeff:      0.189D-03-0.715D-03-0.304D-03 0.667D-02 0.791D-01 0.915D+00
 Gap=     0.248 Goal=   None    Shift=    0.000
 RMSDP=2.44D-06 MaxDP=3.05D-05 DE=-3.68D-06 OVMax= 4.64D-05

 Cycle   7  Pass 1  IDiag  1:
 E= -114.075467323146     Delta-E=       -0.000000012440 Rises=F Damp=F
 DIIS: error= 1.07D-06 at cycle   7 NSaved=   7.
 NSaved= 7 IEnMin= 7 EnMin= -114.075467323146     IErMin= 7 ErrMin= 1.07D-06
 ErrMax= 1.07D-06  0.00D+00 EMaxC= 1.00D-01 BMatC= 6.63D-11 BMatP= 1.69D-08
 IDIUse=1 WtCom= 1.00D+00 WtEn= 0.00D+00
 Coeff-Com:  0.307D-05-0.687D-05-0.902D-04-0.565D-03-0.629D-02-0.229D-02
 Coeff-Com:  0.101D+01
 Coeff:      0.307D-05-0.687D-05-0.902D-04-0.565D-03-0.629D-02-0.229D-02
 Coeff:      0.101D+01
 Gap=     0.248 Goal=   None    Shift=    0.000
 RMSDP=2.97D-07 MaxDP=2.99D-06 DE=-1.24D-08 OVMax= 7.12D-06

 Cycle   8  Pass 1  IDiag  1:
 E= -114.075467323252     Delta-E=       -0.000000000105 Rises=F Damp=F
 DIIS: error= 2.03D-07 at cycle   8 NSaved=   8.
 NSaved= 8 IEnMin= 8 EnMin= -114.075467323252     IErMin= 8 ErrMin= 2.03D-07
 ErrMax= 2.03D-07  0.00D+00 EMaxC= 1.00D-01 BMatC= 1.82D-12 BMatP= 6.63D-11
 IDIUse=1 WtCom= 1.00D+00 WtEn= 0.00D+00
 Coeff-Com: -0.226D-05 0.264D-05 0.724D-05-0.539D-04-0.801D-03-0.783D-02
 Coeff-Com:  0.947D-01 0.914D+00
 Coeff:     -0.226D-05 0.264D-05 0.724D-05-0.539D-04-0.801D-03-0.783D-02
 Coeff:      0.947D-01 0.914D+00
 Gap=     0.248 Goal=   None    Shift=    0.000
 RMSDP=4.97D-08 MaxDP=6.76D-07 DE=-1.05D-10 OVMax= 1.17D-06

 Cycle   9  Pass 1  IDiag  1:
 E= -114.075467323256     Delta-E=       -0.000000000004 Rises=F Damp=F
 DIIS: error= 3.36D-08 at cycle   9 NSaved=   9.
 NSaved= 9 IEnMin= 9 EnMin= -114.075467323256     IErMin= 9 ErrMin= 3.36D-08
 ErrMax= 3.36D-08  0.00D+00 EMaxC= 1.00D-01 BMatC= 5.41D-14 BMatP= 1.82D-12
 IDIUse=1 WtCom= 1.00D+00 WtEn= 0.00D+00
 Coeff-Com: -0.208D-06 0.727D-06 0.756D-06 0.176D-05-0.192D-04-0.759D-03
 Coeff-Com: -0.104D-01 0.863D-01 0.925D+00
 Coeff:     -0.208D-06 0.727D-06 0.756D-06 0.176D-05-0.192D-04-0.759D-03
 Coeff:     -0.104D-01 0.863D-01 0.925D+00
 Gap=     0.248 Goal=   None    Shift=    0.000
 RMSDP=7.17D-09 MaxDP=7.78D-08 DE=-3.67D-12 OVMax= 1.64D-07

 SCF Done:  E(RB3LYP) =  -114.075467323     A.U. after    9 cycles
            NFock=  9  Conv=0.72D-08     -V/T= 1.9738
 KE= 1.171443197827D+02 PE=-3.516177892707D+02 EE= 7.957810773301D+01
 Leave Link  502 at Fri Sep 17 10:52:05 2021, MaxMem=   268435456 cpu:               1.6 elap:               1.8
 (Enter /software/gaussian/g16-a03/l801.exe)
 DoSCS=F DFT=T ScalE2(SS,OS)=  1.000000  1.000000
 ExpMin= 4.38D-02 ExpMax= 8.59D+03 ExpMxC= 1.30D+03 IAcc=3 IRadAn=         5 AccDes= 0.00D+00
 HarFok:  IExCor=  205 AccDes= 0.00D+00 IRadAn=         5 IDoV=-2 UseB2=F ITyADJ=14
 ICtDFT= 12500011 ScaDFX=  1.000000  1.000000  1.000000  1.000000
 Largest valence mixing into a core orbital is  7.87D-05
 Largest core mixing into a valence orbital is  1.24D-05
 Range of M.O.s used for correlation:     3    56
 NBasis=    56 NAE=     8 NBE=     8 NFC=     2 NFV=     0
 NROrb=     54 NOA=     6 NOB=     6 NVA=    48 NVB=    48

 **** Warning!!: The largest alpha MO coefficient is  0.11952789D+02

 Leave Link  801 at Fri Sep 17 10:52:05 2021, MaxMem=   268435456 cpu:               0.2 elap:               0.2
 (Enter /software/gaussian/g16-a03/l914.exe)
 RHF ground state
 Keep R1, R2, and R3 ints in memory in symmetry-blocked form, NReq=6042848.
 FoFCou: FMM=F IPFlag=           0 FMFlag=           0 FMFlg1=           0
         NFxFlg=           0 DoJE=F BraDBF=F KetDBF=F FulRan=T
         wScrn=  0.000000 ICntrl=       600 IOpCl=  0 I1Cent=           0 NGrid=           0
         NMat0=    1 NMatS0=   1596 NMatT0=    0 NMatD0=    1 NMtDS0=    0 NMtDT0=    0
 Petite list used in FoFCou.
 MDV=   268435456 DFT=T DoStab=F Mixed=T DoRPA=T DoScal=F NonHer=T
 Making orbital integer symmetry assigments:
 Orbital symmetries:
       Occupied  (A1) (A1) (A1) (B2) (B1) (A1) (A1) (B2)
       Virtual   (A1) (B1) (B2) (A1) (B1) (A1) (A1) (B2) (B1) (B2)
                 (A1) (A1) (A1) (B1) (B2) (B2) (A1) (A1) (A2) (B1)
                 (B2) (A1) (A1) (B1) (B2) (A1) (A2) (B2) (B1) (A1)
                 (A1) (B2) (A1) (B2) (B1) (A1) (A1) (A2) (B2) (A1)
                 (B1) (B2) (A1) (B1) (B2) (A1) (A1) (A1)
   120 initial guesses have been made.
 Convergence on wavefunction:    0.001000000000000
 Davidson Disk Diagonalization:  ConvIn= 1.00D-03 SkipCon=T Conv= 1.00D-03.
 Max sub-space:  1728 roots to seek:   120 dimension of matrix:          576
 Iteration     1 Dimension   120 NMult     0 NNew    120
 CISAX will form   120 AO SS matrices at one time.
 NMat=   120 NSing=   120 JSym2X=-1.
 New state      1 was old state      2
 New state      2 was old state      1
 New state      3 was old state      4
 New state      4 was old state      3
 New state     12 was old state     13
 New state     13 was old state     12
 New state     17 was old state     18
 New state     18 was old state     17
 New state     20 was old state     21
 New state     21 was old state     20
 New state     22 was old state     24
 New state     23 was old state     25
 New state     24 was old state     27
 New state     25 was old state     22
 New state     26 was old state     23
 New state     27 was old state     26
 Excitation Energies [eV] at current iteration:
 Root      1 :     5.576500956971704
 Root      2 :     5.714919561518728
 Root      3 :     6.516920500637186
 Root      4 :     6.655197977383754
 Root      5 :     7.603398039361784
 Root      6 :     9.787051807681459
 Root      7 :    10.016407294379190
 Root      8 :    10.844363646741820
 Root      9 :    11.057890387750710
 Root     10 :    12.165112681443760
 Root     11 :    12.223855853052620
 Root     12 :    13.718528056785460
 Root     13 :    13.894109345359010
 Root     14 :    14.622920173301950
 Root     15 :    14.637932362036940
 Root     16 :    14.830883639239480
 Root     17 :    15.295913535060770
 Root     18 :    15.578288439022570
 Root     19 :    15.591213289095170
 Root     20 :    15.874327887197780
 Root     21 :    15.970529290259220
 Root     22 :    16.185530994310150
 Root     23 :    16.279733477012730
 Root     24 :    16.289444243040230
 Root     25 :    16.356310499107500
 Root     26 :    16.402350044692750
 Root     27 :    16.557497815036420
 Root     28 :    17.122343295597850
 Root     29 :    17.400470011497710
 Root     30 :    17.484737636384670
 Root     31 :    17.809221907598500
 Root     32 :    17.912785930000030
 Root     33 :    18.138478805057470
 Root     34 :    18.337406847912800
 Root     35 :    18.510501937209180
 Root     36 :    18.903910784029190
 Root     37 :    18.985996053945460
 Root     38 :    19.117844244988290
 Root     39 :    19.168307359099530
 Root     40 :    19.422821134985280
 Root     41 :    19.618630646681910
 Root     42 :    19.779230091544140
 Root     43 :    19.911349062756630
 Root     44 :    20.172967699512320
 Root     45 :    20.219921349657860
 Root     46 :    20.407750338160950
 Root     47 :    20.462948853092010
 Root     48 :    20.550077949347090
 Root     49 :    20.888186122183100
 Root     50 :    20.931505115226640
 Root     51 :    21.115938127019090
 Root     52 :    21.130661110396750
 Root     53 :    21.508303926201690
 Root     54 :    21.792320081345230
 Root     55 :    21.884141583602640
 Root     56 :    21.903690166507580
 Root     57 :    22.184999261322730
 Root     58 :    23.035997174339800
 Root     59 :    23.051653097895230
 Root     60 :    23.276603070330160
 Root     61 :    24.275963802104560
 Root     62 :    24.528944647373740
 Root     63 :    24.565802287782660
 Root     64 :    25.222844971078970
 Root     65 :    26.182768765095740
 Root     66 :    26.808901049813800
 Root     67 :    27.265339434499830
 Root     68 :    27.803183387385970
 Root     69 :    28.365648750327090
 Root     70 :    28.987517845024330
 Root     71 :    29.032082136796800
 Root     72 :    29.160354813406550
 Root     73 :    29.375153992064390
 Root     74 :    29.756812902847000
 Root     75 :    29.766012453915230
 Root     76 :    29.945353909752770
 Root     77 :    30.447139900314100
 Root     78 :    30.852692962580870
 Root     79 :    30.995543693888260
 Root     80 :    31.970769119115100
 Root     81 :    32.032269864351350
 Root     82 :    32.261914224785780
 Root     83 :    32.449139887035790
 Root     84 :    32.541843465490780
 Root     85 :    33.224647128455620
 Root     86 :    33.804687015111150
 Root     87 :    34.038093198359160
 Root     88 :    34.420893515074340
 Root     89 :    34.474748608360810
 Root     90 :    35.022909447016250
 Root     91 :    35.332615961629290
 Root     92 :    35.402041368983490
 Root     93 :    36.298428051597360
 Root     94 :    37.118768147262950
 Root     95 :    37.741080661951230
 Root     96 :    38.566330932582320
 Root     97 :    38.618345283343660
 Root     98 :    39.442632141591440
 Root     99 :    39.484342491489970
 Root    100 :    39.490701192504110
 Root    101 :    39.728236971241800
 Root    102 :    39.737669654464380
 Root    103 :    39.795641099245680
 Root    104 :    40.101387846826300
 Root    105 :    40.340916022297550
 Root    106 :    40.550462075466900
 Root    107 :    40.862707144639410
 Root    108 :    41.089781823918270
 Root    109 :    41.418961587420050
 Root    110 :    41.622471830392280
 Root    111 :    41.715687235643250
 Root    112 :    41.863447210444490
 Root    113 :    42.050002230207120
 Root    114 :    42.094337952501180
 Root    115 :    42.526775187909050
 Root    116 :    42.790702066796000
 Root    117 :    43.409100614391860
 Root    118 :    43.615224428354830
 Root    119 :    43.784587213475300
 Root    120 :    47.976643788803520
 Iteration     2 Dimension   180 NMult   120 NNew     60
 CISAX will form    60 AO SS matrices at one time.
 NMat=    60 NSing=    60 JSym2X=-1.
 Root      1 not converged, maximum delta is    0.004694559295671
 Root      2 not converged, maximum delta is    0.002977300574638
 Root      3 not converged, maximum delta is    0.003090968831356
 Root      4 not converged, maximum delta is    0.004598543998742
 Root      5 not converged, maximum delta is    0.003764338215949
 Root      6 not converged, maximum delta is    0.019840811342945
 Root      7 not converged, maximum delta is    0.018563294395573
 Root      8 not converged, maximum delta is    0.004327126778333
 Root      9 not converged, maximum delta is    0.002112512034760
 Root     10 not converged, maximum delta is    0.007219613800254
 Root     11 not converged, maximum delta is    0.003341888096664
 Root     12 not converged, maximum delta is    0.016979390015973
 Root     13 not converged, maximum delta is    0.009764259643905
 Root     14 not converged, maximum delta is    0.014288834850782
 Root     15 not converged, maximum delta is    0.008272416232040
 Root     16 not converged, maximum delta is    0.014177588745823
 Root     17 not converged, maximum delta is    0.005907034273559
 Root     18 not converged, maximum delta is    0.007984864011246
 Root     19 not converged, maximum delta is    0.010443078836988
 Root     20 not converged, maximum delta is    0.025343585997567
 Root     21 not converged, maximum delta is    0.031090466607324
 Root     22 not converged, maximum delta is    0.005885353408952
 Root     23 not converged, maximum delta is    0.020110773115244
 Root     24 not converged, maximum delta is    0.006186596248062
 Root     25 not converged, maximum delta is    0.019872497431440
 Root     26 not converged, maximum delta is    0.024437488360833
 Root     27 not converged, maximum delta is    0.019012973667669
 Root     28 not converged, maximum delta is    0.004675084495824
 Root     29 not converged, maximum delta is    0.018807287152911
 Root     30 not converged, maximum delta is    0.004294921221934
 Excitation Energies [eV] at current iteration:
 Root      1 :     5.568774280953891   Change is   -0.007726676017813
 Root      2 :     5.711576968184884   Change is   -0.003342593333844
 Root      3 :     6.512425625684788   Change is   -0.004494874952398
 Root      4 :     6.650640248882215   Change is   -0.004557728501540
 Root      5 :     7.598531147439727   Change is   -0.004866891922057
 Root      6 :     9.773311440828778   Change is   -0.013740366852682
 Root      7 :    10.010649061967790   Change is   -0.005758232411396
 Root      8 :    10.831082692110330   Change is   -0.013280954631486
 Root      9 :    11.056271542113300   Change is   -0.001618845637410
 Root     10 :    12.154463052544190   Change is   -0.010649628899568
 Root     11 :    12.216793869065210   Change is   -0.007061983987413
 Root     12 :    13.676733602272790   Change is   -0.041794454512672
 Root     13 :    13.881321436309330   Change is   -0.012787909049688
 Root     14 :    14.613872443443470   Change is   -0.009047729858484
 Root     15 :    14.626922174196840   Change is   -0.011010187840100
 Root     16 :    14.813120798401010   Change is   -0.017762840838471
 Root     17 :    15.294695706943790   Change is   -0.001217828116983
 Root     18 :    15.565789192067200   Change is   -0.012499246955370
 Root     19 :    15.572284956586430   Change is   -0.018928332508739
 Root     20 :    15.798144610870920   Change is   -0.076183276326860
 Root     21 :    15.923378680054290   Change is   -0.047150610204935
 Root     22 :    16.185043547262410   Change is   -0.000487447047737
 Root     23 :    16.272392957815820   Change is   -0.007340519196909
 Root     24 :    16.285370258020570   Change is   -0.004073985019659
 Root     25 :    16.339739343761110   Change is   -0.016571155346389
 Root     26 :    16.387090474698760   Change is   -0.015259569993980
 Root     27 :    16.554482621299820   Change is   -0.003015193736605
 Root     28 :    17.117119838042290   Change is   -0.005223457555558
 Root     29 :    17.390783353229440   Change is   -0.009686658268259
 Root     30 :    17.479402838876400   Change is   -0.005334797508268
 Iteration     3 Dimension   240 NMult   180 NNew     60
 CISAX will form    60 AO SS matrices at one time.
 NMat=    60 NSing=    60 JSym2X=-1.
 Root      1 has converged.
 Root      2 has converged.
 Root      3 has converged.
 Root      4 has converged.
 Root      5 has converged.
 Root      6 has converged.
 Root      7 has converged.
 Root      8 has converged.
 Root      9 has converged.
 Root     10 has converged.
 Root     11 has converged.
 Root     12 has converged.
 Root     13 has converged.
 Root     14 has converged.
 Root     15 has converged.
 Root     16 has converged.
 Root     17 has converged.
 Root     18 has converged.
 Root     19 has converged.
 Root     20 has converged.
 Root     21 has converged.
 Root     22 has converged.
 Root     23 has converged.
 Root     24 has converged.
 Root     25 has converged.
 Root     26 has converged.
 Root     27 has converged.
 Root     28 has converged.
 Root     29 has converged.
 Root     30 has converged.
 Excitation Energies [eV] at current iteration:
 Root      1 :     5.568772082216475   Change is   -0.000002198737416
 Root      2 :     5.711575430601059   Change is   -0.000001537583825
 Root      3 :     6.512423692811219   Change is   -0.000001932873569
 Root      4 :     6.650637906904640   Change is   -0.000002341977574
 Root      5 :     7.598529574250579   Change is   -0.000001573189148
 Root      6 :     9.773307900679582   Change is   -0.000003540149195
 Root      7 :    10.010645995772470   Change is   -0.000003066195318
 Root      8 :    10.831067931194550   Change is   -0.000014760915774
 Root      9 :    11.056270029715880   Change is   -0.000001512397419
 Root     10 :    12.154445584066120   Change is   -0.000017468478068
 Root     11 :    12.216784739196570   Change is   -0.000009129868638
 Root     12 :    13.676631021242290   Change is   -0.000102581030495
 Root     13 :    13.881287870951030   Change is   -0.000033565358296
 Root     14 :    14.613854550768090   Change is   -0.000017892675381
 Root     15 :    14.626888814163700   Change is   -0.000033360033138
 Root     16 :    14.813094542219130   Change is   -0.000026256181876
 Root     17 :    15.294691547790340   Change is   -0.000004159153443
 Root     18 :    15.565752419437650   Change is   -0.000036772629546
 Root     19 :    15.572253212087380   Change is   -0.000031744499054
 Root     20 :    15.797936411829380   Change is   -0.000208199041540
 Root     21 :    15.923240753540340   Change is   -0.000137926513948
 Root     22 :    16.185043049182990   Change is   -0.000000498079418
 Root     23 :    16.272370096662660   Change is   -0.000022861153154
 Root     24 :    16.285363983548530   Change is   -0.000006274472041
 Root     25 :    16.339715319592910   Change is   -0.000024024168209
 Root     26 :    16.387045337217130   Change is   -0.000045137481630
 Root     27 :    16.554477920241390   Change is   -0.000004701058433
 Root     28 :    17.117100413586640   Change is   -0.000019424455650
 Root     29 :    17.390743274026230   Change is   -0.000040079203215
 Root     30 :    17.479385349233150   Change is   -0.000017489643255
 Convergence achieved on expansion vectors.
 ***********************************************************************
 Excited states from <AA,BB:AA,BB> singles matrix:
 ***********************************************************************
 
 1PDM for each excited state written to RWF  633
 Ground to excited state transition densities written to RWF  633
 Ground to excited state transition electric dipole moments (Au):
       state          X           Y           Z        Dip. S.      Osc.
         1         0.0000     -0.0000     -0.0000      0.0000      0.0000
         2         0.0000      0.8153      0.0000      0.6648      0.0930
         3        -0.0000     -0.3860      0.0000      0.1490      0.0238
         4         0.0000     -0.0000     -0.4740      0.2247      0.0366
         5        -0.0000     -0.0000      0.0000      0.0000      0.0000
         6         0.0000      0.9560      0.0000      0.9139      0.2188
         7        -0.0000      0.7537      0.0000      0.5680      0.1393
         8        -0.0000      0.0000     -0.0062      0.0000      0.0000
         9         0.0000     -0.0000     -0.0000      0.0000      0.0000
        10         0.0000      0.0000     -0.8860      0.7849      0.2337
        11        -0.0000     -0.3592     -0.0000      0.1290      0.0386
        12        -0.1283     -0.0000      0.0000      0.0165      0.0055
        13        -0.0000     -0.0000     -0.0240      0.0006      0.0002
        14         0.0000     -0.3297     -0.0000      0.1087      0.0389
        15         0.0000      0.0000     -0.5181      0.2684      0.0962
        16         0.0000      0.2558      0.0000      0.0654      0.0238
        17        -0.4046      0.0000     -0.0000      0.1637      0.0613
        18        -0.0000      0.0000      0.4007      0.1605      0.0612
        19        -0.1714     -0.0000     -0.0000      0.0294      0.0112
        20         0.6055     -0.0000     -0.0000      0.3666      0.1419
        21         0.0000     -0.0000      0.1555      0.0242      0.0094
        22        -0.0000     -0.0000     -0.0000      0.0000      0.0000
        23        -0.1819      0.0000     -0.0000      0.0331      0.0132
        24         0.0000      0.0000     -0.0000      0.0000      0.0000
        25        -0.0000     -0.1041      0.0000      0.0108      0.0043
        26         0.0000     -0.0000     -0.5387      0.2902      0.1165
        27        -0.0000     -0.3812      0.0000      0.1453      0.0589
        28         0.0000      0.0000      0.1842      0.0339      0.0142
        29         0.0000      0.0000      0.2705      0.0732      0.0312
        30         0.0000     -0.1097      0.0000      0.0120      0.0052
 Ground to excited state transition velocity dipole moments (Au):
       state          X           Y           Z        Dip. S.      Osc.
         1        -0.0000     -0.0000      0.0000      0.0000      0.0000
         2        -0.0000     -0.1656      0.0000      0.0274      0.0871
         3         0.0000      0.0931      0.0000      0.0087      0.0242
         4        -0.0000     -0.0000      0.1102      0.0121      0.0331
         5         0.0000      0.0000     -0.0000      0.0000      0.0000
         6        -0.0000     -0.3571     -0.0000      0.1275      0.2367
         7        -0.0000     -0.2480     -0.0000      0.0615      0.1114
         8         0.0000      0.0000      0.0024      0.0000      0.0000
         9         0.0000      0.0000      0.0000      0.0000      0.0000
        10        -0.0000     -0.0000      0.3945      0.1557      0.2323
        11         0.0000      0.1630      0.0000      0.0266      0.0394
        12         0.0532      0.0000     -0.0000      0.0028      0.0037
        13         0.0000      0.0000      0.0118      0.0001      0.0002
        14        -0.0000      0.1794      0.0000      0.0322      0.0400
        15        -0.0000     -0.0000      0.2798      0.0783      0.0971
        16        -0.0000     -0.1212      0.0000      0.0147      0.0180
        17         0.2321     -0.0000      0.0000      0.0539      0.0639
        18         0.0000     -0.0000     -0.2247      0.0505      0.0588
        19         0.1005      0.0000      0.0000      0.0101      0.0118
        20        -0.3501      0.0000      0.0000      0.1226      0.1407
        21        -0.0000      0.0000     -0.0877      0.0077      0.0088
        22         0.0000      0.0000      0.0000      0.0000      0.0000
        23         0.1172     -0.0000      0.0000      0.0137      0.0153
        24        -0.0000     -0.0000      0.0000      0.0000      0.0000
        25         0.0000      0.0673     -0.0000      0.0045      0.0050
        26        -0.0000      0.0000      0.3149      0.0992      0.1098
        27         0.0000      0.2318     -0.0000      0.0537      0.0589
        28        -0.0000     -0.0000     -0.1195      0.0143      0.0151
        29        -0.0000     -0.0000     -0.1729      0.0299      0.0312
        30        -0.0000      0.0730     -0.0000      0.0053      0.0055
 Ground to excited state transition magnetic dipole moments (Au):
       state          X           Y           Z
         1         0.0000     -0.0000      1.1871
         2        -0.4362     -0.0000      0.0000
         3        -0.7949      0.0000      0.0000
         4        -0.0000     -0.0000     -0.0000
         5        -0.0000     -0.0000      0.6144
         6        -0.3595     -0.0000      0.0000
         7        -1.2335      0.0000     -0.0000
         8        -0.0000     -0.0000      0.0000
         9         0.0000      0.0000      0.1934
        10        -0.0000      0.0000      0.0000
        11        -0.3365      0.0000     -0.0000
        12        -0.0000     -0.8390      0.0000
        13        -0.0000     -0.0000      0.0000
        14        -0.4452     -0.0000      0.0000
        15         0.0000      0.0000      0.0000
        16        -1.3054     -0.0000     -0.0000
        17         0.0000     -0.1081     -0.0000
        18         0.0000     -0.0000      0.0000
        19         0.0000     -1.0311     -0.0000
        20         0.0000     -0.4315     -0.0000
        21         0.0000     -0.0000     -0.0000
        22         0.0000     -0.0000     -0.0612
        23        -0.0000     -0.0641     -0.0000
        24        -0.0000      0.0000     -0.2625
        25         0.0492      0.0000     -0.0000
        26         0.0000      0.0000      0.0000
        27         0.1867     -0.0000     -0.0000
        28         0.0000      0.0000     -0.0000
        29        -0.0000     -0.0000      0.0000
        30         0.0166      0.0000     -0.0000
 Ground to excited state transition velocity quadrupole moments (Au):
       state          XX          YY          ZZ          XY          XZ          YZ
         1        -0.0000     -0.0000     -0.0000     -0.2782     -0.0000     -0.0000
         2        -0.0000     -0.0000      0.0000      0.0000     -0.0000      0.4898
         3         0.0000     -0.0000      0.0000      0.0000      0.0000     -0.3128
         4        -0.2064     -0.6854     -0.1743      0.0000     -0.0000     -0.0000
         5         0.0000     -0.0000      0.0000      0.0702     -0.0000      0.0000
         6         0.0000      0.0000     -0.0000     -0.0000     -0.0000      0.9399
         7        -0.0000      0.0000      0.0000      0.0000      0.0000      0.2520
         8         0.1957      0.6282      0.6142      0.0000     -0.0000      0.0000
         9        -0.0000     -0.0000     -0.0000      0.2233      0.0000     -0.0000
        10         0.0659     -0.7963     -0.8019     -0.0000      0.0000      0.0000
        11        -0.0000     -0.0000     -0.0000     -0.0000     -0.0000      0.0194
        12        -0.0000     -0.0000     -0.0000      0.0000     -0.3521     -0.0000
        13         0.2288      0.4451      0.5025     -0.0000     -0.0000      0.0000
        14        -0.0000      0.0000     -0.0000     -0.0000      0.0000      0.1899
        15         0.0642      0.0596      0.0091      0.0000      0.0000     -0.0000
        16        -0.0000     -0.0000      0.0000      0.0000     -0.0000      0.1764
        17         0.0000     -0.0000      0.0000      0.0000     -0.0652      0.0000
        18         0.4950      0.7144      0.3663      0.0000     -0.0000      0.0000
        19        -0.0000     -0.0000     -0.0000     -0.0000     -0.8521     -0.0000
        20        -0.0000     -0.0000     -0.0000      0.0000     -0.0426     -0.0000
        21         0.5410      0.1879     -0.4676      0.0000     -0.0000     -0.0000
        22        -0.0000     -0.0000      0.0000      0.3260     -0.0000     -0.0000
        23        -0.0000     -0.0000     -0.0000      0.0000      0.0718      0.0000
        24        -0.0000      0.0000      0.0000      0.1947     -0.0000      0.0000
        25         0.0000      0.0000      0.0000      0.0000      0.0000     -0.2561
        26        -0.3736     -0.2218     -1.1161      0.0000     -0.0000     -0.0000
        27         0.0000      0.0000      0.0000     -0.0000      0.0000     -0.1683
        28        -0.2592      0.4302      0.2312      0.0000      0.0000     -0.0000
        29        -0.0009      0.6274     -0.0700     -0.0000     -0.0000     -0.0000
        30         0.0000      0.0000     -0.0000     -0.0000     -0.0000      0.3430
 <0|del|b> * <b|rxdel|0> + <0|del|b> * <b|delr+rdel|0>
 Rotatory Strengths (R) in cgs (10**-40 erg-esu-cm/Gauss)
       state          XX          YY          ZZ    R(velocity)    E-M Angle
         1         0.0000      0.0000      0.0000      0.0000       90.00
         2        -0.0000     -0.0000      0.0000      0.0000       90.00
         3        -0.0000     -0.0000     -0.0000     -0.0000       90.00
         4        -0.0000     -0.0000      0.0000     -0.0000       90.00
         5        -0.0000     -0.0000     -0.0000     -0.0000       90.00
         6        -0.0000     -0.0000      0.0000      0.0000       90.00
         7         0.0000      0.0000     -0.0000     -0.0000       90.00
         8         0.0000     -0.0000     -0.0000      0.0000       90.00
         9         0.0000     -0.0000      0.0000      0.0000       90.00
        10         0.0000      0.0000     -0.0000      0.0000       90.00
        11         0.0000     -0.0000     -0.0000     -0.0000       90.00
        12        -0.0000     -0.0000     -0.0000     -0.0000       90.00
        13        -0.0000      0.0000     -0.0000      0.0000       90.00
        14        -0.0000      0.0000      0.0000      0.0000       90.00
        15         0.0000      0.0000     -0.0000      0.0000       90.00
        16        -0.0000      0.0000      0.0000      0.0000       90.00
        17         0.0000      0.0000      0.0000      0.0000       90.00
        18        -0.0000     -0.0000      0.0000     -0.0000       90.00
        19        -0.0000      0.0000     -0.0000     -0.0000       90.00
        20        -0.0000      0.0000     -0.0000     -0.0000       90.00
        21        -0.0000      0.0000     -0.0000      0.0000       90.00
        22         0.0000     -0.0000      0.0000     -0.0000       90.00
        23         0.0000      0.0000     -0.0000     -0.0000       90.00
        24        -0.0000     -0.0000      0.0000     -0.0000       90.00
        25        -0.0000     -0.0000      0.0000      0.0000       90.00
        26         0.0000     -0.0000     -0.0000      0.0000       90.00
        27        -0.0000      0.0000      0.0000     -0.0000       90.00
        28         0.0000      0.0000     -0.0000      0.0000       90.00
        29        -0.0000     -0.0000      0.0000     -0.0000       90.00
        30         0.0000     -0.0000      0.0000     -0.0000       90.00
 1/2[<0|r|b>*<b|rxdel|0> + (<0|rxdel|b>*<b|r|0>)*]
 Rotatory Strengths (R) in cgs (10**-40 erg-esu-cm/Gauss)
       state          XX          YY          ZZ     R(length)
         1        -0.0000     -0.0000      0.0000      0.0000
         2         0.0000      0.0000     -0.0000      0.0000
         3        -0.0000      0.0000     -0.0000      0.0000
         4         0.0000     -0.0000     -0.0000     -0.0000
         5        -0.0000     -0.0000     -0.0000     -0.0000
         6         0.0000      0.0000     -0.0000      0.0000
         7        -0.0000     -0.0000      0.0000     -0.0000
         8        -0.0000      0.0000      0.0000      0.0000
         9        -0.0000      0.0000      0.0000      0.0000
        10         0.0000     -0.0000      0.0000      0.0000
        11        -0.0000      0.0000     -0.0000     -0.0000
        12        -0.0000     -0.0000     -0.0000     -0.0000
        13        -0.0000     -0.0000      0.0000      0.0000
        14         0.0000     -0.0000      0.0000     -0.0000
        15        -0.0000     -0.0000      0.0000      0.0000
        16         0.0000      0.0000      0.0000      0.0000
        17         0.0000      0.0000     -0.0000      0.0000
        18         0.0000      0.0000     -0.0000     -0.0000
        19         0.0000     -0.0000     -0.0000     -0.0000
        20        -0.0000     -0.0000     -0.0000     -0.0000
        21        -0.0000     -0.0000      0.0000      0.0000
        22         0.0000     -0.0000     -0.0000     -0.0000
        23        -0.0000      0.0000     -0.0000     -0.0000
        24         0.0000     -0.0000     -0.0000     -0.0000
        25         0.0000      0.0000      0.0000      0.0000
        26        -0.0000      0.0000      0.0000      0.0000
        27         0.0000     -0.0000      0.0000      0.0000
        28        -0.0000     -0.0000      0.0000      0.0000
        29         0.0000      0.0000     -0.0000     -0.0000
        30        -0.0000      0.0000      0.0000      0.0000
  1/2[<0|del|b>*<b|r|0> + (<0|r|b>*<b|del|0>)*] (Au)
       state          X           Y           Z        Dip. S.   Osc.(frdel)
         1        -0.0000      0.0000     -0.0000      0.0000      0.0000
         2        -0.0000     -0.1350      0.0000      0.1350      0.0900
         3        -0.0000     -0.0360      0.0000      0.0360      0.0240
         4        -0.0000      0.0000     -0.0522      0.0522      0.0348
         5        -0.0000     -0.0000     -0.0000      0.0000      0.0000
         6        -0.0000     -0.3414     -0.0000      0.3414      0.2276
         7         0.0000     -0.1869     -0.0000      0.1869      0.1246
         8        -0.0000      0.0000     -0.0000      0.0000      0.0000
         9         0.0000     -0.0000     -0.0000      0.0000      0.0000
        10        -0.0000     -0.0000     -0.3495      0.3495      0.2330
        11        -0.0000     -0.0585     -0.0000      0.0585      0.0390
        12        -0.0068     -0.0000     -0.0000      0.0068      0.0045
        13        -0.0000     -0.0000     -0.0003      0.0003      0.0002
        14        -0.0000     -0.0592     -0.0000      0.0592      0.0394
        15        -0.0000     -0.0000     -0.1449      0.1449      0.0966
        16        -0.0000     -0.0310      0.0000      0.0310      0.0207
        17        -0.0939     -0.0000     -0.0000      0.0939      0.0626
        18        -0.0000     -0.0000     -0.0900      0.0900      0.0600
        19        -0.0172     -0.0000     -0.0000      0.0172      0.0115
        20        -0.2120     -0.0000     -0.0000      0.2120      0.1413
        21        -0.0000     -0.0000     -0.0136      0.0136      0.0091
        22        -0.0000     -0.0000     -0.0000      0.0000      0.0000
        23        -0.0213     -0.0000     -0.0000      0.0213      0.0142
        24        -0.0000     -0.0000     -0.0000      0.0000      0.0000
        25        -0.0000     -0.0070     -0.0000      0.0070      0.0047
        26        -0.0000     -0.0000     -0.1697      0.1697      0.1131
        27        -0.0000     -0.0883     -0.0000      0.0883      0.0589
        28        -0.0000     -0.0000     -0.0220      0.0220      0.0147
        29        -0.0000     -0.0000     -0.0468      0.0468      0.0312
        30        -0.0000     -0.0080     -0.0000      0.0080      0.0053

 Excitation energies and oscillator strengths:
 
 Excited State   1:      Singlet-A2     5.5688 eV  222.64 nm  f=0.0000  <S**2>=0.000
       3 -> 27         0.00265
       3 -> 35         0.00201
       3 -> 46         0.00101
       4 -> 10         0.00540
       4 -> 13         0.00764
       4 -> 17         0.00581
       4 -> 22        -0.00343
       4 -> 28         0.00286
       4 -> 32         0.00139
       4 -> 37         0.00311
       4 -> 43         0.00044
       4 -> 52         0.00062
       5 -> 11        -0.00052
       5 -> 16        -0.00065
       5 -> 18        -0.00041
       5 -> 23         0.00163
       5 -> 24         0.00027
       5 -> 29        -0.00026
       5 -> 33         0.00023
       5 -> 36         0.00050
       5 -> 42         0.00049
       5 -> 47         0.00061
       5 -> 50        -0.00018
       5 -> 53         0.00023
       6 -> 27         0.00360
       6 -> 35        -0.00066
       6 -> 46        -0.00056
       7 -> 27         0.00098
       7 -> 35        -0.00017
       7 -> 46         0.00098
       8 -> 10         0.69771
       8 -> 13         0.11050
       8 -> 17         0.03076
       8 -> 22        -0.00502
       8 -> 28         0.00449
       8 -> 32         0.00334
       8 -> 37        -0.00241
       8 -> 43        -0.00014
       8 -> 52         0.00079
       3 <- 27         0.00200
       3 <- 35         0.00173
       3 <- 46         0.00103
       4 <- 10         0.00023
       4 <- 13         0.00114
       4 <- 17         0.00025
       4 <- 22         0.00014
       4 <- 32        -0.00103
       4 <- 37         0.00146
       4 <- 43         0.00042
       4 <- 52         0.00015
       5 <- 11        -0.00089
       5 <- 16         0.00132
       5 <- 18        -0.00288
       5 <- 23         0.00380
       5 <- 24        -0.00170
       5 <- 29         0.00159
       5 <- 33        -0.00073
       5 <- 36         0.00167
       5 <- 40        -0.00011
       5 <- 42         0.00077
       5 <- 47         0.00049
       5 <- 53         0.00061
       6 <- 27         0.00394
       6 <- 35        -0.00054
       6 <- 46        -0.00056
       7 <- 27         0.00101
       7 <- 35        -0.00024
       7 <- 46         0.00081
       8 <- 10        -0.00596
       8 <- 13        -0.00860
       8 <- 17        -0.00446
       8 <- 22         0.00039
       8 <- 28        -0.00038
       8 <- 32         0.00293
       8 <- 37        -0.00218
       8 <- 52         0.00025
 This state for optimization and/or second-order correction.
 Total Energy, E(TD-HF/TD-DFT) =  -113.870818715    
 Copying the excited state density for this state as the 1-particle RhoCI density.
 
 Excited State   2:      Singlet-B2     5.7116 eV  217.08 nm  f=0.0930  <S**2>=0.000
       3 -> 11         0.00085
       3 -> 16         0.00032
       3 -> 18         0.00095
       3 -> 24         0.00110
       3 -> 29        -0.00020
       3 -> 42         0.00016
       3 -> 50        -0.00015
       4 ->  9         0.00208
       4 -> 12         0.00602
       4 -> 14         0.00497
       4 -> 15         0.00162
       4 -> 19         0.00370
       4 -> 20         0.00139
       4 -> 21         0.00259
       4 -> 25         0.00133
       4 -> 26        -0.00105
       4 -> 30        -0.00200
       4 -> 31         0.00049
       4 -> 34         0.00042
       4 -> 38        -0.00081
       4 -> 39         0.00011
       4 -> 41         0.00047
       4 -> 44         0.00042
       4 -> 45        -0.00059
       4 -> 48         0.00038
       5 -> 27         0.00116
       5 -> 35         0.00035
       5 -> 46         0.00087
       6 -> 11        -0.00665
       6 -> 16         0.00134
       6 -> 18         0.00099
       6 -> 23        -0.00225
       6 -> 24         0.00411
       6 -> 29        -0.00069
       6 -> 33        -0.00104
       6 -> 36         0.00086
       6 -> 40        -0.00014
       6 -> 42         0.00044
       7 -> 11         0.00273
       7 -> 16         0.00355
       7 -> 18         0.00344
       7 -> 23        -0.00193
       7 -> 24         0.00251
       7 -> 29         0.00016
       7 -> 36        -0.00026
       7 -> 42        -0.00037
       7 -> 47         0.00042
       7 -> 50         0.00048
       7 -> 53        -0.00010
       8 ->  9         0.70622
       8 -> 12         0.00931
       8 -> 14        -0.02440
       8 -> 15         0.01121
       8 -> 19         0.02061
       8 -> 20        -0.00742
       8 -> 21        -0.00831
       8 -> 25         0.00061
       8 -> 26        -0.00043
       8 -> 30         0.00014
       8 -> 31         0.00302
       8 -> 34         0.00145
       8 -> 38         0.00093
       8 -> 39        -0.00050
       8 -> 41        -0.00048
       8 -> 44        -0.00014
       8 -> 45        -0.00107
       8 -> 48         0.00036
       8 -> 54        -0.00013
       3 <- 11         0.00029
       3 <- 18         0.00059
       3 <- 24         0.00081
       3 <- 29        -0.00019
       3 <- 42         0.00013
       3 <- 53         0.00011
       4 <-  9         0.00195
       4 <- 12        -0.00014
       4 <- 14         0.00396
       4 <- 15         0.00180
       4 <- 19         0.00093
       4 <- 20         0.00054
       4 <- 21         0.00167
       4 <- 25         0.00162
       4 <- 26        -0.00125
       4 <- 30        -0.00073
       4 <- 34         0.00020
       4 <- 38        -0.00052
       4 <- 39         0.00016
       4 <- 41         0.00045
       4 <- 44         0.00029
       4 <- 45        -0.00053
       4 <- 48         0.00032
       5 <- 27         0.00091
       5 <- 35         0.00027
       5 <- 46         0.00074
       6 <- 11        -0.00027
       6 <- 16         0.00134
       6 <- 18         0.00216
       6 <- 23        -0.00129
       6 <- 24         0.00318
       6 <- 29        -0.00056
       6 <- 33        -0.00080
       6 <- 36         0.00066
       6 <- 40        -0.00017
       6 <- 42         0.00021
       7 <- 11         0.00072
       7 <- 16         0.00219
       7 <- 18         0.00111
       7 <- 23        -0.00078
       7 <- 24         0.00119
       7 <- 29         0.00079
       7 <- 42        -0.00032
       7 <- 47         0.00040
       7 <- 50         0.00054
       8 <-  9        -0.00488
       8 <- 12         0.00255
       8 <- 14        -0.01404
       8 <- 15        -0.00268
       8 <- 19        -0.00120
       8 <- 20         0.00020
       8 <- 21        -0.00438
       8 <- 25        -0.00314
       8 <- 26        -0.00064
       8 <- 30         0.00048
       8 <- 31         0.00166
       8 <- 34         0.00153
       8 <- 38         0.00091
       8 <- 39        -0.00041
       8 <- 41        -0.00033
       8 <- 44        -0.00022
       8 <- 45        -0.00079
       8 <- 48         0.00032
 
 Excited State   3:      Singlet-B2     6.5124 eV  190.38 nm  f=0.0238  <S**2>=0.000
       3 -> 11         0.00011
       3 -> 16        -0.00062
       3 -> 18         0.00011
       3 -> 23        -0.00020
       3 -> 24        -0.00044
       3 -> 29        -0.00085
       3 -> 33        -0.00014
       3 -> 36         0.00028
       3 -> 42         0.00029
       3 -> 47        -0.00019
       3 -> 50        -0.00020
       3 -> 53         0.00011
       4 ->  9         0.00443
       4 -> 12        -0.00012
       4 -> 14        -0.00257
       4 -> 15        -0.00423
       4 -> 19         0.00295
       4 -> 20        -0.00040
       4 -> 21        -0.00142
       4 -> 25        -0.00089
       4 -> 26        -0.00116
       4 -> 30         0.00076
       4 -> 31         0.00220
       4 -> 34         0.00036
       4 -> 39         0.00083
       4 -> 41         0.00061
       4 -> 45        -0.00061
       4 -> 48         0.00039
       4 -> 51         0.00019
       5 -> 27         0.00090
       5 -> 35         0.00134
       5 -> 46         0.00099
       6 -> 11        -0.00245
       6 -> 16        -0.00471
       6 -> 18        -0.00109
       6 -> 23         0.00127
       6 -> 24        -0.00375
       6 -> 29         0.00131
       6 -> 33        -0.00055
       6 -> 40         0.00027
       6 -> 47        -0.00012
       7 -> 11         0.00288
       7 -> 16         0.00041
       7 -> 18         0.00237
       7 -> 23        -0.00126
       7 -> 24         0.00057
       7 -> 29         0.00012
       7 -> 33         0.00023
       7 -> 36        -0.00114
       7 -> 40         0.00030
       7 -> 42        -0.00060
       7 -> 47         0.00066
       7 -> 50         0.00055
       7 -> 53        -0.00017
       8 ->  9        -0.00951
       8 -> 12         0.70599
       8 -> 14         0.01924
       8 -> 15         0.02443
       8 -> 19         0.01577
       8 -> 20         0.01534
       8 -> 21         0.00340
       8 -> 25        -0.00044
       8 -> 26         0.00064
       8 -> 30        -0.00181
       8 -> 31        -0.00061
       8 -> 34        -0.00036
       8 -> 38         0.00013
       8 -> 39         0.00090
       8 -> 41         0.00117
       8 -> 44        -0.00011
       8 -> 45        -0.00068
       8 -> 48         0.00053
       8 -> 54        -0.00016
       3 <- 11        -0.00020
       3 <- 16        -0.00060
       3 <- 18        -0.00016
       3 <- 24        -0.00049
       3 <- 29        -0.00057
       3 <- 33        -0.00016
       3 <- 36         0.00030
       3 <- 42         0.00025
       3 <- 47        -0.00015
       3 <- 50        -0.00010
       3 <- 53         0.00021
       4 <-  9        -0.00136
       4 <- 12        -0.00016
       4 <- 14        -0.00174
       4 <- 15        -0.00061
       4 <- 19        -0.00064
       4 <- 20         0.00034
       4 <- 21        -0.00102
       4 <- 25        -0.00092
       4 <- 26        -0.00094
       4 <- 30         0.00089
       4 <- 31         0.00091
       4 <- 34         0.00090
       4 <- 39         0.00062
       4 <- 41         0.00061
       4 <- 45        -0.00064
       4 <- 48         0.00026
       4 <- 51         0.00018
       5 <- 27         0.00045
       5 <- 35         0.00111
       5 <- 46         0.00086
       6 <- 11        -0.00020
       6 <- 16        -0.00095
       6 <- 18        -0.00105
       6 <- 23         0.00123
       6 <- 24        -0.00193
       6 <- 29         0.00060
       6 <- 33        -0.00058
       6 <- 36        -0.00024
       6 <- 40         0.00027
       6 <- 50        -0.00018
       7 <- 11         0.00038
       7 <- 16         0.00045
       7 <- 18         0.00020
       7 <- 23        -0.00024
       7 <- 29         0.00043
       7 <- 36        -0.00078
       7 <- 40         0.00024
       7 <- 42        -0.00042
       7 <- 47         0.00058
       7 <- 50         0.00053
       8 <-  9         0.00237
       8 <- 12         0.00139
       8 <- 14         0.00733
       8 <- 15         0.00191
       8 <- 19        -0.00178
       8 <- 20        -0.00218
       8 <- 21         0.00285
       8 <- 25         0.00049
       8 <- 26        -0.00068
       8 <- 30        -0.00130
       8 <- 31        -0.00112
       8 <- 38         0.00029
       8 <- 39         0.00066
       8 <- 41         0.00099
       8 <- 45        -0.00058
       8 <- 48         0.00033
       8 <- 51         0.00011
 
 Excited State   4:      Singlet-A1     6.6506 eV  186.42 nm  f=0.0366  <S**2>=0.000
       3 ->  9         0.00127
       3 -> 12         0.00075
       3 -> 15         0.00060
       3 -> 19         0.00134
       3 -> 20        -0.00024
       3 -> 21        -0.00038
       3 -> 25         0.00030
       3 -> 30        -0.00102
       3 -> 31        -0.00019
       3 -> 34        -0.00023
       3 -> 38        -0.00033
       3 -> 39        -0.00027
       3 -> 41        -0.00010
       3 -> 48        -0.00013
       3 -> 51        -0.00027
       3 -> 54         0.00020
       4 -> 11         0.00731
       4 -> 16         0.00816
       4 -> 18         0.00611
       4 -> 23         0.00110
       4 -> 24         0.00392
       4 -> 29         0.00070
       4 -> 33        -0.00015
       4 -> 36         0.00097
       4 -> 42        -0.00025
       4 -> 50        -0.00035
       4 -> 53        -0.00012
       5 -> 10         0.00672
       5 -> 13        -0.00290
       5 -> 17         0.00503
       5 -> 22         0.00386
       5 -> 28         0.00083
       5 -> 32         0.00091
       5 -> 37         0.00054
       5 -> 43         0.00043
       5 -> 49        -0.00036
       6 ->  9         0.00579
       6 -> 12        -0.01084
       6 -> 14         0.00619
       6 -> 15         0.00259
       6 -> 19         0.00140
       6 -> 20        -0.00682
       6 -> 21         0.00171
       6 -> 25         0.00678
       6 -> 26        -0.00097
       6 -> 30         0.00088
       6 -> 31        -0.00085
       6 -> 34        -0.00112
       6 -> 38        -0.00040
       6 -> 39         0.00099
       6 -> 41         0.00010
       6 -> 44         0.00021
       6 -> 45        -0.00030
       6 -> 48        -0.00031
       7 ->  9         0.01287
       7 -> 12         0.00559
       7 -> 14         0.00234
       7 -> 15        -0.00104
       7 -> 19         0.00832
       7 -> 20        -0.00229
       7 -> 21         0.00063
       7 -> 25         0.00179
       7 -> 26         0.00027
       7 -> 30        -0.00034
       7 -> 31         0.00071
       7 -> 34        -0.00097
       7 -> 38        -0.00012
       7 -> 39         0.00023
       7 -> 48        -0.00022
       7 -> 51         0.00039
       8 -> 11         0.70538
       8 -> 16         0.04371
       8 -> 18        -0.00646
       8 -> 23         0.00275
       8 -> 24         0.00187
       8 -> 29         0.00364
       8 -> 33         0.00159
       8 -> 36        -0.00265
       8 -> 40         0.00016
       8 -> 42         0.00151
       8 -> 47        -0.00051
       8 -> 53        -0.00010
       3 <-  9         0.00057
       3 <- 12         0.00031
       3 <- 15         0.00031
       3 <- 19         0.00077
       3 <- 21        -0.00016
       3 <- 25         0.00032
       3 <- 30        -0.00061
       3 <- 31        -0.00017
       3 <- 34        -0.00019
       3 <- 38        -0.00024
       3 <- 39        -0.00024
       3 <- 41        -0.00012
       3 <- 48        -0.00015
       3 <- 51        -0.00023
       3 <- 54         0.00018
       4 <- 11         0.00260
       4 <- 16         0.00265
       4 <- 18         0.00313
       4 <- 23         0.00098
       4 <- 24         0.00211
       4 <- 29         0.00027
       4 <- 33        -0.00027
       4 <- 36         0.00084
       4 <- 42        -0.00022
       4 <- 50        -0.00028
       4 <- 53        -0.00011
       5 <- 10         0.00266
       5 <- 13        -0.00125
       5 <- 17         0.00245
       5 <- 22         0.00237
       5 <- 28         0.00053
       5 <- 32         0.00070
       5 <- 37         0.00045
       5 <- 43         0.00037
       5 <- 49        -0.00032
       6 <-  9         0.00603
       6 <- 12        -0.00410
       6 <- 14         0.00468
       6 <- 15         0.00237
       6 <- 19         0.00099
       6 <- 20        -0.00384
       6 <- 21         0.00036
       6 <- 25         0.00420
       6 <- 26        -0.00045
       6 <- 30         0.00022
       6 <- 31        -0.00104
       6 <- 34        -0.00090
       6 <- 38        -0.00050
       6 <- 39         0.00080
       6 <- 44         0.00027
       6 <- 45        -0.00026
       6 <- 48        -0.00025
       7 <-  9         0.00454
       7 <- 12         0.00149
       7 <- 14         0.00112
       7 <- 15        -0.00040
       7 <- 19         0.00370
       7 <- 20        -0.00141
       7 <- 21         0.00014
       7 <- 25         0.00110
       7 <- 30        -0.00036
       7 <- 31         0.00045
       7 <- 34        -0.00067
       7 <- 38        -0.00016
       7 <- 39         0.00030
       7 <- 45        -0.00013
       7 <- 48        -0.00011
       7 <- 51         0.00036
       8 <- 11        -0.00431
       8 <- 16         0.00508
       8 <- 18        -0.01175
       8 <- 23        -0.00141
       8 <- 24        -0.00165
       8 <- 29         0.00199
       8 <- 33         0.00125
       8 <- 36        -0.00193
       8 <- 42         0.00121
       8 <- 47        -0.00056
       8 <- 53        -0.00012
 
 Excited State   5:      Singlet-A2     7.5985 eV  163.17 nm  f=0.0000  <S**2>=0.000
       3 -> 27         0.00207
       3 -> 35         0.00165
       3 -> 46         0.00077
       4 -> 10         0.00695
       4 -> 13         0.00937
       4 -> 17        -0.00129
       4 -> 22        -0.00208
       4 -> 28         0.00049
       4 -> 32         0.00220
       4 -> 37         0.00281
       4 -> 43         0.00032
       4 -> 49        -0.00010
       4 -> 52         0.00046
       5 -> 11         0.00012
       5 -> 16        -0.00185
       5 -> 18        -0.00034
       5 -> 23         0.00151
       5 -> 29        -0.00038
       5 -> 33         0.00011
       5 -> 36         0.00043
       5 -> 42         0.00045
       5 -> 47         0.00044
       5 -> 53         0.00019
       6 -> 27         0.00146
       6 -> 35        -0.00080
       6 -> 46        -0.00026
       7 -> 27         0.00038
       7 -> 35        -0.00017
       7 -> 46         0.00082
       8 -> 10        -0.11133
       8 -> 13         0.69769
       8 -> 17         0.01319
       8 -> 22        -0.02380
       8 -> 28         0.00245
       8 -> 32         0.00189
       8 -> 37        -0.00156
       8 -> 43        -0.00017
       8 -> 49        -0.00013
       8 -> 52         0.00051
       3 <- 27         0.00131
       3 <- 35         0.00136
       3 <- 46         0.00087
       4 <- 10         0.00033
       4 <- 13         0.00048
       4 <- 17        -0.00039
       4 <- 32        -0.00041
       4 <- 37         0.00096
       4 <- 43         0.00029
       4 <- 52         0.00014
       5 <- 11         0.00036
       5 <- 16        -0.00043
       5 <- 18        -0.00090
       5 <- 23         0.00279
       5 <- 24        -0.00084
       5 <- 29         0.00019
       5 <- 33        -0.00077
       5 <- 36         0.00146
       5 <- 42         0.00080
       5 <- 47         0.00021
       5 <- 53         0.00042
       6 <- 27         0.00202
       6 <- 35        -0.00016
       6 <- 46        -0.00032
       7 <- 27         0.00058
       7 <- 35        -0.00027
       7 <- 46         0.00044
       8 <- 10        -0.00727
       8 <- 13        -0.00249
       8 <- 17        -0.00142
       8 <- 22         0.00061
       8 <- 28        -0.00031
       8 <- 32         0.00159
       8 <- 37        -0.00128
       8 <- 52         0.00020
 
 Excited State   6:      Singlet-B2     9.7733 eV  126.86 nm  f=0.2188  <S**2>=0.000
       3 -> 11        -0.00039
       3 -> 16         0.00117
       3 -> 18        -0.00084
       3 -> 23         0.00086
       3 -> 24         0.00045
       3 -> 29         0.00101
       3 -> 33        -0.00079
       3 -> 40         0.00043
       3 -> 42         0.00052
       3 -> 47         0.00029
       3 -> 50         0.00012
       4 ->  9         0.00756
       4 -> 12         0.00696
       4 -> 14         0.01898
       4 -> 15         0.00332
       4 -> 19         0.00374
       4 -> 20         0.01146
       4 -> 21         0.01202
       4 -> 25         0.00568
       4 -> 26        -0.00063
       4 -> 30         0.00180
       4 -> 31         0.00281
       4 -> 34         0.00175
       4 -> 38         0.00052
       4 -> 39        -0.00179
       4 -> 41         0.00027
       4 -> 45        -0.00021
       4 -> 51        -0.00020
       5 -> 27         0.00647
       5 -> 35         0.00036
       5 -> 46        -0.00033
       6 -> 11        -0.01473
       6 -> 16         0.00831
       6 -> 18        -0.00499
       6 -> 23        -0.01000
       6 -> 24         0.01209
       6 -> 29        -0.00032
       6 -> 33         0.00274
       6 -> 36        -0.00335
       6 -> 40        -0.00019
       6 -> 42         0.00206
       7 -> 11         0.00146
       7 -> 16         0.00767
       7 -> 18         0.00304
       7 -> 23        -0.00463
       7 -> 24         0.00541
       7 -> 29         0.00096
       7 -> 33         0.00138
       7 -> 36        -0.00089
       7 -> 40        -0.00023
       7 -> 42         0.00046
       7 -> 47        -0.00029
       8 ->  9         0.02620
       8 -> 12        -0.00738
       8 -> 14         0.64418
       8 -> 15        -0.28691
       8 -> 19         0.01334
       8 -> 20        -0.01777
       8 -> 21        -0.03830
       8 -> 25        -0.01250
       8 -> 26         0.00141
       8 -> 30         0.00093
       8 -> 31         0.00474
       8 -> 34         0.00267
       8 -> 38        -0.00128
       8 -> 39         0.00425
       8 -> 41        -0.00268
       8 -> 44         0.00052
       8 -> 45        -0.00097
       8 -> 48        -0.00074
       3 <- 11        -0.00017
       3 <- 16         0.00046
       3 <- 18        -0.00033
       3 <- 23         0.00047
       3 <- 24         0.00048
       3 <- 29         0.00047
       3 <- 33        -0.00048
       3 <- 40         0.00033
       3 <- 42         0.00045
       3 <- 47         0.00029
       4 <-  9         0.00255
       4 <- 12         0.00099
       4 <- 14         0.00807
       4 <- 15         0.00296
       4 <- 19         0.00139
       4 <- 20         0.00496
       4 <- 21         0.00626
       4 <- 25         0.00326
       4 <- 26        -0.00129
       4 <- 30         0.00116
       4 <- 31         0.00183
       4 <- 34         0.00027
       4 <- 38         0.00060
       4 <- 39        -0.00126
       4 <- 41         0.00017
       4 <- 48         0.00012
       5 <- 27         0.00446
       5 <- 46        -0.00048
       6 <- 11        -0.00327
       6 <- 16         0.00318
       6 <- 18         0.00022
       6 <- 23        -0.00613
       6 <- 24         0.00673
       6 <- 29        -0.00018
       6 <- 33         0.00110
       6 <- 36        -0.00225
       6 <- 40        -0.00031
       6 <- 42         0.00154
       6 <- 47        -0.00013
       7 <- 16         0.00272
       7 <- 18         0.00090
       7 <- 23        -0.00221
       7 <- 24         0.00259
       7 <- 29         0.00105
       7 <- 33         0.00084
       7 <- 36        -0.00054
       7 <- 40        -0.00027
       7 <- 42         0.00031
       7 <- 47        -0.00018
       7 <- 53         0.00013
       8 <-  9        -0.01288
       8 <- 12         0.00668
       8 <- 14        -0.02790
       8 <- 15        -0.00492
       8 <- 19         0.00153
       8 <- 20        -0.00352
       8 <- 21        -0.01932
       8 <- 25        -0.00601
       8 <- 30         0.00081
       8 <- 31         0.00214
       8 <- 34         0.00122
       8 <- 38        -0.00078
       8 <- 39         0.00268
       8 <- 41        -0.00189
       8 <- 44         0.00012
       8 <- 45        -0.00052
       8 <- 48        -0.00057
       8 <- 51         0.00013
 
 Excited State   7:      Singlet-B2    10.0106 eV  123.85 nm  f=0.1393  <S**2>=0.000
       3 -> 11        -0.00010
       3 -> 16         0.00088
       3 -> 18        -0.00070
       3 -> 23         0.00163
       3 -> 24         0.00029
       3 -> 29         0.00095
       3 -> 33        -0.00068
       3 -> 36         0.00050
       3 -> 40         0.00023
       3 -> 42         0.00058
       4 ->  9         0.00354
       4 -> 12        -0.00179
       4 -> 14         0.01102
       4 -> 15         0.01280
       4 -> 19         0.00235
       4 -> 20         0.00805
       4 -> 21         0.00534
       4 -> 25         0.00302
       4 -> 26        -0.00408
       4 -> 30         0.00082
       4 -> 31         0.00304
       4 -> 34         0.00032
       4 -> 38         0.00042
       4 -> 39        -0.00057
       4 -> 41        -0.00028
       4 -> 44         0.00065
       4 -> 45         0.00039
       4 -> 48        -0.00012
       4 -> 51         0.00017
       4 -> 54         0.00015
       5 -> 27         0.00436
       5 -> 35         0.00061
       5 -> 46        -0.00035
       6 -> 11        -0.01027
       6 -> 16         0.00189
       6 -> 18        -0.00149
       6 -> 23        -0.00929
       6 -> 24         0.00528
       6 -> 36        -0.00158
       6 -> 40         0.00021
       6 -> 42         0.00118
       6 -> 47         0.00017
       7 -> 11         0.00179
       7 -> 16         0.00456
       7 -> 18         0.00259
       7 -> 23        -0.00057
       7 -> 24         0.00391
       7 -> 29         0.00172
       7 -> 33         0.00052
       7 -> 36        -0.00021
       7 -> 40        -0.00026
       7 -> 42         0.00045
       7 -> 47        -0.00025
       7 -> 50        -0.00020
       8 ->  9        -0.00081
       8 -> 12        -0.03089
       8 -> 14         0.28507
       8 -> 15         0.64498
       8 -> 19         0.02612
       8 -> 20         0.00737
       8 -> 21        -0.03068
       8 -> 25         0.00118
       8 -> 26        -0.00631
       8 -> 31         0.00276
       8 -> 34         0.00120
       8 -> 38         0.00057
       8 -> 39         0.00229
       8 -> 41        -0.00157
       8 -> 44        -0.00036
       8 -> 45        -0.00044
       8 -> 48        -0.00031
       8 -> 54         0.00011
       3 <- 11        -0.00029
       3 <- 16         0.00065
       3 <- 18        -0.00076
       3 <- 23         0.00082
       3 <- 24        -0.00018
       3 <- 29         0.00087
       3 <- 33        -0.00051
       3 <- 36         0.00041
       3 <- 40         0.00017
       3 <- 42         0.00041
       4 <-  9         0.00201
       4 <- 12         0.00105
       4 <- 14         0.00493
       4 <- 15         0.00237
       4 <- 19         0.00195
       4 <- 20         0.00361
       4 <- 21         0.00307
       4 <- 25         0.00224
       4 <- 26        -0.00120
       4 <- 30         0.00087
       4 <- 31         0.00188
       4 <- 39        -0.00041
       4 <- 44         0.00025
       4 <- 45         0.00017
       5 <- 27         0.00270
       5 <- 35         0.00043
       5 <- 46        -0.00026
       6 <- 11        -0.00159
       6 <- 16         0.00199
       6 <- 18         0.00083
       6 <- 23        -0.00348
       6 <- 24         0.00414
       6 <- 33        -0.00052
       6 <- 36        -0.00131
       6 <- 42         0.00078
       6 <- 47         0.00012
       6 <- 50         0.00016
       7 <- 11         0.00057
       7 <- 16         0.00093
       7 <- 18         0.00162
       7 <- 23        -0.00087
       7 <- 24         0.00232
       7 <- 29         0.00022
       7 <- 33         0.00029
       7 <- 36        -0.00028
       7 <- 40        -0.00021
       7 <- 42         0.00035
       7 <- 47        -0.00029
       7 <- 50        -0.00031
       8 <-  9        -0.00886
       8 <- 12         0.00492
       8 <- 14        -0.01775
       8 <- 15        -0.00166
       8 <- 19         0.00109
       8 <- 20        -0.00324
       8 <- 21        -0.01028
       8 <- 25        -0.00415
       8 <- 26         0.00029
       8 <- 30        -0.00055
       8 <- 31         0.00153
       8 <- 34         0.00070
       8 <- 38         0.00066
       8 <- 39         0.00145
       8 <- 41        -0.00117
       8 <- 44        -0.00025
       8 <- 45        -0.00025
       8 <- 48        -0.00032
 
 Excited State   8:      Singlet-A1    10.8311 eV  114.47 nm  f=0.0000  <S**2>=0.000
       3 ->  9        -0.00021
       3 -> 12        -0.00092
       3 -> 14         0.00124
       3 -> 15        -0.00144
       3 -> 19        -0.00130
       3 -> 20        -0.00137
       3 -> 21         0.00174
       3 -> 25        -0.00137
       3 -> 30        -0.00052
       3 -> 31        -0.00073
       3 -> 34         0.00246
       3 -> 38        -0.00048
       3 -> 39        -0.00035
       3 -> 41         0.00094
       3 -> 44        -0.00018
       3 -> 45        -0.00099
       3 -> 48        -0.00060
       3 -> 51        -0.00059
       3 -> 54         0.00035
       4 -> 11        -0.00302
       4 -> 16        -0.00259
       4 -> 18        -0.00282
       4 -> 23        -0.00409
       4 -> 24        -0.00279
       4 -> 29        -0.00197
       4 -> 33        -0.00081
       4 -> 36        -0.00052
       4 -> 40         0.00023
       4 -> 42         0.00128
       4 -> 47        -0.00062
       4 -> 50        -0.00077
       4 -> 53        -0.00034
       5 -> 10        -0.02650
       5 -> 13        -0.00101
       5 -> 17        -0.01660
       5 -> 22        -0.00210
       5 -> 28        -0.00790
       5 -> 32        -0.00033
       5 -> 37         0.00051
       5 -> 43         0.00039
       5 -> 49        -0.00134
       5 -> 52        -0.00090
       6 ->  9        -0.01284
       6 -> 12         0.00265
       6 -> 14        -0.00180
       6 -> 15        -0.00873
       6 -> 19        -0.00313
       6 -> 20         0.00785
       6 -> 21         0.00333
       6 -> 25        -0.00077
       6 -> 26         0.00267
       6 -> 30         0.00113
       6 -> 31         0.00271
       6 -> 34        -0.00131
       6 -> 38         0.00112
       6 -> 39        -0.00100
       6 -> 44        -0.00013
       6 -> 45         0.00037
       6 -> 48         0.00015
       6 -> 51        -0.00018
       6 -> 54        -0.00031
       7 ->  9        -0.02497
       7 -> 12        -0.01348
       7 -> 14        -0.00051
       7 -> 15         0.01257
       7 -> 19        -0.01362
       7 -> 20         0.00393
       7 -> 21        -0.00141
       7 -> 25        -0.00079
       7 -> 26        -0.00980
       7 -> 30         0.00243
       7 -> 31        -0.00254
       7 -> 34         0.00062
       7 -> 38         0.00111
       7 -> 41         0.00036
       7 -> 44        -0.00048
       7 -> 45        -0.00037
       7 -> 48         0.00057
       7 -> 51         0.00179
       7 -> 54         0.00064
       8 -> 11        -0.04086
       8 -> 16         0.69489
       8 -> 18         0.11289
       8 -> 23         0.01190
       8 -> 24         0.00961
       8 -> 29        -0.00337
       8 -> 33         0.00091
       8 -> 36         0.00096
       8 -> 40         0.00063
       8 -> 42        -0.00088
       8 -> 47        -0.00033
       8 -> 50        -0.00099
       8 -> 53        -0.00034
       3 <-  9        -0.00034
       3 <- 12        -0.00070
       3 <- 14         0.00057
[...]
  47        4PZ         0.00165   0.00000   0.00577   0.01377  -0.00550
  48        5S          0.00152   0.00000  -0.01162  -0.01335  -0.00482
  49        5PX         0.00000   0.00000   0.00000   0.00000   0.00000
  50        5PY         0.00000  -0.00000  -0.04284  -0.07351  -0.07774
  51        5PZ        -0.00017  -0.00000   0.00467   0.00669   0.00047
  52        6D 0       -0.00033  -0.00000  -0.00268  -0.00524   0.00078
  53        6D+1       -0.00000   0.00000   0.00000   0.00000  -0.00000
  54        6D-1       -0.00000   0.00000  -0.00299  -0.00237   0.00484
  55        6D+2       -0.00000  -0.00000  -0.00013  -0.00023  -0.00002
  56        6D-2        0.00000  -0.00000   0.00000   0.00000   0.00000
                          26        27        28        29        30
  26        4PX         0.00012
  27        4PY        -0.00000   0.00147
  28        4PZ         0.00000  -0.00060   0.00039
  29 3   H  1S          0.00000  -0.00418  -0.00071   0.08533
  30        2S          0.00000  -0.00608  -0.00111   0.12868   0.19905
  31        3S          0.00000  -0.00176  -0.00098   0.08692   0.14721
  32        4PX         0.00012   0.00000  -0.00000  -0.00000  -0.00000
  33        4PY         0.00000  -0.00084   0.00003   0.00688   0.00889
  34        4PZ         0.00000  -0.00003  -0.00019   0.00418   0.00559
  35 4   O  1S          0.00000  -0.00128  -0.00059   0.00394   0.00611
  36        2S          0.00000  -0.00257  -0.00036   0.00689   0.01120
  37        2PX         0.00391   0.00000  -0.00000  -0.00000  -0.00000
  38        2PY         0.00000  -0.00612   0.00415   0.02797   0.06453
  39        2PZ         0.00000  -0.00609   0.00038   0.00828   0.02059
  40        3S         -0.00000   0.00933  -0.00104  -0.02374  -0.03920
  41        3PX         0.00559   0.00000  -0.00000  -0.00000  -0.00000
  42        3PY         0.00000  -0.00865   0.00578   0.04281   0.09677
  43        3PZ         0.00000  -0.00874   0.00057   0.01221   0.02981
  44        4S         -0.00000   0.00506  -0.00120  -0.02520  -0.03177
  45        4PX         0.00347   0.00000  -0.00000  -0.00000  -0.00000
  46        4PY         0.00000  -0.00552   0.00276   0.06430   0.12444
  47        4PZ         0.00000  -0.00389   0.00028   0.00577   0.01377
  48        5S         -0.00000   0.00142  -0.00065  -0.01162  -0.01335
  49        5PX        -0.00001   0.00000   0.00000  -0.00000  -0.00000
  50        5PY         0.00000  -0.00032  -0.00083   0.04284   0.07351
  51        5PZ         0.00000  -0.00116   0.00026   0.00467   0.00669
  52        6D 0       -0.00000   0.00134  -0.00014  -0.00268  -0.00524
  53        6D+1       -0.00066  -0.00000   0.00000  -0.00000  -0.00000
  54        6D-1       -0.00000   0.00097  -0.00084   0.00299   0.00237
  55        6D+2        0.00000   0.00006  -0.00001  -0.00013  -0.00023
  56        6D-2       -0.00000   0.00000  -0.00000   0.00000   0.00000
                          31        32        33        34        35
  31        3S          0.15227
  32        4PX         0.00000   0.00012
  33        4PY        -0.00010  -0.00000   0.00147
  34        4PZ         0.00162  -0.00000   0.00060   0.00039
  35 4   O  1S          0.00264  -0.00000   0.00128  -0.00059   0.63980
  36        2S          0.00326  -0.00000   0.00257  -0.00036   0.57020
  37        2PX        -0.00000   0.00391   0.00000   0.00000   0.00000
  38        2PY         0.11215   0.00000  -0.00612  -0.00415   0.00000
  39        2PZ        -0.00760  -0.00000   0.00609   0.00038  -0.00081
  40        3S         -0.00650   0.00000  -0.00933  -0.00104  -0.12375
  41        3PX        -0.00000   0.00559   0.00000   0.00000   0.00000
  42        3PY         0.16420   0.00000  -0.00865  -0.00578   0.00000
  43        3PZ        -0.01059  -0.00000   0.00874   0.00057  -0.00515
  44        4S         -0.01380   0.00000  -0.00506  -0.00120  -0.12329
  45        4PX        -0.00000   0.00347   0.00000   0.00000   0.00000
  46        4PY         0.16904   0.00000  -0.00552  -0.00276   0.00000
  47        4PZ        -0.00550  -0.00000   0.00389   0.00028  -0.01288
  48        5S         -0.00482   0.00000  -0.00142  -0.00065  -0.01584
  49        5PX        -0.00000  -0.00001   0.00000  -0.00000   0.00000
  50        5PY         0.07774   0.00000  -0.00032   0.00083  -0.00000
  51        5PZ         0.00047  -0.00000   0.00116   0.00026   0.00405
  52        6D 0        0.00078   0.00000  -0.00134  -0.00014  -0.00291
  53        6D+1        0.00000  -0.00066  -0.00000  -0.00000   0.00000
  54        6D-1       -0.00484  -0.00000   0.00097   0.00084   0.00000
  55        6D+2       -0.00002   0.00000  -0.00006  -0.00001  -0.00047
  56        6D-2        0.00000   0.00000   0.00000  -0.00000  -0.00000
                          36        37        38        39        40
  36        2S          0.52624
  37        2PX         0.00000   0.12423
  38        2PY         0.00000  -0.00000   0.17841
  39        2PZ        -0.00037   0.00000   0.00000   0.19733
  40        3S         -0.21893   0.00000   0.00000  -0.00234   0.67753
  41        3PX         0.00000   0.17746  -0.00000   0.00000   0.00000
  42        3PY         0.00000  -0.00000   0.25576  -0.00000   0.00000
  43        3PZ        -0.00258   0.00000   0.00000   0.27834  -0.01169
  44        4S         -0.20096   0.00000   0.00000   0.15145   0.57261
  45        4PX         0.00000   0.11015  -0.00000   0.00000   0.00000
  46        4PY         0.00000  -0.00000   0.20404  -0.00000  -0.00000
  47        4PZ        -0.01884   0.00000   0.00000   0.13950   0.04631
  48        5S         -0.02669   0.00000   0.00000   0.04877   0.07961
  49        5PX         0.00000  -0.00020  -0.00000   0.00000   0.00000
  50        5PY        -0.00000  -0.00000   0.05496  -0.00000   0.00000
  51        5PZ         0.00596   0.00000   0.00000   0.01062  -0.01526
  52        6D 0       -0.00655  -0.00000  -0.00000  -0.02913   0.02445
  53        6D+1        0.00000  -0.02110   0.00000   0.00000  -0.00000
  54        6D-1        0.00000   0.00000  -0.02000   0.00000  -0.00000
  55        6D+2       -0.00090   0.00000  -0.00000  -0.00039   0.00301
  56        6D-2       -0.00000   0.00000  -0.00000   0.00000   0.00000
                          41        42        43        44        45
  41        3PX         0.25349
  42        3PY        -0.00000   0.36679
  43        3PZ         0.00000   0.00000   0.39276
  44        4S          0.00000   0.00000   0.20654   0.60844
  45        4PX         0.15734  -0.00000   0.00000   0.00000   0.09766
  46        4PY        -0.00000   0.29424  -0.00000  -0.00000  -0.00000
  47        4PZ         0.00000   0.00000   0.19625   0.14709   0.00000
  48        5S          0.00000   0.00000   0.06773   0.10967   0.00000
  49        5PX        -0.00028  -0.00000   0.00000   0.00000  -0.00018
  50        5PY        -0.00000   0.08063  -0.00000   0.00000  -0.00000
  51        5PZ         0.00000   0.00000   0.01518  -0.00614   0.00000
  52        6D 0       -0.00000  -0.00000  -0.04139  -0.00177  -0.00000
  53        6D+1       -0.03013   0.00000   0.00000  -0.00000  -0.01870
  54        6D-1        0.00000  -0.02835   0.00000   0.00000   0.00000
  55        6D+2        0.00000  -0.00000  -0.00059   0.00224  -0.00000
  56        6D-2        0.00000  -0.00000  -0.00000   0.00000   0.00000
                          46        47        48        49        50
  46        4PY         0.25408
  47        4PZ         0.00000   0.10220
  48        5S          0.00000   0.03959   0.02557
  49        5PX        -0.00000   0.00000   0.00000   0.00000
  50        5PY         0.08481  -0.00000   0.00000  -0.00000   0.04018
  51        5PZ         0.00000   0.00661  -0.00054   0.00000   0.00000
  52        6D 0       -0.00000  -0.01890  -0.00411  -0.00000  -0.00000
  53        6D+1        0.00000   0.00000   0.00000   0.00003   0.00000
  54        6D-1       -0.01895   0.00000   0.00000   0.00000  -0.00200
  55        6D+2       -0.00000  -0.00006   0.00026  -0.00000  -0.00000
  56        6D-2        0.00000  -0.00000   0.00000  -0.00000   0.00000
                          51        52        53        54        55
  51        5PZ         0.00138
  52        6D 0       -0.00219   0.00519
  53        6D+1        0.00000   0.00000   0.00358
  54        6D-1        0.00000   0.00000   0.00000   0.00299
  55        6D+2       -0.00009   0.00017  -0.00000   0.00000   0.00001
  56        6D-2        0.00000   0.00000  -0.00000   0.00000  -0.00000
                          56
  56        6D-2        0.00000
          Condensed to atoms (all electrons):
               1          2          3          4
     1  C    4.526560   0.465470   0.465470   0.285929
     2  H    0.465470   0.917668  -0.187628  -0.178775
     3  H    0.465470  -0.187628   0.917668  -0.178775
     4  O    0.285929  -0.178775  -0.178775   8.294722
 Mulliken charges:
               1
     1  C    0.256571
     2  H   -0.016735
     3  H   -0.016735
     4  O   -0.223100
 Sum of Mulliken charges =  -0.00000
 Mulliken charges with hydrogens summed into heavy atoms:
               1
     1  C    0.223100
     4  O   -0.223100
 Electronic spatial extent (au):  <R**2>=             49.5116
 Charge=             -0.0000 electrons
 Dipole moment (field-independent basis, Debye):
    X=              0.0000    Y=              0.0000    Z=             -0.2227  Tot=              0.2227
 Quadrupole moment (field-independent basis, Debye-Ang):
   XX=            -10.6723   YY=            -12.5291   ZZ=            -13.3052
   XY=             -0.0000   XZ=             -0.0000   YZ=              0.0000
 Traceless Quadrupole moment (field-independent basis, Debye-Ang):
   XX=              1.4966   YY=             -0.3602   ZZ=             -1.1364
   XY=             -0.0000   XZ=             -0.0000   YZ=              0.0000
 Octapole moment (field-independent basis, Debye-Ang**2):
  XXX=              0.0000  YYY=              0.0000  ZZZ=              4.2223  XYY=              0.0000
  XXY=             -0.0000  XXZ=              1.3669  XZZ=              0.0000  YZZ=             -0.0000
  YYZ=              2.8631  XYZ=              0.0000
 Hexadecapole moment (field-independent basis, Debye-Ang**3):
 XXXX=             -8.8029 YYYY=            -25.5430 ZZZZ=            -36.6939 XXXY=             -0.0000
 XXXZ=             -0.0000 YYYX=             -0.0000 YYYZ=             -0.0000 ZZZX=             -0.0000
 ZZZY=              0.0000 XXYY=             -5.6902 XXZZ=             -7.3104 YYZZ=            -11.8153
 XXYZ=              0.0000 YYXZ=             -0.0000 ZZXY=             -0.0000
 N-N= 4.081989443171D+01 E-N=-3.516177897350D+02  KE= 1.171443197827D+02
 Symmetry A1   KE= 1.059554660866D+02
 Symmetry A2   KE= 8.790028496614D-36
 Symmetry B1   KE= 4.295650227746D+00
 Symmetry B2   KE= 6.893203468402D+00
 Leave Link  601 at Fri Sep 17 10:52:30 2021, MaxMem=   268435456 cpu:               0.0 elap:               0.0
 (Enter /software/gaussian/g16-a03/l9999.exe)
 Electronic transition elements 
                 1             2             3             4             5 
      1  -0.113871D+03 -0.113866D+03 -0.113836D+03 -0.113831D+03 -0.113796D+03
      2   0.000000D+00  0.000000D+00  0.000000D+00  0.000000D+00  0.000000D+00
      3   0.000000D+00  0.815347D+00 -0.386017D+00  0.000000D+00  0.000000D+00
      4   0.000000D+00  0.000000D+00  0.000000D+00 -0.474007D+00  0.000000D+00
      5   0.000000D+00  0.000000D+00  0.000000D+00  0.000000D+00  0.000000D+00
      6   0.000000D+00 -0.165618D+00  0.931347D-01  0.000000D+00  0.000000D+00
      7   0.000000D+00  0.000000D+00  0.000000D+00  0.110214D+00  0.000000D+00
      8   0.000000D+00 -0.436203D+00 -0.794850D+00  0.000000D+00  0.000000D+00
      9   0.000000D+00  0.000000D+00  0.000000D+00  0.000000D+00  0.000000D+00
     10   0.118706D+01  0.000000D+00  0.000000D+00  0.000000D+00  0.614444D+00
     11   0.000000D+00  0.000000D+00  0.000000D+00 -0.206365D+00  0.000000D+00
     12   0.000000D+00  0.000000D+00  0.000000D+00 -0.685411D+00  0.000000D+00
     13   0.000000D+00  0.000000D+00  0.000000D+00 -0.174341D+00  0.000000D+00
     14  -0.278189D+00  0.000000D+00  0.000000D+00  0.000000D+00  0.702206D-01
     15   0.000000D+00  0.000000D+00  0.000000D+00  0.000000D+00  0.000000D+00
     16   0.000000D+00  0.489820D+00 -0.312771D+00  0.000000D+00  0.000000D+00
                 6             7             8             9            10 
      1  -0.113716D+03 -0.113708D+03 -0.113677D+03 -0.113669D+03 -0.113629D+03
      2   0.000000D+00  0.000000D+00  0.000000D+00  0.000000D+00  0.000000D+00
      3   0.955962D+00  0.753686D+00  0.000000D+00  0.000000D+00  0.000000D+00
      4   0.000000D+00  0.000000D+00 -0.622384D-02  0.000000D+00 -0.885965D+00
      5   0.000000D+00  0.000000D+00  0.000000D+00  0.000000D+00  0.000000D+00
      6  -0.357133D+00 -0.247975D+00  0.000000D+00  0.000000D+00  0.000000D+00
      7   0.000000D+00  0.000000D+00  0.235781D-02  0.000000D+00  0.394528D+00
      8  -0.359464D+00 -0.123353D+01  0.000000D+00  0.000000D+00  0.000000D+00
      9   0.000000D+00  0.000000D+00  0.000000D+00  0.000000D+00  0.000000D+00
     10   0.000000D+00  0.000000D+00  0.000000D+00  0.193410D+00  0.000000D+00
     11   0.000000D+00  0.000000D+00  0.195663D+00  0.000000D+00  0.658890D-01
     12   0.000000D+00  0.000000D+00  0.628243D+00  0.000000D+00 -0.796339D+00
     13   0.000000D+00  0.000000D+00  0.614188D+00  0.000000D+00 -0.801877D+00
     14   0.000000D+00  0.000000D+00  0.000000D+00  0.223285D+00  0.000000D+00
     15   0.000000D+00  0.000000D+00  0.000000D+00  0.000000D+00  0.000000D+00
     16   0.939863D+00  0.252023D+00  0.000000D+00  0.000000D+00  0.000000D+00
                11            12            13            14            15 
      1  -0.113627D+03 -0.113573D+03 -0.113565D+03 -0.113538D+03 -0.113538D+03
      2   0.000000D+00 -0.128296D+00  0.000000D+00  0.000000D+00  0.000000D+00
      3  -0.359177D+00  0.000000D+00  0.000000D+00 -0.329704D+00  0.000000D+00
      4   0.000000D+00  0.000000D+00 -0.240084D-01  0.000000D+00 -0.518072D+00
      5   0.000000D+00  0.531671D-01  0.000000D+00  0.000000D+00  0.000000D+00
      6   0.162994D+00  0.000000D+00  0.000000D+00  0.179421D+00  0.000000D+00
      7   0.000000D+00  0.000000D+00  0.118198D-01  0.000000D+00  0.279784D+00
      8  -0.336488D+00  0.000000D+00  0.000000D+00 -0.445210D+00  0.000000D+00
      9   0.000000D+00 -0.838986D+00  0.000000D+00  0.000000D+00  0.000000D+00
     10   0.000000D+00  0.000000D+00  0.000000D+00  0.000000D+00  0.000000D+00
     11   0.000000D+00  0.000000D+00  0.228751D+00  0.000000D+00  0.642193D-01
     12   0.000000D+00  0.000000D+00  0.445089D+00  0.000000D+00  0.595856D-01
     13   0.000000D+00  0.000000D+00  0.502514D+00  0.000000D+00  0.909736D-02
     14   0.000000D+00  0.000000D+00  0.000000D+00  0.000000D+00  0.000000D+00
     15   0.000000D+00 -0.352106D+00  0.000000D+00  0.000000D+00  0.000000D+00
     16   0.194195D-01  0.000000D+00  0.000000D+00  0.189949D+00  0.000000D+00
                16            17            18            19            20 
      1  -0.113531D+03 -0.113513D+03 -0.113503D+03 -0.113503D+03 -0.113495D+03
      2   0.000000D+00 -0.404564D+00  0.000000D+00 -0.171447D+00  0.605497D+00
      3   0.255825D+00  0.000000D+00  0.000000D+00  0.000000D+00  0.000000D+00
      4   0.000000D+00  0.000000D+00  0.400685D+00  0.000000D+00  0.000000D+00
      5   0.000000D+00  0.232093D+00  0.000000D+00  0.100538D+00 -0.350087D+00
      6  -0.121240D+00  0.000000D+00  0.000000D+00  0.000000D+00  0.000000D+00
      7   0.000000D+00  0.000000D+00 -0.224653D+00  0.000000D+00  0.000000D+00
      8  -0.130539D+01  0.000000D+00  0.000000D+00  0.000000D+00  0.000000D+00
      9   0.000000D+00 -0.108112D+00  0.000000D+00 -0.103108D+01 -0.431463D+00
     10   0.000000D+00  0.000000D+00  0.000000D+00  0.000000D+00  0.000000D+00
     11   0.000000D+00  0.000000D+00  0.495046D+00  0.000000D+00  0.000000D+00
     12   0.000000D+00  0.000000D+00  0.714364D+00  0.000000D+00  0.000000D+00
     13   0.000000D+00  0.000000D+00  0.366254D+00  0.000000D+00  0.000000D+00
     14   0.000000D+00  0.000000D+00  0.000000D+00  0.000000D+00  0.000000D+00
     15   0.000000D+00 -0.651577D-01  0.000000D+00 -0.852084D+00 -0.425687D-01
     16   0.176407D+00  0.000000D+00  0.000000D+00  0.000000D+00  0.000000D+00
                21            22            23            24            25 
      1  -0.113490D+03 -0.113481D+03 -0.113477D+03 -0.113477D+03 -0.113475D+03
      2   0.000000D+00  0.000000D+00 -0.181932D+00  0.000000D+00  0.000000D+00
      3   0.000000D+00  0.000000D+00  0.000000D+00  0.000000D+00 -0.104110D+00
      4   0.155515D+00  0.000000D+00  0.000000D+00  0.000000D+00  0.000000D+00
      5   0.000000D+00  0.000000D+00  0.117241D+00  0.000000D+00  0.000000D+00
      6   0.000000D+00  0.000000D+00  0.000000D+00  0.000000D+00  0.673389D-01
      7  -0.876642D-01  0.000000D+00  0.000000D+00  0.000000D+00  0.000000D+00
      8   0.000000D+00  0.000000D+00  0.000000D+00  0.000000D+00  0.492474D-01
      9   0.000000D+00  0.000000D+00 -0.640983D-01  0.000000D+00  0.000000D+00
     10   0.000000D+00 -0.612332D-01  0.000000D+00 -0.262523D+00  0.000000D+00
     11   0.541035D+00  0.000000D+00  0.000000D+00  0.000000D+00  0.000000D+00
     12   0.187882D+00  0.000000D+00  0.000000D+00  0.000000D+00  0.000000D+00
     13  -0.467623D+00  0.000000D+00  0.000000D+00  0.000000D+00  0.000000D+00
     14   0.000000D+00  0.326014D+00  0.000000D+00  0.194715D+00  0.000000D+00
     15   0.000000D+00  0.000000D+00  0.717777D-01  0.000000D+00  0.000000D+00
     16   0.000000D+00  0.000000D+00  0.000000D+00  0.000000D+00 -0.256079D+00
                26            27            28            29            30 
      1  -0.113473D+03 -0.113467D+03 -0.113446D+03 -0.113436D+03 -0.113433D+03
      2   0.000000D+00  0.000000D+00  0.000000D+00  0.000000D+00  0.000000D+00
      3   0.000000D+00 -0.381162D+00  0.000000D+00  0.000000D+00 -0.109731D+00
      4  -0.538746D+00  0.000000D+00  0.184201D+00  0.270524D+00  0.000000D+00
      5   0.000000D+00  0.000000D+00  0.000000D+00  0.000000D+00  0.000000D+00
      6   0.000000D+00  0.231765D+00  0.000000D+00  0.000000D+00  0.729929D-01
      7   0.314931D+00  0.000000D+00 -0.119488D+00 -0.172903D+00  0.000000D+00
      8   0.000000D+00  0.186685D+00  0.000000D+00  0.000000D+00  0.165510D-01
      9   0.000000D+00  0.000000D+00  0.000000D+00  0.000000D+00  0.000000D+00
     10   0.000000D+00  0.000000D+00  0.000000D+00  0.000000D+00  0.000000D+00
     11  -0.373561D+00  0.000000D+00 -0.259166D+00 -0.937534D-03  0.000000D+00
     12  -0.221759D+00  0.000000D+00  0.430197D+00  0.627428D+00  0.000000D+00
     13  -0.111613D+01  0.000000D+00  0.231206D+00 -0.700158D-01  0.000000D+00
     14   0.000000D+00  0.000000D+00  0.000000D+00  0.000000D+00  0.000000D+00
     15   0.000000D+00  0.000000D+00  0.000000D+00  0.000000D+00  0.000000D+00
     16   0.000000D+00 -0.168328D+00  0.000000D+00  0.000000D+00  0.343011D+00

 Test job not archived.
 1\1\GINC-BHD0006\SP\RB3LYP TD-FC\6-311+G(d,p)\C1H2O1\BWEIGHT\17-Sep-20
 21\0\\#p B3LYP/6-311+G** #p TD=(singlets,nstates=30)IOp(6/8=3) IOp(9/4
 0=4)\\Scan Step 70, Bond Length 0.8500000000000001\\0,1\C,0,0.,0.,-0.5
 2736\H,0,0.,0.93726,-1.11871\H,0,0.,-0.93726,-1.11871\O,0,0.,0.,0.3226
 4\\Version=ES64L-G16RevA.03\State=1-A1\HF=-114.0754673\RMSD=7.171e-09\
 PG=C02V [C2(C1O1),SGV(H2)]\\@


 THE REAL VOYAGE OF DISCOVERY CONSISTS NOT IN SEEKING NEW LANDSCAPES 
 BUT IN HAVING NEW EYES.
                                                    -- MARCEL PROUST
 Job cpu time:       0 days  0 hours  0 minutes 26.9 seconds.
 Elapsed time:       0 days  0 hours  0 minutes 27.4 seconds.
 File lengths (MBytes):  RWF=     79 Int=      0 D2E=      0 Chk=     32 Scr=      1
 Normal termination of Gaussian 16 at Fri Sep 17 10:52:30 2021.
