 Entering Gaussian System, Link 0=g16
 Initial command:
 /software/gaussian/g16-c01/sse4/g16/l1.exe "/local_scratch/24657428/Gau-12699.inp" -scrdir="/local_scratch/24657428/"
 Entering Link 1 = /software/gaussian/g16-c01/sse4/g16/l1.exe PID=     12704.
  
 Copyright (c) 1988-2019, Gaussian, Inc.  All Rights Reserved.
  
 This is part of the Gaussian(R) 16 program.  It is based on
 the Gaussian(R) 09 system (copyright 2009, Gaussian, Inc.),
 the Gaussian(R) 03 system (copyright 2003, Gaussian, Inc.),
 the Gaussian(R) 98 system (copyright 1998, Gaussian, Inc.),
 the Gaussian(R) 94 system (copyright 1995, Gaussian, Inc.),
 the Gaussian 92(TM) system (copyright 1992, Gaussian, Inc.),
 the Gaussian 90(TM) system (copyright 1990, Gaussian, Inc.),
 the Gaussian 88(TM) system (copyright 1988, Gaussian, Inc.),
 the Gaussian 86(TM) system (copyright 1986, Carnegie Mellon
 University), and the Gaussian 82(TM) system (copyright 1983,
 Carnegie Mellon University). Gaussian is a federally registered
 trademark of Gaussian, Inc.
  
 This software contains proprietary and confidential information,
 including trade secrets, belonging to Gaussian, Inc.
  
 This software is provided under written license and may be
 used, copied, transmitted, or stored only in accord with that
 written license.
  
 The following legend is applicable only to US Government
 contracts under FAR:
  
                    RESTRICTED RIGHTS LEGEND
  
 Use, reproduction and disclosure by the US Government is
 subject to restrictions as set forth in subparagraphs (a)
 and (c) of the Commercial Computer Software - Restricted
 Rights clause in FAR 52.227-19.
  
 Gaussian, Inc.
 340 Quinnipiac St., Bldg. 40, Wallingford CT 06492
  
  
 ---------------------------------------------------------------
 Warning -- This program may not be used in any manner that
 competes with the business of Gaussian, Inc. or will provide
 assistance to any competitor of Gaussian, Inc.  The licensee
 of this program is prohibited from giving any competitor of
 Gaussian, Inc. access to this program.  By using this program,
 the user acknowledges that Gaussian, Inc. is engaged in the
 business of creating and licensing software in the field of
 computational chemistry and represents and warrants to the
 licensee that it is not a competitor of Gaussian, Inc. and that
 it will not use this program in any manner prohibited above.
 ---------------------------------------------------------------
  

 Cite this work as:
 Gaussian 16, Revision C.01,
 M. J. Frisch, G. W. Trucks, H. B. Schlegel, G. E. Scuseria, 
 M. A. Robb, J. R. Cheeseman, G. Scalmani, V. Barone, 
 G. A. Petersson, H. Nakatsuji, X. Li, M. Caricato, A. V. Marenich, 
 J. Bloino, B. G. Janesko, R. Gomperts, B. Mennucci, H. P. Hratchian, 
 J. V. Ortiz, A. F. Izmaylov, J. L. Sonnenberg, D. Williams-Young, 
 F. Ding, F. Lipparini, F. Egidi, J. Goings, B. Peng, A. Petrone, 
 T. Henderson, D. Ranasinghe, V. G. Zakrzewski, J. Gao, N. Rega, 
 G. Zheng, W. Liang, M. Hada, M. Ehara, K. Toyota, R. Fukuda, 
 J. Hasegawa, M. Ishida, T. Nakajima, Y. Honda, O. Kitao, H. Nakai, 
 T. Vreven, K. Throssell, J. A. Montgomery, Jr., J. E. Peralta, 
 F. Ogliaro, M. J. Bearpark, J. J. Heyd, E. N. Brothers, K. N. Kudin, 
 V. N. Staroverov, T. A. Keith, R. Kobayashi, J. Normand, 
 K. Raghavachari, A. P. Rendell, J. C. Burant, S. S. Iyengar, 
 J. Tomasi, M. Cossi, J. M. Millam, M. Klene, C. Adamo, R. Cammi, 
 J. W. Ochterski, R. L. Martin, K. Morokuma, O. Farkas, 
 J. B. Foresman, and D. J. Fox, Gaussian, Inc., Wallingford CT, 2019.
 
 ******************************************
 Gaussian 16:  ES64L-G16RevC.01  3-Jul-2019
                 1-May-2024 
 ******************************************
 %chk=geometry.chk
 %mem=9GB
 %nprocshared=12
 Will use up to   12 processors via shared memory.
 ----------------------------------------
 #P wB97XD/6-311+G* NoSymm #P Field=X-126
 ----------------------------------------
 1/38=1,172=1/1;
 2/12=2,15=1,17=6,18=5,40=1/2;
 3/5=4,6=6,7=11,11=2,14=1,15=-126,25=1,30=1,74=-58/1,2,3;
 4//1;
 5/5=2,38=5/2;
 6/7=2,8=2,9=2,10=2,28=1/1;
 99/5=1,9=1/99;
 Leave Link    1 at Wed May  1 14:27:44 2024, MaxMem=  1207959552 cpu:               1.5 elap:               1.5
 (Enter /software/gaussian/g16-c01/sse4/g16/l101.exe)
 -------
 TitleMe
 -------
 Symbolic Z-matrix:
 Charge =  1 Multiplicity = 1
 C                     0.0295    1.3397    0.0682 
 C                     1.4348    1.2867    0.0064 
 C                     2.1118    0.0511   -0.0054 
 C                     1.4451   -1.1372    0.0312 
 C                    -0.6879    0.1682    0.11 
 H                    -0.4713    2.2984    0.0781 
 H                     2.0273    2.1965   -0.0322 
 H                     1.9897   -2.0764    0.0232 
 H                    -1.7716    0.1804    0.1582 
 N                     3.5864    0.051    -0.0675 
 O                     4.1471   -1.0597   -0.0881 
 O                     4.145     1.1639   -0.0901 
 C                    -0.0236   -1.1458    0.0835 
 H                    -0.4367   -1.8725    0.7889 
 Br                   -0.5359   -1.8697   -1.7408 
 
 ITRead=  0  0  0  0  0  0  0  0  0  0  0  0  0  0  0
 MicOpt= -1 -1 -1 -1 -1 -1 -1 -1 -1 -1 -1 -1 -1 -1 -1
 NAtoms=     15 NQM=       15 NQMF=       0 NMMI=      0 NMMIF=      0
                NMic=       0 NMicF=      0.
                    Isotopes and Nuclear Properties:
 (Nuclear quadrupole moments (NQMom) in fm**2, nuclear magnetic moments (NMagM)
  in nuclear magnetons)

  Atom         1           2           3           4           5           6           7           8           9          10
 IAtWgt=          12          12          12          12          12           1           1           1           1          14
 AtmWgt=  12.0000000  12.0000000  12.0000000  12.0000000  12.0000000   1.0078250   1.0078250   1.0078250   1.0078250  14.0030740
 NucSpn=           0           0           0           0           0           1           1           1           1           2
 AtZEff=  -0.0000000  -0.0000000  -0.0000000  -0.0000000  -0.0000000  -0.0000000  -0.0000000  -0.0000000  -0.0000000  -0.0000000
 NQMom=    0.0000000   0.0000000   0.0000000   0.0000000   0.0000000   0.0000000   0.0000000   0.0000000   0.0000000   2.0440000
 NMagM=    0.0000000   0.0000000   0.0000000   0.0000000   0.0000000   2.7928460   2.7928460   2.7928460   2.7928460   0.4037610
 AtZNuc=   6.0000000   6.0000000   6.0000000   6.0000000   6.0000000   1.0000000   1.0000000   1.0000000   1.0000000   7.0000000

  Atom        11          12          13          14          15
 IAtWgt=          16          16          12           1          79
 AtmWgt=  15.9949146  15.9949146  12.0000000   1.0078250  78.9183361
 NucSpn=           0           0           0           1           3
 AtZEff=  -0.0000000  -0.0000000  -0.0000000  -0.0000000  -0.0000000
 NQMom=    0.0000000   0.0000000   0.0000000   0.0000000  31.3000000
 NMagM=    0.0000000   0.0000000   0.0000000   2.7928460   2.1063990
 AtZNuc=   8.0000000   8.0000000   6.0000000   1.0000000  35.0000000
 Leave Link  101 at Wed May  1 14:27:45 2024, MaxMem=  1207959552 cpu:               1.3 elap:               1.3
 (Enter /software/gaussian/g16-c01/sse4/g16/l202.exe)
                          Input orientation:                          
 ---------------------------------------------------------------------
 Center     Atomic      Atomic             Coordinates (Angstroms)
 Number     Number       Type             X           Y           Z
 ---------------------------------------------------------------------
      1          6           0        0.029500    1.339700    0.068200
      2          6           0        1.434800    1.286700    0.006400
      3          6           0        2.111800    0.051100   -0.005400
      4          6           0        1.445100   -1.137200    0.031200
      5          6           0       -0.687900    0.168200    0.110000
      6          1           0       -0.471300    2.298400    0.078100
      7          1           0        2.027300    2.196500   -0.032200
      8          1           0        1.989700   -2.076400    0.023200
      9          1           0       -1.771600    0.180400    0.158200
     10          7           0        3.586400    0.051000   -0.067500
     11          8           0        4.147100   -1.059700   -0.088100
     12          8           0        4.145000    1.163900   -0.090100
     13          6           0       -0.023600   -1.145800    0.083500
     14          1           0       -0.436700   -1.872500    0.788900
     15         35           0       -0.535900   -1.869700   -1.740800
 ---------------------------------------------------------------------
                    Distance matrix (angstroms):
                    1          2          3          4          5
     1  C    0.000000
     2  C    1.407656   0.000000
     3  C    2.449874   1.408963   0.000000
     4  C    2.853126   2.424049   1.363043   0.000000
     5  C    1.374344   2.401589   2.804523   2.501993   0.000000
     6  H    1.081667   2.159142   3.424870   3.934226   2.141421
     7  H    2.176095   1.086408   2.147231   3.384750   3.392128
     8  H    3.938800   3.408612   2.131193   1.085702   3.495040
     9  H    2.143837   3.395283   3.888995   3.478413   1.084840
    10  N    3.785591   2.482297   1.475907   2.450862   4.279589
    11  O    4.768247   3.587631   2.320164   2.705743   4.992415
    12  O    4.122294   2.714696   2.319353   3.549540   4.938459
    13  C    2.486114   2.837240   2.449573   1.469656   1.472614
    14  H    3.324903   3.754379   3.290289   2.157764   2.165286
    15  Br   3.727252   4.110867   3.702891   2.756973   2.757100
                    6          7          8          9         10
     6  H    0.000000
     7  H    2.503108   0.000000
     8  H    5.019802   4.273425   0.000000
     9  H    2.486588   4.304945   4.388479   0.000000
    10  N    4.640790   2.652397   2.661486   5.364313   0.000000
    11  O    5.712624   3.885809   2.387560   6.052233   1.244373
    12  O    4.756638   2.356750   3.893289   6.002923   1.245428
    13  C    3.473180   3.923079   2.218790   2.195425   3.806210
    14  H    4.231175   4.827242   2.552506   2.528663   4.540772
    15  Br   4.548146   5.101303   3.087568   3.055498   4.845862
                   11         12         13         14         15
    11  O    0.000000
    12  O    2.223602   0.000000
    13  C    4.175117   4.768865   0.000000
    14  H    4.737193   5.566358   1.093770   0.000000
    15  Br   5.031700   5.817075   2.028436   2.531646   0.000000
 Symmetry turned off by external request.
 Stoichiometry    C6H5BrNO2(1+)
 Framework group  C1[X(C6H5BrNO2)]
 Deg. of freedom    39
 Full point group                 C1      NOp   1
 Rotational constants (GHZ):           1.8252210           0.5518633           0.4576002
 Leave Link  202 at Wed May  1 14:27:47 2024, MaxMem=  1207959552 cpu:               1.2 elap:               1.3
 (Enter /software/gaussian/g16-c01/sse4/g16/l301.exe)
 Standard basis: 6-311+G(d) (5D, 7F)
 Ernie: Thresh=  0.10000D-02 Tol=  0.10000D-05 Strict=F.
 The following finite field(s) will be applied:
 An electric field of             -0.0126  0.0000  0.0000
   261 basis functions,   443 primitive gaussians,   273 cartesian basis functions
    49 alpha electrons       49 beta electrons
       nuclear repulsion energy       739.2122215416 Hartrees.
 IExCor= 4639 DFT=T Ex+Corr=wB97XD ExCW=0 ScaHFX=  1.000000
 ScaDFX=  1.000000  1.000000  1.000000  1.000000 ScalE2=  1.000000  1.000000
 IRadAn=      5 IRanWt=     -1 IRanGd=            0 ICorTp=0 IEmpDi=121
 HFx  wShort=  0.000000 wLong=  0.200000 cFull=  0.222036 cShort=  0.000000 cLong=  0.777964
 DFx  wShort=  0.000000 wLong=  0.200000 cFull=  0.000000 cShort=  0.000000 cLong=  1.000000
 NAtoms=   15 NActive=   15 NUniq=   15 SFac= 1.00D+00 NAtFMM=   60 NAOKFM=F Big=F
 Integral buffers will be    131072 words long.
 Raffenetti 2 integral format.
 Two-electron integral symmetry is turned off.
 R6Disp:  Grimme-D2 Dispersion energy=       -0.0077368520 Hartrees.
 Nuclear repulsion after empirical dispersion term =      739.2044846896 Hartrees.
 Leave Link  301 at Wed May  1 14:27:48 2024, MaxMem=  1207959552 cpu:               1.0 elap:               1.0
 (Enter /software/gaussian/g16-c01/sse4/g16/l302.exe)
 NPDir=0 NMtPBC=     1 NCelOv=     1 NCel=       1 NClECP=     1 NCelD=      1
         NCelK=      1 NCelE2=     1 NClLst=     1 CellRange=     0.0.
 One-electron integrals computed using PRISM.
 NBasis=   261 RedAO= T EigKep=  2.35D-06  NBF=   261
 NBsUse=   261 1.00D-06 EigRej= -1.00D+00 NBFU=   261
 Precomputing XC quadrature grid using
 IXCGrd= 4 IRadAn=           5 IRanWt=          -1 IRanGd=           0 AccXCQ= 0.00D+00.
 Generated NRdTot=       0 NPtTot=           0 NUsed=           0 NTot=          32
 NSgBfM=   273   273   273   273   273 MxSgAt=    15 MxSgA2=    15.
 Leave Link  302 at Wed May  1 14:28:09 2024, MaxMem=  1207959552 cpu:              21.0 elap:              21.0
 (Enter /software/gaussian/g16-c01/sse4/g16/l303.exe)
 DipDrv:  MaxL=1.
 The nuclear repulsion energy is now       736.8262703711 hartrees.
 Leave Link  303 at Wed May  1 14:28:13 2024, MaxMem=  1207959552 cpu:               3.4 elap:               3.4
 (Enter /software/gaussian/g16-c01/sse4/g16/l401.exe)
 ExpMin= 3.50D-02 ExpMax= 4.40D+05 ExpMxC= 1.51D+04 IAcc=3 IRadAn=         5 AccDes= 0.00D+00
 Harris functional with IExCor= 4639 and IRadAn=       5 diagonalized for initial guess.
 HarFok:  IExCor= 4639 AccDes= 0.00D+00 IRadAn=         5 IDoV= 1 UseB2=F ITyADJ=14
 ICtDFT=  3500011 ScaDFX=  1.000000  1.000000  1.000000  1.000000
 FoFCou: FMM=F IPFlag=           0 FMFlag=      100000 FMFlg1=           0
         NFxFlg=           0 DoJE=T BraDBF=F KetDBF=T FulRan=T
         wScrn=  0.000000 ICntrl=       500 IOpCl=  0 I1Cent=   200000004 NGrid=           0
         NMat0=    1 NMatS0=      1 NMatT0=    0 NMatD0=    1 NMtDS0=    0 NMtDT0=    0
 Symmetry not used in FoFCou.
 Harris En= -2970.72738718591    
 JPrj=0 DoOrth=F DoCkMO=F.
 Leave Link  401 at Wed May  1 14:28:43 2024, MaxMem=  1207959552 cpu:              30.5 elap:              30.5
 (Enter /software/gaussian/g16-c01/sse4/g16/l502.exe)
 Two-electron integral symmetry not used.
 Closed shell SCF:
 Using DIIS extrapolation, IDIIS=  1040.
 NGot=  1207959552 LenX=  1207804877 LenY=  1207729907
 Requested convergence on RMS density matrix=1.00D-08 within 128 cycles.
 Requested convergence on MAX density matrix=1.00D-06.
 Requested convergence on             energy=1.00D-06.
 No special actions if energy rises.
 Fock matrices will be formed incrementally for  20 cycles.

 Cycle   1  Pass 1  IDiag  1:
 FoFJK:  IHMeth= 1 ICntrl=       0 DoSepK=T KAlg= 0 I1Cent=           0 FoldK=F
 IRaf=         1 NMat=       1 IRICut=       1 DoRegI=T DoRafI=F ISym2E= 0 IDoP0=0 IntGTp=1.
 FoFCou: FMM=F IPFlag=           0 FMFlag=      100000 FMFlg1=           0
         NFxFlg=           0 DoJE=T BraDBF=F KetDBF=F FulRan=T
         wScrn=  0.000000 ICntrl=       500 IOpCl=  0 I1Cent=           0 NGrid=           0
         NMat0=    1 NMatS0=      1 NMatT0=    0 NMatD0=    1 NMtDS0=    0 NMtDT0=    0
 Symmetry not used in FoFCou.
 E= -3008.59303266598    
 DIIS: error= 3.21D-01 at cycle   1 NSaved=   1.
 NSaved= 1 IEnMin= 1 EnMin= -3008.59303266598     IErMin= 1 ErrMin= 3.21D-01
 ErrMax= 3.21D-01  0.00D+00 EMaxC= 1.00D-01 BMatC= 1.24D+01 BMatP= 1.24D+01
 IDIUse=3 WtCom= 0.00D+00 WtEn= 1.00D+00
 Coeff-Com:  0.100D+01
 Coeff-En:   0.100D+01
 Coeff:      0.100D+01
 Gap=     1.226 Goal=   None    Shift=    0.000
 GapD=    1.226 DampG=2.000 DampE=0.250 DampFc=0.5000 IDamp=-1.
 Damping current iteration by 5.00D-01
 RMSDP=1.01D-01 MaxDP=6.77D+00              OVMax= 9.78D-01

 Cycle   2  Pass 1  IDiag  1:
 RMSU=  3.82D-02    CP:  7.68D-01
 E= -3005.45902334435     Delta-E=        3.134009321636 Rises=F Damp=T
 DIIS: error= 1.40D-01 at cycle   2 NSaved=   2.
 NSaved= 2 IEnMin= 1 EnMin= -3008.59303266598     IErMin= 2 ErrMin= 1.40D-01
 ErrMax= 1.40D-01  0.00D+00 EMaxC= 1.00D-01 BMatC= 3.32D+00 BMatP= 1.24D+01
 IDIUse=3 WtCom= 0.00D+00 WtEn= 1.00D+00
 Coeff-Com:  0.923D-03 0.999D+00
 Coeff-En:   0.756D+00 0.244D+00
 Coeff:      0.756D+00 0.244D+00
 Gap=    -0.024 Goal=   None    Shift=    0.000
 RMSDP=5.99D-02 MaxDP=4.96D+00 DE= 3.13D+00 OVMax= 8.77D-01

 Cycle   3  Pass 1  IDiag  1:
 RMSU=  1.90D-02    CP:  3.71D-01  8.60D-01
 E= -3009.16285274345     Delta-E=       -3.703829399105 Rises=F Damp=F
 DIIS: error= 1.35D-01 at cycle   3 NSaved=   3.
 NSaved= 3 IEnMin= 3 EnMin= -3009.16285274345     IErMin= 3 ErrMin= 1.35D-01
 ErrMax= 1.35D-01  0.00D+00 EMaxC= 1.00D-01 BMatC= 2.35D+00 BMatP= 3.32D+00
 IDIUse=3 WtCom= 0.00D+00 WtEn= 1.00D+00
 Coeff-Com:  0.335D+00-0.177D+00 0.842D+00
 Coeff-En:   0.425D+00 0.000D+00 0.575D+00
 Coeff:      0.425D+00 0.000D+00 0.575D+00
 Gap=     0.137 Goal=   None    Shift=    0.000
 RMSDP=2.25D-02 MaxDP=1.06D+00 DE=-3.70D+00 OVMax= 5.19D-01

 Cycle   4  Pass 1  IDiag  1:
 RMSU=  1.65D-02    CP:  3.99D-01  4.76D-01  1.08D+00
 E= -3010.48476680516     Delta-E=       -1.321914061706 Rises=F Damp=F
 DIIS: error= 1.72D-02 at cycle   4 NSaved=   4.
 NSaved= 4 IEnMin= 4 EnMin= -3010.48476680516     IErMin= 4 ErrMin= 1.72D-02
 ErrMax= 1.72D-02  0.00D+00 EMaxC= 1.00D-01 BMatC= 6.03D-02 BMatP= 2.35D+00
 IDIUse=3 WtCom= 8.28D-01 WtEn= 1.72D-01
 Coeff-Com:  0.477D-01-0.178D-01 0.879D-01 0.882D+00
 Coeff-En:   0.000D+00 0.000D+00 0.000D+00 0.100D+01
 Coeff:      0.395D-01-0.148D-01 0.728D-01 0.902D+00
 Gap=     0.213 Goal=   None    Shift=    0.000
 RMSDP=1.31D-02 MaxDP=8.00D-01 DE=-1.32D+00 OVMax= 8.43D-02

 Cycle   5  Pass 1  IDiag  1:
 RMSU=  6.98D-03    CP:  3.35D-01  4.96D-01  1.04D+00  6.29D-01
 E= -3010.49677772745     Delta-E=       -0.012010922293 Rises=F Damp=F
 DIIS: error= 2.07D-02 at cycle   5 NSaved=   5.
 NSaved= 5 IEnMin= 5 EnMin= -3010.49677772745     IErMin= 4 ErrMin= 1.72D-02
 ErrMax= 2.07D-02  0.00D+00 EMaxC= 1.00D-01 BMatC= 5.55D-02 BMatP= 6.03D-02
 IDIUse=3 WtCom= 7.93D-01 WtEn= 2.07D-01
 Coeff-Com: -0.485D-03 0.117D-01-0.178D-01 0.493D+00 0.514D+00
 Coeff-En:   0.000D+00 0.000D+00 0.000D+00 0.432D+00 0.568D+00
 Coeff:     -0.385D-03 0.930D-02-0.141D-01 0.480D+00 0.525D+00
 Gap=     0.193 Goal=   None    Shift=    0.000
 RMSDP=4.38D-03 MaxDP=2.21D-01 DE=-1.20D-02 OVMax= 5.16D-02

 Cycle   6  Pass 1  IDiag  1:
 RMSU=  1.69D-03    CP:  3.46D-01  4.61D-01  1.03D+00  8.22D-01  8.07D-01
 E= -3010.53816173049     Delta-E=       -0.041384003035 Rises=F Damp=F
 DIIS: error= 3.56D-03 at cycle   6 NSaved=   6.
 NSaved= 6 IEnMin= 6 EnMin= -3010.53816173049     IErMin= 6 ErrMin= 3.56D-03
 ErrMax= 3.56D-03  0.00D+00 EMaxC= 1.00D-01 BMatC= 2.11D-03 BMatP= 5.55D-02
 IDIUse=3 WtCom= 9.64D-01 WtEn= 3.56D-02
 Coeff-Com: -0.273D-02 0.879D-02-0.113D-01 0.173D+00 0.247D+00 0.586D+00
 Coeff-En:   0.000D+00 0.000D+00 0.000D+00 0.000D+00 0.000D+00 0.100D+01
 Coeff:     -0.264D-02 0.848D-02-0.109D-01 0.166D+00 0.238D+00 0.601D+00
 Gap=     0.202 Goal=   None    Shift=    0.000
 RMSDP=8.64D-04 MaxDP=5.44D-02 DE=-4.14D-02 OVMax= 1.82D-02

 Cycle   7  Pass 1  IDiag  1:
 RMSU=  5.79D-04    CP:  3.43D-01  4.59D-01  1.02D+00  8.01D-01  8.46D-01
                    CP:  1.10D+00
 E= -3010.53971920923     Delta-E=       -0.001557478740 Rises=F Damp=F
 DIIS: error= 2.28D-03 at cycle   7 NSaved=   7.
 NSaved= 7 IEnMin= 7 EnMin= -3010.53971920923     IErMin= 7 ErrMin= 2.28D-03
 ErrMax= 2.28D-03  0.00D+00 EMaxC= 1.00D-01 BMatC= 5.38D-04 BMatP= 2.11D-03
 IDIUse=3 WtCom= 9.77D-01 WtEn= 2.28D-02
 Coeff-Com: -0.308D-02 0.634D-02-0.462D-02 0.471D-02 0.392D-01 0.340D+00
 Coeff-Com:  0.618D+00
 Coeff-En:   0.000D+00 0.000D+00 0.000D+00 0.000D+00 0.000D+00 0.000D+00
 Coeff-En:   0.100D+01
 Coeff:     -0.301D-02 0.620D-02-0.452D-02 0.460D-02 0.383D-01 0.332D+00
 Coeff:      0.626D+00
 Gap=     0.207 Goal=   None    Shift=    0.000
 RMSDP=6.04D-04 MaxDP=3.99D-02 DE=-1.56D-03 OVMax= 1.25D-02

 Cycle   8  Pass 1  IDiag  1:
 RMSU=  3.89D-04    CP:  3.42D-01  4.66D-01  1.01D+00  7.87D-01  8.70D-01
                    CP:  1.21D+00  8.56D-01
 E= -3010.54022952674     Delta-E=       -0.000510317517 Rises=F Damp=F
 DIIS: error= 1.42D-03 at cycle   8 NSaved=   8.
 NSaved= 8 IEnMin= 8 EnMin= -3010.54022952674     IErMin= 8 ErrMin= 1.42D-03
 ErrMax= 1.42D-03  0.00D+00 EMaxC= 1.00D-01 BMatC= 2.00D-04 BMatP= 5.38D-04
 IDIUse=3 WtCom= 9.86D-01 WtEn= 1.42D-02
 Coeff-Com: -0.245D-02 0.441D-02-0.169D-02-0.257D-01-0.216D-01 0.840D-01
 Coeff-Com:  0.414D+00 0.549D+00
 Coeff-En:   0.000D+00 0.000D+00 0.000D+00 0.000D+00 0.000D+00 0.000D+00
 Coeff-En:   0.000D+00 0.100D+01
 Coeff:     -0.242D-02 0.435D-02-0.166D-02-0.253D-01-0.212D-01 0.828D-01
 Coeff:      0.408D+00 0.555D+00
 Gap=     0.208 Goal=   None    Shift=    0.000
 RMSDP=2.75D-04 MaxDP=2.31D-02 DE=-5.10D-04 OVMax= 8.37D-03

 Cycle   9  Pass 1  IDiag  1:
 RMSU=  1.75D-04    CP:  3.42D-01  4.70D-01  1.02D+00  7.81D-01  8.77D-01
                    CP:  1.20D+00  9.55D-01  1.09D+00
 E= -3010.54045824265     Delta-E=       -0.000228715902 Rises=F Damp=F
 DIIS: error= 2.82D-04 at cycle   9 NSaved=   9.
 NSaved= 9 IEnMin= 9 EnMin= -3010.54045824265     IErMin= 9 ErrMin= 2.82D-04
 ErrMax= 2.82D-04  0.00D+00 EMaxC= 1.00D-01 BMatC= 2.30D-05 BMatP= 2.00D-04
 IDIUse=3 WtCom= 9.97D-01 WtEn= 2.82D-03
 Coeff-Com: -0.508D-03 0.125D-02 0.229D-03-0.352D-03-0.115D-01-0.773D-01
 Coeff-Com: -0.110D+00 0.105D+00 0.109D+01
 Coeff-En:   0.000D+00 0.000D+00 0.000D+00 0.000D+00 0.000D+00 0.000D+00
 Coeff-En:   0.000D+00 0.000D+00 0.100D+01
 Coeff:     -0.506D-03 0.124D-02 0.228D-03-0.351D-03-0.115D-01-0.771D-01
 Coeff:     -0.109D+00 0.104D+00 0.109D+01
 Gap=     0.209 Goal=   None    Shift=    0.000
 RMSDP=2.60D-04 MaxDP=1.42D-02 DE=-2.29D-04 OVMax= 1.12D-02

 Cycle  10  Pass 1  IDiag  1:
 RMSU=  8.57D-05    CP:  3.42D-01  4.73D-01  1.02D+00  7.74D-01  8.79D-01
                    CP:  1.24D+00  1.02D+00  1.44D+00  1.59D+00
 E= -3010.54054757852     Delta-E=       -0.000089335871 Rises=F Damp=F
 DIIS: error= 1.41D-04 at cycle  10 NSaved=  10.
 NSaved=10 IEnMin=10 EnMin= -3010.54054757852     IErMin=10 ErrMin= 1.41D-04
 ErrMax= 1.41D-04  0.00D+00 EMaxC= 1.00D-01 BMatC= 3.66D-06 BMatP= 2.30D-05
 IDIUse=3 WtCom= 9.99D-01 WtEn= 1.41D-03
 Coeff-Com:  0.354D-04 0.161D-03 0.200D-03 0.648D-02 0.189D-02-0.384D-01
 Coeff-Com: -0.105D+00-0.566D-01 0.384D+00 0.808D+00
 Coeff-En:   0.000D+00 0.000D+00 0.000D+00 0.000D+00 0.000D+00 0.000D+00
 Coeff-En:   0.000D+00 0.000D+00 0.000D+00 0.100D+01
 Coeff:      0.354D-04 0.161D-03 0.200D-03 0.647D-02 0.189D-02-0.383D-01
 Coeff:     -0.105D+00-0.565D-01 0.383D+00 0.808D+00
 Gap=     0.209 Goal=   None    Shift=    0.000
 RMSDP=1.05D-04 MaxDP=4.79D-03 DE=-8.93D-05 OVMax= 5.16D-03

 Cycle  11  Pass 1  IDiag  1:
 RMSU=  3.96D-05    CP:  3.42D-01  4.74D-01  1.02D+00  7.71D-01  8.82D-01
                    CP:  1.25D+00  1.03D+00  1.55D+00  1.90D+00  1.43D+00
 E= -3010.54056699956     Delta-E=       -0.000019421040 Rises=F Damp=F
 DIIS: error= 7.51D-05 at cycle  11 NSaved=  11.
 NSaved=11 IEnMin=11 EnMin= -3010.54056699956     IErMin=11 ErrMin= 7.51D-05
 ErrMax= 7.51D-05  0.00D+00 EMaxC= 1.00D-01 BMatC= 6.77D-07 BMatP= 3.66D-06
 IDIUse=1 WtCom= 1.00D+00 WtEn= 0.00D+00
 Coeff-Com:  0.140D-03-0.274D-03 0.122D-03 0.108D-02 0.231D-02 0.858D-02
 Coeff-Com:  0.304D-02-0.308D-01-0.163D+00 0.148D+00 0.103D+01
 Coeff:      0.140D-03-0.274D-03 0.122D-03 0.108D-02 0.231D-02 0.858D-02
 Coeff:      0.304D-02-0.308D-01-0.163D+00 0.148D+00 0.103D+01
 Gap=     0.209 Goal=   None    Shift=    0.000
 RMSDP=6.88D-05 MaxDP=3.85D-03 DE=-1.94D-05 OVMax= 3.87D-03

 Cycle  12  Pass 1  IDiag  1:
 RMSU=  1.87D-05    CP:  3.42D-01  4.74D-01  1.02D+00  7.70D-01  8.82D-01
                    CP:  1.26D+00  1.03D+00  1.62D+00  2.10D+00  1.85D+00
                    CP:  1.35D+00
 E= -3010.54057432121     Delta-E=       -0.000007321652 Rises=F Damp=F
 DIIS: error= 3.21D-05 at cycle  12 NSaved=  12.
 NSaved=12 IEnMin=12 EnMin= -3010.54057432121     IErMin=12 ErrMin= 3.21D-05
 ErrMax= 3.21D-05  0.00D+00 EMaxC= 1.00D-01 BMatC= 2.19D-07 BMatP= 6.77D-07
 IDIUse=1 WtCom= 1.00D+00 WtEn= 0.00D+00
 Coeff-Com:  0.600D-04-0.189D-03 0.106D-04-0.168D-02-0.635D-03 0.948D-02
 Coeff-Com:  0.236D-01 0.108D-01-0.771D-01-0.168D+00 0.142D+00 0.106D+01
 Coeff:      0.600D-04-0.189D-03 0.106D-04-0.168D-02-0.635D-03 0.948D-02
 Coeff:      0.236D-01 0.108D-01-0.771D-01-0.168D+00 0.142D+00 0.106D+01
 Gap=     0.209 Goal=   None    Shift=    0.000
 RMSDP=3.55D-05 MaxDP=1.77D-03 DE=-7.32D-06 OVMax= 1.92D-03

 Cycle  13  Pass 1  IDiag  1:
 RMSU=  7.08D-06    CP:  3.42D-01  4.74D-01  1.02D+00  7.70D-01  8.84D-01
                    CP:  1.26D+00  1.03D+00  1.65D+00  2.20D+00  2.02D+00
                    CP:  1.74D+00  1.49D+00
 E= -3010.54057614105     Delta-E=       -0.000001819837 Rises=F Damp=F
 DIIS: error= 1.66D-05 at cycle  13 NSaved=  13.
 NSaved=13 IEnMin=13 EnMin= -3010.54057614105     IErMin=13 ErrMin= 1.66D-05
 ErrMax= 1.66D-05  0.00D+00 EMaxC= 1.00D-01 BMatC= 6.89D-08 BMatP= 2.19D-07
 IDIUse=1 WtCom= 1.00D+00 WtEn= 0.00D+00
 Coeff-Com:  0.193D-04-0.759D-04-0.379D-04-0.871D-03-0.968D-03-0.616D-03
 Coeff-Com:  0.388D-02 0.999D-02 0.301D-01-0.964D-01-0.241D+00 0.223D+00
 Coeff-Com:  0.107D+01
 Coeff:      0.193D-04-0.759D-04-0.379D-04-0.871D-03-0.968D-03-0.616D-03
 Coeff:      0.388D-02 0.999D-02 0.301D-01-0.964D-01-0.241D+00 0.223D+00
 Coeff:      0.107D+01
 Gap=     0.209 Goal=   None    Shift=    0.000
 RMSDP=2.27D-05 MaxDP=1.27D-03 DE=-1.82D-06 OVMax= 1.32D-03

 Cycle  14  Pass 1  IDiag  1:
 RMSU=  2.67D-06    CP:  3.42D-01  4.74D-01  1.02D+00  7.70D-01  8.85D-01
                    CP:  1.27D+00  1.03D+00  1.67D+00  2.27D+00  2.14D+00
                    CP:  1.94D+00  1.87D+00  1.42D+00
 E= -3010.54057665483     Delta-E=       -0.000000513780 Rises=F Damp=F
 DIIS: error= 5.50D-06 at cycle  14 NSaved=  14.
 NSaved=14 IEnMin=14 EnMin= -3010.54057665483     IErMin=14 ErrMin= 5.50D-06
 ErrMax= 5.50D-06  0.00D+00 EMaxC= 1.00D-01 BMatC= 1.24D-08 BMatP= 6.89D-08
 IDIUse=1 WtCom= 1.00D+00 WtEn= 0.00D+00
 Coeff-Com:  0.915D-05-0.159D-04-0.112D-04 0.878D-04-0.125D-03-0.251D-02
 Coeff-Com: -0.447D-02-0.536D-03 0.223D-01 0.173D-01-0.572D-01-0.207D+00
 Coeff-Com:  0.282D+00 0.950D+00
 Coeff:      0.915D-05-0.159D-04-0.112D-04 0.878D-04-0.125D-03-0.251D-02
 Coeff:     -0.447D-02-0.536D-03 0.223D-01 0.173D-01-0.572D-01-0.207D+00
 Coeff:      0.282D+00 0.950D+00
 Gap=     0.209 Goal=   None    Shift=    0.000
 RMSDP=7.50D-06 MaxDP=4.06D-04 DE=-5.14D-07 OVMax= 3.76D-04

 Cycle  15  Pass 1  IDiag  1:
 RMSU=  1.66D-06    CP:  3.42D-01  4.74D-01  1.02D+00  7.70D-01  8.85D-01
                    CP:  1.27D+00  1.04D+00  1.67D+00  2.29D+00  2.16D+00
                    CP:  2.01D+00  1.95D+00  1.66D+00  1.26D+00
 E= -3010.54057669989     Delta-E=       -0.000000045060 Rises=F Damp=F
 DIIS: error= 2.74D-06 at cycle  15 NSaved=  15.
 NSaved=15 IEnMin=15 EnMin= -3010.54057669989     IErMin=15 ErrMin= 2.74D-06
 ErrMax= 2.74D-06  0.00D+00 EMaxC= 1.00D-01 BMatC= 8.75D-10 BMatP= 1.24D-08
 IDIUse=1 WtCom= 1.00D+00 WtEn= 0.00D+00
 Coeff-Com:  0.353D-05-0.273D-05 0.106D-04 0.122D-03 0.723D-04-0.747D-03
 Coeff-Com: -0.174D-02-0.909D-03 0.330D-02 0.152D-01 0.107D-01-0.876D-01
 Coeff-Com: -0.214D-01 0.209D+00 0.874D+00
 Coeff:      0.353D-05-0.273D-05 0.106D-04 0.122D-03 0.723D-04-0.747D-03
 Coeff:     -0.174D-02-0.909D-03 0.330D-02 0.152D-01 0.107D-01-0.876D-01
 Coeff:     -0.214D-01 0.209D+00 0.874D+00
 Gap=     0.209 Goal=   None    Shift=    0.000
 RMSDP=1.52D-06 MaxDP=5.94D-05 DE=-4.51D-08 OVMax= 7.04D-05

 Cycle  16  Pass 1  IDiag  1:
 RMSU=  5.03D-07    CP:  3.42D-01  4.74D-01  1.02D+00  7.70D-01  8.85D-01
                    CP:  1.27D+00  1.04D+00  1.67D+00  2.30D+00  2.17D+00
                    CP:  2.03D+00  1.95D+00  1.65D+00  1.46D+00  1.14D+00
 E= -3010.54057670269     Delta-E=       -0.000000002801 Rises=F Damp=F
 DIIS: error= 7.78D-07 at cycle  16 NSaved=  16.
 NSaved=16 IEnMin=16 EnMin= -3010.54057670269     IErMin=16 ErrMin= 7.78D-07
 ErrMax= 7.78D-07  0.00D+00 EMaxC= 1.00D-01 BMatC= 2.03D-10 BMatP= 8.75D-10
 IDIUse=1 WtCom= 1.00D+00 WtEn= 0.00D+00
 Coeff-Com:  0.642D-06-0.381D-06 0.598D-05 0.200D-04 0.481D-04 0.119D-03
 Coeff-Com:  0.607D-04-0.362D-03-0.313D-02 0.225D-02 0.137D-01-0.246D-03
 Coeff-Com: -0.326D-01-0.802D-01 0.309D+00 0.791D+00
 Coeff:      0.642D-06-0.381D-06 0.598D-05 0.200D-04 0.481D-04 0.119D-03
 Coeff:      0.607D-04-0.362D-03-0.313D-02 0.225D-02 0.137D-01-0.246D-03
 Coeff:     -0.326D-01-0.802D-01 0.309D+00 0.791D+00
 Gap=     0.209 Goal=   None    Shift=    0.000
 RMSDP=6.34D-07 MaxDP=5.11D-05 DE=-2.80D-09 OVMax= 1.82D-05

 Cycle  17  Pass 1  IDiag  1:
 RMSU=  2.33D-07    CP:  3.42D-01  4.74D-01  1.02D+00  7.70D-01  8.85D-01
                    CP:  1.27D+00  1.04D+00  1.67D+00  2.30D+00  2.17D+00
                    CP:  2.03D+00  1.94D+00  1.65D+00  1.46D+00  1.25D+00
                    CP:  1.01D+00
 E= -3010.54057670320     Delta-E=       -0.000000000513 Rises=F Damp=F
 DIIS: error= 3.02D-07 at cycle  17 NSaved=  17.
 NSaved=17 IEnMin=17 EnMin= -3010.54057670320     IErMin=17 ErrMin= 3.02D-07
 ErrMax= 3.02D-07  0.00D+00 EMaxC= 1.00D-01 BMatC= 3.16D-11 BMatP= 2.03D-10
 IDIUse=1 WtCom= 1.00D+00 WtEn= 0.00D+00
 Coeff-Com: -0.386D-06 0.737D-06-0.633D-06-0.689D-05 0.145D-04 0.129D-03
 Coeff-Com:  0.231D-03 0.297D-05-0.136D-02-0.151D-02 0.164D-02 0.826D-02
 Coeff-Com:  0.459D-02-0.451D-01-0.255D-01 0.203D+00 0.856D+00
 Coeff:     -0.386D-06 0.737D-06-0.633D-06-0.689D-05 0.145D-04 0.129D-03
 Coeff:      0.231D-03 0.297D-05-0.136D-02-0.151D-02 0.164D-02 0.826D-02
 Coeff:      0.459D-02-0.451D-01-0.255D-01 0.203D+00 0.856D+00
 Gap=     0.209 Goal=   None    Shift=    0.000
 RMSDP=2.81D-07 MaxDP=1.55D-05 DE=-5.13D-10 OVMax= 9.23D-06

 Cycle  18  Pass 1  IDiag  1:
 RMSU=  9.74D-08    CP:  3.42D-01  4.74D-01  1.02D+00  7.70D-01  8.85D-01
                    CP:  1.27D+00  1.04D+00  1.67D+00  2.30D+00  2.17D+00
                    CP:  2.03D+00  1.94D+00  1.63D+00  1.46D+00  1.27D+00
                    CP:  1.19D+00  1.07D+00
 E= -3010.54057670329     Delta-E=       -0.000000000085 Rises=F Damp=F
 DIIS: error= 2.07D-07 at cycle  18 NSaved=  18.
 NSaved=18 IEnMin=18 EnMin= -3010.54057670329     IErMin=18 ErrMin= 2.07D-07
 ErrMax= 2.07D-07  0.00D+00 EMaxC= 1.00D-01 BMatC= 8.28D-12 BMatP= 3.16D-11
 IDIUse=1 WtCom= 1.00D+00 WtEn= 0.00D+00
 Coeff-Com: -0.243D-06 0.380D-06-0.965D-06-0.433D-05-0.199D-05 0.146D-04
 Coeff-Com:  0.460D-04 0.432D-04 0.137D-03-0.949D-03-0.192D-02 0.216D-02
 Coeff-Com:  0.100D-01-0.133D-02-0.705D-01-0.964D-01 0.245D+00 0.913D+00
 Coeff:     -0.243D-06 0.380D-06-0.965D-06-0.433D-05-0.199D-05 0.146D-04
 Coeff:      0.460D-04 0.432D-04 0.137D-03-0.949D-03-0.192D-02 0.216D-02
 Coeff:      0.100D-01-0.133D-02-0.705D-01-0.964D-01 0.245D+00 0.913D+00
 Gap=     0.209 Goal=   None    Shift=    0.000
 RMSDP=1.81D-07 MaxDP=8.66D-06 DE=-8.55D-11 OVMax= 7.24D-06

 Cycle  19  Pass 1  IDiag  1:
 RMSU=  3.50D-08    CP:  3.42D-01  4.74D-01  1.02D+00  7.70D-01  8.85D-01
                    CP:  1.27D+00  1.04D+00  1.67D+00  2.30D+00  2.17D+00
                    CP:  2.03D+00  1.94D+00  1.63D+00  1.46D+00  1.28D+00
                    CP:  1.26D+00  1.25D+00  1.44D+00
 E= -3010.54057670329     Delta-E=       -0.000000000005 Rises=F Damp=F
 DIIS: error= 1.06D-07 at cycle  19 NSaved=  19.
 NSaved=19 IEnMin=19 EnMin= -3010.54057670329     IErMin=19 ErrMin= 1.06D-07
 ErrMax= 1.06D-07  0.00D+00 EMaxC= 1.00D-01 BMatC= 2.11D-12 BMatP= 8.28D-12
 IDIUse=1 WtCom= 1.00D+00 WtEn= 0.00D+00
 Coeff-Com: -0.296D-07 0.569D-07-0.368D-08 0.172D-05-0.418D-05-0.414D-04
 Coeff-Com: -0.724D-04 0.148D-04 0.558D-03 0.149D-03-0.119D-02-0.253D-02
 Coeff-Com:  0.283D-02 0.132D-01-0.162D-01-0.895D-01-0.185D+00 0.365D+00
 Coeff-Com:  0.913D+00
 Coeff:     -0.296D-07 0.569D-07-0.368D-08 0.172D-05-0.418D-05-0.414D-04
 Coeff:     -0.724D-04 0.148D-04 0.558D-03 0.149D-03-0.119D-02-0.253D-02
 Coeff:      0.283D-02 0.132D-01-0.162D-01-0.895D-01-0.185D+00 0.365D+00
 Coeff:      0.913D+00
 Gap=     0.209 Goal=   None    Shift=    0.000
 RMSDP=9.27D-08 MaxDP=5.02D-06 DE=-5.46D-12 OVMax= 4.86D-06

 Cycle  20  Pass 1  IDiag  1:
 RMSU=  1.27D-08    CP:  3.42D-01  4.74D-01  1.02D+00  7.70D-01  8.85D-01
                    CP:  1.27D+00  1.04D+00  1.67D+00  2.30D+00  2.17D+00
                    CP:  2.03D+00  1.94D+00  1.62D+00  1.46D+00  1.29D+00
                    CP:  1.32D+00  1.30D+00  1.85D+00  1.50D+00
 E= -3010.54057670336     Delta-E=       -0.000000000065 Rises=F Damp=F
 DIIS: error= 3.84D-08 at cycle  20 NSaved=  20.
 NSaved=20 IEnMin=20 EnMin= -3010.54057670336     IErMin=20 ErrMin= 3.84D-08
 ErrMax= 3.84D-08  0.00D+00 EMaxC= 1.00D-01 BMatC= 1.93D-13 BMatP= 2.11D-12
 IDIUse=1 WtCom= 1.00D+00 WtEn= 0.00D+00
 Coeff-Com:  0.824D-08-0.139D-07 0.471D-07-0.449D-07 0.741D-06 0.273D-05
 Coeff-Com: -0.250D-05-0.833D-05-0.583D-04 0.398D-04 0.496D-03-0.977D-04
 Coeff-Com: -0.171D-02-0.176D-03 0.104D-01 0.258D-01-0.360D-01-0.175D+00
 Coeff-Com: -0.110D+00 0.129D+01
 Coeff:      0.824D-08-0.139D-07 0.471D-07-0.449D-07 0.741D-06 0.273D-05
 Coeff:     -0.250D-05-0.833D-05-0.583D-04 0.398D-04 0.496D-03-0.977D-04
 Coeff:     -0.171D-02-0.176D-03 0.104D-01 0.258D-01-0.360D-01-0.175D+00
 Coeff:     -0.110D+00 0.129D+01
 Gap=     0.209 Goal=   None    Shift=    0.000
 RMSDP=3.73D-08 MaxDP=1.60D-06 DE=-6.50D-11 OVMax= 2.38D-06

 Cycle  21  Pass 1  IDiag  1:
 Restarting incremental Fock formation.
 E= -3010.54057670332     Delta-E=        0.000000000041 Rises=F Damp=F
 DIIS: error= 6.51D-09 at cycle  21 NSaved=  20.
 NSaved=20 IEnMin=19 EnMin= -3010.54057670336     IErMin=20 ErrMin= 6.51D-09
 ErrMax= 6.51D-09  0.00D+00 EMaxC= 1.00D-01 BMatC= 1.38D-14 BMatP= 1.93D-13
 IDIUse=1 WtCom= 1.00D+00 WtEn= 0.00D+00
 Large coefficients: NSaved= 20 BigCof=    0.00 CofMax=   10.00 Det=-3.74D-14
 Inversion failed.  Reducing to 19 matrices.
 Coeff-Com: -0.696D-08-0.158D-06 0.367D-06 0.267D-05 0.466D-05-0.133D-05
 Coeff-Com: -0.303D-04-0.266D-04 0.785D-04 0.181D-03-0.217D-03-0.678D-03
 Coeff-Com:  0.556D-03 0.505D-02 0.126D-01-0.123D-01-0.812D-01-0.278D-01
 Coeff-Com:  0.110D+01
 Coeff:     -0.696D-08-0.158D-06 0.367D-06 0.267D-05 0.466D-05-0.133D-05
 Coeff:     -0.303D-04-0.266D-04 0.785D-04 0.181D-03-0.217D-03-0.678D-03
 Coeff:      0.556D-03 0.505D-02 0.126D-01-0.123D-01-0.812D-01-0.278D-01
 Coeff:      0.110D+01
 Gap=     0.209 Goal=   None    Shift=    0.000
 RMSDP=7.95D-09 MaxDP=3.34D-07 DE= 4.09D-11 OVMax= 4.02D-07

 SCF Done:  E(RwB97XD) =  -3010.54057670     A.U. after   21 cycles
            NFock= 21  Conv=0.79D-08     -V/T= 2.0016
 KE= 3.005858934103D+03 PE=-8.629843633850D+03 EE= 1.876617852673D+03
 Leave Link  502 at Wed May  1 14:48:31 2024, MaxMem=  1207959552 cpu:            1187.2 elap:            1187.4
 (Enter /software/gaussian/g16-c01/sse4/g16/l601.exe)
 Copying SCF densities to generalized density rwf, IOpCl= 0 IROHF=0.

 **********************************************************************

            Population analysis using the SCF Density.

 **********************************************************************

 Alpha  occ. eigenvalues -- -483.30379 -62.85422 -56.65090 -56.64553 -56.64550
 Alpha  occ. eigenvalues --  -19.39319 -19.39250 -14.78931 -10.57153 -10.55274
 Alpha  occ. eigenvalues --  -10.55114 -10.54280 -10.53894 -10.51662  -9.01241
 Alpha  occ. eigenvalues --   -6.83849  -6.82085  -6.82072  -2.93771  -2.93301
 Alpha  occ. eigenvalues --   -2.93288  -2.91877  -2.91876  -1.43079  -1.25976
 Alpha  occ. eigenvalues --   -1.20523  -1.11847  -1.09589  -1.03033  -0.97454
 Alpha  occ. eigenvalues --   -0.93428  -0.88313  -0.82379  -0.78198  -0.76912
 Alpha  occ. eigenvalues --   -0.75401  -0.74490  -0.73389  -0.70437  -0.69437
 Alpha  occ. eigenvalues --   -0.67487  -0.65333  -0.61637  -0.58457  -0.55879
 Alpha  occ. eigenvalues --   -0.53949  -0.50294  -0.49012  -0.48777
 Alpha virt. eigenvalues --   -0.27856  -0.17152  -0.14456  -0.11577  -0.09702
 Alpha virt. eigenvalues --   -0.08086  -0.06565  -0.05978  -0.03366  -0.02435
 Alpha virt. eigenvalues --   -0.01931  -0.00736  -0.00638  -0.00245   0.00360
 Alpha virt. eigenvalues --    0.02124   0.02530   0.03174   0.03770   0.04149
 Alpha virt. eigenvalues --    0.05075   0.06647   0.07230   0.07859   0.08498
 Alpha virt. eigenvalues --    0.09030   0.09518   0.10209   0.11169   0.11465
 Alpha virt. eigenvalues --    0.12146   0.13418   0.14330   0.14622   0.14983
 Alpha virt. eigenvalues --    0.16046   0.16900   0.17979   0.19218   0.19885
 Alpha virt. eigenvalues --    0.20135   0.21250   0.21619   0.22631   0.23542
 Alpha virt. eigenvalues --    0.23837   0.26713   0.27348   0.28862   0.28893
 Alpha virt. eigenvalues --    0.29675   0.31363   0.32277   0.33242   0.34806
 Alpha virt. eigenvalues --    0.35417   0.35905   0.38159   0.38267   0.40340
 Alpha virt. eigenvalues --    0.40847   0.41798   0.42960   0.43245   0.43877
 Alpha virt. eigenvalues --    0.45162   0.47064   0.47733   0.48849   0.50259
 Alpha virt. eigenvalues --    0.51330   0.51957   0.52889   0.54345   0.55867
 Alpha virt. eigenvalues --    0.57447   0.58181   0.59363   0.60298   0.61795
 Alpha virt. eigenvalues --    0.62622   0.64973   0.65454   0.67925   0.69750
 Alpha virt. eigenvalues --    0.72224   0.72897   0.74705   0.75381   0.76491
 Alpha virt. eigenvalues --    0.78351   0.82696   0.83749   0.85782   0.87533
 Alpha virt. eigenvalues --    0.88521   0.92379   0.95412   0.96537   1.03088
 Alpha virt. eigenvalues --    1.03932   1.06167   1.07428   1.09011   1.09424
 Alpha virt. eigenvalues --    1.12850   1.15590   1.18329   1.19127   1.21537
 Alpha virt. eigenvalues --    1.28217   1.28829   1.31152   1.35143   1.38805
 Alpha virt. eigenvalues --    1.39234   1.40065   1.47133   1.57129   1.59851
 Alpha virt. eigenvalues --    1.61506   1.61673   1.64630   1.66773   1.68326
 Alpha virt. eigenvalues --    1.72018   1.73432   1.75394   1.80213   1.81515
 Alpha virt. eigenvalues --    1.82767   1.88631   1.90481   1.94278   1.96657
 Alpha virt. eigenvalues --    2.01057   2.05770   2.07330   2.08940   2.10176
 Alpha virt. eigenvalues --    2.11985   2.16863   2.22631   2.26556   2.31227
 Alpha virt. eigenvalues --    2.40476   2.44895   2.45695   2.47074   2.54588
 Alpha virt. eigenvalues --    2.58683   2.65479   2.68475   2.70751   2.76750
 Alpha virt. eigenvalues --    2.78837   2.81514   2.82429   2.84042   2.87784
 Alpha virt. eigenvalues --    2.95350   2.98594   3.06677   3.07813   3.11811
 Alpha virt. eigenvalues --    3.15337   3.17615   3.21506   3.26536   3.29776
 Alpha virt. eigenvalues --    3.34133   3.43107   3.49530   3.54947   3.58442
 Alpha virt. eigenvalues --    3.62355   3.76220   3.80631   3.84402   3.89529
 Alpha virt. eigenvalues --    4.09580   4.09820   4.17476   4.22631   4.43506
 Alpha virt. eigenvalues --    4.51166   4.59539   4.65618   5.00088   5.02818
 Alpha virt. eigenvalues --    5.11438   5.15602   5.69383   6.22592   6.65322
 Alpha virt. eigenvalues --    7.48248   7.49827   7.59691  23.23277  23.63356
 Alpha virt. eigenvalues --   23.70888  23.81675  23.97848  24.03910  35.39013
 Alpha virt. eigenvalues --   47.91995  49.92140  50.00952 289.81343 289.83011
 Alpha virt. eigenvalues --  289.954721020.92445
          Condensed to atoms (all electrons):
               1          2          3          4          5          6
     1  C    9.882950  -2.983987   0.194892  -2.022300  -0.776608   0.307577
     2  C   -2.983987  13.731493  -2.043410  -1.940675   0.491042   0.004373
     3  C    0.194892  -2.043410  13.925322  -4.090353  -1.270446   0.027670
     4  C   -2.022300  -1.940675  -4.090353  16.879664   1.177883   0.012033
     5  C   -0.776608   0.491042  -1.270446   1.177883   8.173428  -0.006751
     6  H    0.307577   0.004373   0.027670   0.012033  -0.006751   0.361926
     7  H    0.095504   0.195739   0.074175  -0.036671  -0.017506  -0.001751
     8  H    0.009615  -0.019392   0.092701   0.192415  -0.031971  -0.000001
     9  H    0.057184  -0.038175   0.013875  -0.015320   0.265836  -0.003166
    10  N   -0.230601   0.414295  -0.955620   0.408762  -0.003868  -0.000699
    11  O    0.001306  -0.129882  -0.261350   0.024703  -0.068891  -0.000029
    12  O    0.416526  -0.035160  -0.266651  -0.170665  -0.044232   0.000075
    13  C    1.594046  -2.148488   1.230921  -4.693530  -1.910838  -0.008337
    14  H   -0.028045   0.014751  -0.007988  -0.084306   0.052983  -0.000036
    15  Br   0.022156   0.030807   0.001299   0.033103  -0.003766  -0.000312
               7          8          9         10         11         12
     1  C    0.095504   0.009615   0.057184  -0.230601   0.001306   0.416526
     2  C    0.195739  -0.019392  -0.038175   0.414295  -0.129882  -0.035160
     3  C    0.074175   0.092701   0.013875  -0.955620  -0.261350  -0.266651
     4  C   -0.036671   0.192415  -0.015320   0.408762   0.024703  -0.170665
     5  C   -0.017506  -0.031971   0.265836  -0.003868  -0.068891  -0.044232
     6  H   -0.001751  -0.000001  -0.003166  -0.000699  -0.000029   0.000075
     7  H    0.282298   0.000001   0.000028  -0.027097  -0.001559   0.029950
     8  H    0.000001   0.275666   0.000098  -0.025048   0.029169  -0.000744
     9  H    0.000028   0.000098   0.387110   0.000281   0.000013   0.000010
    10  N   -0.027097  -0.025048   0.000281   7.621175   0.084434   0.050276
    11  O   -0.001559   0.029169   0.000013   0.084434   7.840867   0.015042
    12  O    0.029950  -0.000744   0.000010   0.050276   0.015042   7.877597
    13  C    0.018702   0.081913   0.046018  -0.231328   0.377365   0.039113
    14  H   -0.000024  -0.003074  -0.007079   0.001001  -0.000411  -0.000081
    15  Br   0.000067   0.006598   0.001627   0.008341  -0.000171   0.002141
              13         14         15
     1  C    1.594046  -0.028045   0.022156
     2  C   -2.148488   0.014751   0.030807
     3  C    1.230921  -0.007988   0.001299
     4  C   -4.693530  -0.084306   0.033103
     5  C   -1.910838   0.052983  -0.003766
     6  H   -0.008337  -0.000036  -0.000312
     7  H    0.018702  -0.000024   0.000067
     8  H    0.081913  -0.003074   0.006598
     9  H    0.046018  -0.007079   0.001627
    10  N   -0.231328   0.001001   0.008341
    11  O    0.377365  -0.000411  -0.000171
    12  O    0.039113  -0.000081   0.002141
    13  C   11.665936   0.362567   0.059485
    14  H    0.362567   0.364140  -0.047844
    15  Br   0.059485  -0.047844  34.777921
 Mulliken charges:
               1
     1  C   -0.540215
     2  C    0.456671
     3  C   -0.665037
     4  C    0.325257
     5  C   -0.026296
     6  H    0.307427
     7  H    0.388144
     8  H    0.392054
     9  H    0.291657
    10  N   -0.114306
    11  O    0.089394
    12  O    0.086802
    13  C   -0.483546
    14  H    0.383446
    15  Br   0.108547
 Sum of Mulliken charges =   1.00000
 Mulliken charges with hydrogens summed into heavy atoms:
               1
     1  C   -0.232788
     2  C    0.844815
     3  C   -0.665037
     4  C    0.717311
     5  C    0.265361
    10  N   -0.114306
    11  O    0.089394
    12  O    0.086802
    13  C   -0.100100
    15  Br   0.108547
 Electronic spatial extent (au):  <R**2>=           2792.9663
 Charge=              1.0000 electrons
 Dipole moment (field-independent basis, Debye):
    X=              2.9586    Y=             -0.1687    Z=              0.2815  Tot=              2.9767
 Quadrupole moment (field-independent basis, Debye-Ang):
   XX=            -62.5618   YY=            -52.4366   ZZ=            -63.5836
   XY=              0.6508   XZ=              0.1329   YZ=              0.8023
 Traceless Quadrupole moment (field-independent basis, Debye-Ang):
   XX=             -3.0344   YY=              7.0907   ZZ=             -4.0562
   XY=              0.6508   XZ=              0.1329   YZ=              0.8023
 Octapole moment (field-independent basis, Debye-Ang**2):
  XXX=           -247.8095  YYY=             90.7262  ZZZ=             79.7115  XYY=            -67.2775
  XXY=             31.8401  XXZ=             32.6052  XZZ=            -73.9880  YZZ=             18.3837
  YYZ=             27.3123  XYZ=             -1.5759
 Hexadecapole moment (field-independent basis, Debye-Ang**3):
 XXXX=          -2062.0614 YYYY=           -684.2738 ZZZZ=           -355.0418 XXXY=            -69.0994
 XXXZ=            -28.0444 YYYX=            -64.1342 YYYZ=           -161.0628 ZZZX=            -23.3213
 ZZZY=           -140.7830 XXYY=           -440.2170 XXZZ=           -367.8993 YYZZ=           -168.2254
 XXYZ=            -57.0463 YYXZ=             -6.4015 ZZXY=            -12.2884
 N-N= 7.368262703711D+02 E-N=-8.629843634186D+03  KE= 3.005858934103D+03
 No NMR shielding tensors so no spin-rotation constants.
 Leave Link  601 at Wed May  1 14:48:38 2024, MaxMem=  1207959552 cpu:               7.3 elap:               7.3
 (Enter /software/gaussian/g16-c01/sse4/g16/l9999.exe)
 Unable to Open any file for archive entry.
 1\1\GINC-BHX0009\SP\RwB97XD\6-311+G(d)\C6H5Br1N1O2(1+)\BWEIGHT\01-May-
 2024\0\\#P wB97XD/6-311+G* NoSymm #P Field=X-126\\TitleMe\\1,1\C,0,0.0
 295,1.3397,0.0682\C,0,1.4348,1.2867,0.0064\C,0,2.1118,0.0511,-0.0054\C
 ,0,1.4451,-1.1372,0.0312\C,0,-0.6879,0.1682,0.11\H,0,-0.4713,2.2984,0.
 0781\H,0,2.0273,2.1965,-0.0322\H,0,1.9897,-2.0764,0.0232\H,0,-1.7716,0
 .1804,0.1582\N,0,3.5864,0.051,-0.0675\O,0,4.1471,-1.0597,-0.0881\O,0,4
 .145,1.1639,-0.0901\C,0,-0.0236,-1.1458,0.0835\H,0,-0.4367,-1.8725,0.7
 889\Br,0,-0.5359,-1.8697,-1.7408\\Version=ES64L-G16RevC.01\HF=-3010.54
 05767\RMSD=7.947e-09\Dipole=-0.742545,1.0817221,1.2569144\Quadrupole=-
 2.25603,5.2717414,-3.0157114,0.4838824,0.0988317,0.5964535\PG=C01 [X(C
 6H5Br1N1O2)]\\@
 The archive entry for this job was punched.


 Not by the face shall a man be known, but by the mask.
                               -- Karen Blixen
 Job cpu time:       0 days  0 hours 20 minutes 55.2 seconds.
 Elapsed time:       0 days  0 hours 20 minutes 55.6 seconds.
 File lengths (MBytes):  RWF=     40 Int=      0 D2E=      0 Chk=     32 Scr=      1
 Normal termination of Gaussian 16 at Wed May  1 14:48:39 2024.
