 Entering Gaussian System, Link 0=g16
 Initial command:
 /software/gaussian/g16-c01/sse4/g16/l1.exe "/local_scratch/24665360/Gau-29775.inp" -scrdir="/local_scratch/24665360/"
 Entering Link 1 = /software/gaussian/g16-c01/sse4/g16/l1.exe PID=     29818.
  
 Copyright (c) 1988-2019, Gaussian, Inc.  All Rights Reserved.
  
 This is part of the Gaussian(R) 16 program.  It is based on
 the Gaussian(R) 09 system (copyright 2009, Gaussian, Inc.),
 the Gaussian(R) 03 system (copyright 2003, Gaussian, Inc.),
 the Gaussian(R) 98 system (copyright 1998, Gaussian, Inc.),
 the Gaussian(R) 94 system (copyright 1995, Gaussian, Inc.),
 the Gaussian 92(TM) system (copyright 1992, Gaussian, Inc.),
 the Gaussian 90(TM) system (copyright 1990, Gaussian, Inc.),
 the Gaussian 88(TM) system (copyright 1988, Gaussian, Inc.),
 the Gaussian 86(TM) system (copyright 1986, Carnegie Mellon
 University), and the Gaussian 82(TM) system (copyright 1983,
 Carnegie Mellon University). Gaussian is a federally registered
 trademark of Gaussian, Inc.
  
 This software contains proprietary and confidential information,
 including trade secrets, belonging to Gaussian, Inc.
  
 This software is provided under written license and may be
 used, copied, transmitted, or stored only in accord with that
 written license.
  
 The following legend is applicable only to US Government
 contracts under FAR:
  
                    RESTRICTED RIGHTS LEGEND
  
 Use, reproduction and disclosure by the US Government is
 subject to restrictions as set forth in subparagraphs (a)
 and (c) of the Commercial Computer Software - Restricted
 Rights clause in FAR 52.227-19.
  
 Gaussian, Inc.
 340 Quinnipiac St., Bldg. 40, Wallingford CT 06492
  
  
 ---------------------------------------------------------------
 Warning -- This program may not be used in any manner that
 competes with the business of Gaussian, Inc. or will provide
 assistance to any competitor of Gaussian, Inc.  The licensee
 of this program is prohibited from giving any competitor of
 Gaussian, Inc. access to this program.  By using this program,
 the user acknowledges that Gaussian, Inc. is engaged in the
 business of creating and licensing software in the field of
 computational chemistry and represents and warrants to the
 licensee that it is not a competitor of Gaussian, Inc. and that
 it will not use this program in any manner prohibited above.
 ---------------------------------------------------------------
  

 Cite this work as:
 Gaussian 16, Revision C.01,
 M. J. Frisch, G. W. Trucks, H. B. Schlegel, G. E. Scuseria, 
 M. A. Robb, J. R. Cheeseman, G. Scalmani, V. Barone, 
 G. A. Petersson, H. Nakatsuji, X. Li, M. Caricato, A. V. Marenich, 
 J. Bloino, B. G. Janesko, R. Gomperts, B. Mennucci, H. P. Hratchian, 
 J. V. Ortiz, A. F. Izmaylov, J. L. Sonnenberg, D. Williams-Young, 
 F. Ding, F. Lipparini, F. Egidi, J. Goings, B. Peng, A. Petrone, 
 T. Henderson, D. Ranasinghe, V. G. Zakrzewski, J. Gao, N. Rega, 
 G. Zheng, W. Liang, M. Hada, M. Ehara, K. Toyota, R. Fukuda, 
 J. Hasegawa, M. Ishida, T. Nakajima, Y. Honda, O. Kitao, H. Nakai, 
 T. Vreven, K. Throssell, J. A. Montgomery, Jr., J. E. Peralta, 
 F. Ogliaro, M. J. Bearpark, J. J. Heyd, E. N. Brothers, K. N. Kudin, 
 V. N. Staroverov, T. A. Keith, R. Kobayashi, J. Normand, 
 K. Raghavachari, A. P. Rendell, J. C. Burant, S. S. Iyengar, 
 J. Tomasi, M. Cossi, J. M. Millam, M. Klene, C. Adamo, R. Cammi, 
 J. W. Ochterski, R. L. Martin, K. Morokuma, O. Farkas, 
 J. B. Foresman, and D. J. Fox, Gaussian, Inc., Wallingford CT, 2019.
 
 ******************************************
 Gaussian 16:  ES64L-G16RevC.01  3-Jul-2019
                 2-May-2024 
 ******************************************
 %chk=geometry.chk
 %mem=1GB
 %nprocshared=12
 Will use up to   12 processors via shared memory.
 ----------------------------------------
 #P wB97XD/6-311+G* NoSymm #P Field=Z-223
 ----------------------------------------
 1/38=1,172=1/1;
 2/12=2,15=1,17=6,18=5,40=1/2;
 3/5=4,6=6,7=11,11=2,14=3,15=-223,25=1,30=1,74=-58/1,2,3;
 4//1;
 5/5=2,38=5/2;
 6/7=2,8=2,9=2,10=2,28=1/1;
 99/5=1,9=1/99;
 Leave Link    1 at Thu May  2 13:58:21 2024, MaxMem=   134217728 cpu:               1.6 elap:               1.6
 (Enter /software/gaussian/g16-c01/sse4/g16/l101.exe)
 -------
 TitleMe
 -------
 Symbolic Z-matrix:
 Charge =  1 Multiplicity = 1
 C                     0.5193    1.233    -0.0319 
 C                     1.9445    1.2692   -0.0367 
 C                     2.6204    0.0928   -0.025 
 C                    -0.196     0.0301    0.001 
 H                    -0.0207    2.1742   -0.0434 
 H                     2.4828    2.2089   -0.0361 
 H                    -1.2777    0.0399    0.0117 
 N                     4.0921    0.0959    0.0366 
 O                     4.6393   -1.0217    0.1446 
 O                     4.6649    1.1984   -0.0233 
 C                     0.4943   -1.1671    0.021 
 H                    -0.0325   -2.1149    0.0545 
 C                     1.9629   -1.2165   -0.0211 
 H                     2.4436   -1.9631    0.6151 
 Br                    2.173    -1.9491   -1.9062 
 
 ITRead=  0  0  0  0  0  0  0  0  0  0  0  0  0  0  0
 MicOpt= -1 -1 -1 -1 -1 -1 -1 -1 -1 -1 -1 -1 -1 -1 -1
 NAtoms=     15 NQM=       15 NQMF=       0 NMMI=      0 NMMIF=      0
                NMic=       0 NMicF=      0.
                    Isotopes and Nuclear Properties:
 (Nuclear quadrupole moments (NQMom) in fm**2, nuclear magnetic moments (NMagM)
  in nuclear magnetons)

  Atom         1           2           3           4           5           6           7           8           9          10
 IAtWgt=          12          12          12          12           1           1           1          14          16          16
 AtmWgt=  12.0000000  12.0000000  12.0000000  12.0000000   1.0078250   1.0078250   1.0078250  14.0030740  15.9949146  15.9949146
 NucSpn=           0           0           0           0           1           1           1           2           0           0
 AtZEff=  -0.0000000  -0.0000000  -0.0000000  -0.0000000  -0.0000000  -0.0000000  -0.0000000  -0.0000000  -0.0000000  -0.0000000
 NQMom=    0.0000000   0.0000000   0.0000000   0.0000000   0.0000000   0.0000000   0.0000000   2.0440000   0.0000000   0.0000000
 NMagM=    0.0000000   0.0000000   0.0000000   0.0000000   2.7928460   2.7928460   2.7928460   0.4037610   0.0000000   0.0000000
 AtZNuc=   6.0000000   6.0000000   6.0000000   6.0000000   1.0000000   1.0000000   1.0000000   7.0000000   8.0000000   8.0000000

  Atom        11          12          13          14          15
 IAtWgt=          12           1          12           1          79
 AtmWgt=  12.0000000   1.0078250  12.0000000   1.0078250  78.9183361
 NucSpn=           0           1           0           1           3
 AtZEff=  -0.0000000  -0.0000000  -0.0000000  -0.0000000  -0.0000000
 NQMom=    0.0000000   0.0000000   0.0000000   0.0000000  31.3000000
 NMagM=    0.0000000   2.7928460   0.0000000   2.7928460   2.1063990
 AtZNuc=   6.0000000   1.0000000   6.0000000   1.0000000  35.0000000
 Leave Link  101 at Thu May  2 13:58:23 2024, MaxMem=   134217728 cpu:               1.6 elap:               1.7
 (Enter /software/gaussian/g16-c01/sse4/g16/l202.exe)
                          Input orientation:                          
 ---------------------------------------------------------------------
 Center     Atomic      Atomic             Coordinates (Angstroms)
 Number     Number       Type             X           Y           Z
 ---------------------------------------------------------------------
      1          6           0        0.519300    1.233000   -0.031900
      2          6           0        1.944500    1.269200   -0.036700
      3          6           0        2.620400    0.092800   -0.025000
      4          6           0       -0.196000    0.030100    0.001000
      5          1           0       -0.020700    2.174200   -0.043400
      6          1           0        2.482800    2.208900   -0.036100
      7          1           0       -1.277700    0.039900    0.011700
      8          7           0        4.092100    0.095900    0.036600
      9          8           0        4.639300   -1.021700    0.144600
     10          8           0        4.664900    1.198400   -0.023300
     11          6           0        0.494300   -1.167100    0.021000
     12          1           0       -0.032500   -2.114900    0.054500
     13          6           0        1.962900   -1.216500   -0.021100
     14          1           0        2.443600   -1.963100    0.615100
     15         35           0        2.173000   -1.949100   -1.906200
 ---------------------------------------------------------------------
                    Distance matrix (angstroms):
                    1          2          3          4          5
     1  C    0.000000
     2  C    1.425668   0.000000
     3  C    2.390549   1.356796   0.000000
     4  C    1.399895   2.473566   2.817218   0.000000
     5  H    1.085168   2.163581   3.362733   2.151712   0.000000
     6  H    2.192654   1.082960   2.120598   3.453189   2.503751
     7  H    2.157452   3.449071   3.898632   1.081797   2.477564
     8  N    3.750012   2.448304   1.472992   4.288753   4.608780
     9  O    4.699917   3.541615   2.312322   4.950458   5.653735
    10  O    4.145753   2.721354   2.324292   4.999386   4.786171
    11  C    2.400813   2.835836   2.471794   1.382101   3.381369
    12  H    3.394169   3.920329   3.452266   2.151887   4.290233
    13  C    2.843264   2.485817   1.465124   2.493060   3.928360
    14  H    3.786370   3.334922   2.160489   3.364142   4.860416
    15  Br   4.046416   3.728900   2.812194   3.628609   5.028314
                    6          7          8          9         10
     6  H    0.000000
     7  H    4.341452   0.000000
     8  N    2.657047   5.370150   0.000000
     9  O    3.888434   6.012948   1.249048   0.000000
    10  O    2.404752   6.054572   1.243863   2.226587   0.000000
    11  C    3.918516   2.144043   3.813080   4.149391   4.794941
    12  H    5.003018   2.489080   4.679774   4.798846   5.748876
    13  C    3.464662   3.475788   2.501842   2.688591   3.623886
    14  H    4.222698   4.268978   2.700314   2.434893   3.916224
    15  Br   4.569706   4.420610   3.411663   3.338935   4.434144
                   11         12         13         14         15
    11  C    0.000000
    12  H    1.084880   0.000000
    13  C    1.470034   2.189625   0.000000
    14  H    2.187771   2.543302   1.092353   0.000000
    15  Br   2.672762   2.955683   2.033334   2.535818   0.000000
 Symmetry turned off by external request.
 Stoichiometry    C6H5BrNO2(1+)
 Framework group  C1[X(C6H5BrNO2)]
 Deg. of freedom    39
 Full point group                 C1      NOp   1
 Rotational constants (GHZ):           1.1632986           0.9594224           0.5957624
 Leave Link  202 at Thu May  2 13:58:24 2024, MaxMem=   134217728 cpu:               1.1 elap:               1.1
 (Enter /software/gaussian/g16-c01/sse4/g16/l301.exe)
 Standard basis: 6-311+G(d) (5D, 7F)
 Ernie: Thresh=  0.10000D-02 Tol=  0.10000D-05 Strict=F.
 The following finite field(s) will be applied:
 An electric field of              0.0000  0.0000 -0.0223
   261 basis functions,   443 primitive gaussians,   273 cartesian basis functions
    49 alpha electrons       49 beta electrons
       nuclear repulsion energy       772.8945969580 Hartrees.
 IExCor= 4639 DFT=T Ex+Corr=wB97XD ExCW=0 ScaHFX=  1.000000
 ScaDFX=  1.000000  1.000000  1.000000  1.000000 ScalE2=  1.000000  1.000000
 IRadAn=      5 IRanWt=     -1 IRanGd=            0 ICorTp=0 IEmpDi=121
 HFx  wShort=  0.000000 wLong=  0.200000 cFull=  0.222036 cShort=  0.000000 cLong=  0.777964
 DFx  wShort=  0.000000 wLong=  0.200000 cFull=  0.000000 cShort=  0.000000 cLong=  1.000000
 NAtoms=   15 NActive=   15 NUniq=   15 SFac= 1.00D+00 NAtFMM=   60 NAOKFM=F Big=F
 Integral buffers will be    131072 words long.
 Raffenetti 2 integral format.
 Two-electron integral symmetry is turned off.
 R6Disp:  Grimme-D2 Dispersion energy=       -0.0080346408 Hartrees.
 Nuclear repulsion after empirical dispersion term =      772.8865623173 Hartrees.
 Leave Link  301 at Thu May  2 13:58:25 2024, MaxMem=   134217728 cpu:               1.0 elap:               1.1
 (Enter /software/gaussian/g16-c01/sse4/g16/l302.exe)
 NPDir=0 NMtPBC=     1 NCelOv=     1 NCel=       1 NClECP=     1 NCelD=      1
         NCelK=      1 NCelE2=     1 NClLst=     1 CellRange=     0.0.
 One-electron integrals computed using PRISM.
 NBasis=   261 RedAO= T EigKep=  2.52D-06  NBF=   261
 NBsUse=   261 1.00D-06 EigRej= -1.00D+00 NBFU=   261
 Precomputing XC quadrature grid using
 IXCGrd= 4 IRadAn=           5 IRanWt=          -1 IRanGd=           0 AccXCQ= 0.00D+00.
 Generated NRdTot=       0 NPtTot=           0 NUsed=           0 NTot=          32
 NSgBfM=   273   273   273   273   273 MxSgAt=    15 MxSgA2=    15.
 Leave Link  302 at Thu May  2 13:58:47 2024, MaxMem=   134217728 cpu:              22.0 elap:              22.0
 (Enter /software/gaussian/g16-c01/sse4/g16/l303.exe)
 DipDrv:  MaxL=1.
 The nuclear repulsion energy is now       775.6444646039 hartrees.
 Leave Link  303 at Thu May  2 13:58:50 2024, MaxMem=   134217728 cpu:               3.3 elap:               3.3
 (Enter /software/gaussian/g16-c01/sse4/g16/l401.exe)
 ExpMin= 3.50D-02 ExpMax= 4.40D+05 ExpMxC= 1.51D+04 IAcc=3 IRadAn=         5 AccDes= 0.00D+00
 Harris functional with IExCor= 4639 and IRadAn=       5 diagonalized for initial guess.
 HarFok:  IExCor= 4639 AccDes= 0.00D+00 IRadAn=         5 IDoV= 1 UseB2=F ITyADJ=14
 ICtDFT=  3500011 ScaDFX=  1.000000  1.000000  1.000000  1.000000
 FoFCou: FMM=F IPFlag=           0 FMFlag=      100000 FMFlg1=           0
         NFxFlg=           0 DoJE=T BraDBF=F KetDBF=T FulRan=T
         wScrn=  0.000000 ICntrl=       500 IOpCl=  0 I1Cent=   200000004 NGrid=           0
         NMat0=    1 NMatS0=      1 NMatT0=    0 NMatD0=    1 NMtDS0=    0 NMtDT0=    0
 Symmetry not used in FoFCou.
 Harris En= -2970.69163021523    
 JPrj=0 DoOrth=F DoCkMO=F.
 Leave Link  401 at Thu May  2 13:59:22 2024, MaxMem=   134217728 cpu:              31.4 elap:              31.4
 (Enter /software/gaussian/g16-c01/sse4/g16/l502.exe)
 Two-electron integral symmetry not used.
 Closed shell SCF:
 Using DIIS extrapolation, IDIIS=  1040.
 NGot=   134217728 LenX=   134063053 LenY=   133988083
 Requested convergence on RMS density matrix=1.00D-08 within 128 cycles.
 Requested convergence on MAX density matrix=1.00D-06.
 Requested convergence on             energy=1.00D-06.
 No special actions if energy rises.
 Fock matrices will be formed incrementally for  20 cycles.

 Cycle   1  Pass 1  IDiag  1:
 FoFJK:  IHMeth= 1 ICntrl=       0 DoSepK=T KAlg= 0 I1Cent=           0 FoldK=F
 IRaf=         1 NMat=       1 IRICut=       1 DoRegI=T DoRafI=F ISym2E= 0 IDoP0=0 IntGTp=1.
 FoFCou: FMM=F IPFlag=           0 FMFlag=      100000 FMFlg1=           0
         NFxFlg=           0 DoJE=T BraDBF=F KetDBF=F FulRan=T
         wScrn=  0.000000 ICntrl=       500 IOpCl=  0 I1Cent=           0 NGrid=           0
         NMat0=    1 NMatS0=      1 NMatT0=    0 NMatD0=    1 NMtDS0=    0 NMtDT0=    0
 Symmetry not used in FoFCou.
 E= -3008.23296979783    
 DIIS: error= 2.92D-01 at cycle   1 NSaved=   1.
 NSaved= 1 IEnMin= 1 EnMin= -3008.23296979783     IErMin= 1 ErrMin= 2.92D-01
 ErrMax= 2.92D-01  0.00D+00 EMaxC= 1.00D-01 BMatC= 1.25D+01 BMatP= 1.25D+01
 IDIUse=3 WtCom= 0.00D+00 WtEn= 1.00D+00
 Coeff-Com:  0.100D+01
 Coeff-En:   0.100D+01
 Coeff:      0.100D+01
 Gap=     0.114 Goal=   None    Shift=    0.000
 GapD=    0.114 DampG=1.000 DampE=0.250 DampFc=0.2500 IDamp=-1.
 Damping current iteration by 2.50D-01
 RMSDP=2.56D+00 MaxDP=2.69D+02              OVMax= 7.95D-01

 Cycle   2  Pass 1  IDiag  1:
 RMSU=  2.89D-02    CP:  7.55D-01
 E= -3008.78569361365     Delta-E=       -0.552723815819 Rises=F Damp=T
 DIIS: error= 2.20D-01 at cycle   2 NSaved=   2.
 NSaved= 2 IEnMin= 2 EnMin= -3008.78569361365     IErMin= 2 ErrMin= 2.20D-01
 ErrMax= 2.20D-01  0.00D+00 EMaxC= 1.00D-01 BMatC= 5.63D+00 BMatP= 1.25D+01
 IDIUse=3 WtCom= 0.00D+00 WtEn= 1.00D+00
 Coeff-Com: -0.134D+01 0.234D+01
 Coeff-En:   0.182D+00 0.818D+00
 Coeff:      0.182D+00 0.818D+00
 Gap=     0.649 Goal=   None    Shift=    0.000
 RMSDP=1.92D+00 MaxDP=2.02D+02 DE=-5.53D-01 OVMax= 8.71D-01

 Cycle   3  Pass 1  IDiag  1:
 RMSU=  2.23D-02    CP:  1.88D-02  2.53D+00
 E= -3010.08851113455     Delta-E=       -1.302817520894 Rises=F Damp=F
 DIIS: error= 8.35D-02 at cycle   3 NSaved=   3.
 NSaved= 3 IEnMin= 3 EnMin= -3010.08851113455     IErMin= 3 ErrMin= 8.35D-02
 ErrMax= 8.35D-02  0.00D+00 EMaxC= 1.00D-01 BMatC= 1.43D+00 BMatP= 5.63D+00
 IDIUse=3 WtCom= 1.65D-01 WtEn= 8.35D-01
 Coeff-Com:  0.142D+00 0.102D+00 0.756D+00
 Coeff-En:   0.751D-01 0.000D+00 0.925D+00
 Coeff:      0.860D-01 0.169D-01 0.897D+00
 Gap=     0.299 Goal=   None    Shift=    0.000
 RMSDP=3.44D-02 MaxDP=2.80D+00 DE=-1.30D+00 OVMax= 2.82D-01

 Cycle   4  Pass 1  IDiag  1:
 RMSU=  2.85D-02    CP:  1.91D-02  1.87D+00  8.68D-01
 E= -3010.18431480457     Delta-E=       -0.095803670027 Rises=F Damp=F
 DIIS: error= 6.16D-02 at cycle   4 NSaved=   4.
 NSaved= 4 IEnMin= 4 EnMin= -3010.18431480457     IErMin= 4 ErrMin= 6.16D-02
 ErrMax= 6.16D-02  0.00D+00 EMaxC= 1.00D-01 BMatC= 9.16D-01 BMatP= 1.43D+00
 IDIUse=3 WtCom= 3.84D-01 WtEn= 6.16D-01
 Coeff-Com:  0.753D-01-0.590D-01 0.477D+00 0.507D+00
 Coeff-En:   0.000D+00 0.000D+00 0.439D+00 0.561D+00
 Coeff:      0.289D-01-0.227D-01 0.454D+00 0.540D+00
 Gap=     0.292 Goal=   None    Shift=    0.000
 RMSDP=1.85D-02 MaxDP=1.96D+00 DE=-9.58D-02 OVMax= 1.84D-01

 Cycle   5  Pass 1  IDiag  1:
 RMSU=  8.75D-03    CP:  1.58D-02  1.76D+00  8.59D-01  5.28D-01
 E= -3010.48026069790     Delta-E=       -0.295945893325 Rises=F Damp=F
 DIIS: error= 3.40D-02 at cycle   5 NSaved=   5.
 NSaved= 5 IEnMin= 5 EnMin= -3010.48026069790     IErMin= 5 ErrMin= 3.40D-02
 ErrMax= 3.40D-02  0.00D+00 EMaxC= 1.00D-01 BMatC= 8.68D-02 BMatP= 9.16D-01
 IDIUse=3 WtCom= 6.60D-01 WtEn= 3.40D-01
 Coeff-Com:  0.384D-01-0.414D-01 0.276D+00 0.342D+00 0.385D+00
 Coeff-En:   0.000D+00 0.000D+00 0.000D+00 0.112D+00 0.888D+00
 Coeff:      0.253D-01-0.273D-01 0.182D+00 0.264D+00 0.556D+00
 Gap=     0.283 Goal=   None    Shift=    0.000
 RMSDP=6.84D-03 MaxDP=5.89D-01 DE=-2.96D-01 OVMax= 1.67D-01

 Cycle   6  Pass 1  IDiag  1:
 RMSU=  4.06D-03    CP:  1.63D-02  1.61D+00  8.45D-01  6.01D-01  7.52D-01
 E= -3010.52146022189     Delta-E=       -0.041199523992 Rises=F Damp=F
 DIIS: error= 2.19D-02 at cycle   6 NSaved=   6.
 NSaved= 6 IEnMin= 6 EnMin= -3010.52146022189     IErMin= 6 ErrMin= 2.19D-02
 ErrMax= 2.19D-02  0.00D+00 EMaxC= 1.00D-01 BMatC= 3.11D-02 BMatP= 8.68D-02
 IDIUse=3 WtCom= 7.81D-01 WtEn= 2.19D-01
 Coeff-Com:  0.283D-02-0.415D-02 0.365D-01 0.627D-01 0.374D+00 0.528D+00
 Coeff-En:   0.000D+00 0.000D+00 0.000D+00 0.000D+00 0.298D+00 0.702D+00
 Coeff:      0.221D-02-0.324D-02 0.285D-01 0.490D-01 0.357D+00 0.566D+00
 Gap=     0.245 Goal=   None    Shift=    0.000
 RMSDP=3.02D-03 MaxDP=3.20D-01 DE=-4.12D-02 OVMax= 7.54D-02

 Cycle   7  Pass 1  IDiag  1:
 RMSU=  1.43D-03    CP:  1.69D-02  1.64D+00  8.69D-01  5.72D-01  8.98D-01
                    CP:  6.95D-01
 E= -3010.54194454758     Delta-E=       -0.020484325689 Rises=F Damp=F
 DIIS: error= 3.58D-03 at cycle   7 NSaved=   7.
 NSaved= 7 IEnMin= 7 EnMin= -3010.54194454758     IErMin= 7 ErrMin= 3.58D-03
 ErrMax= 3.58D-03  0.00D+00 EMaxC= 1.00D-01 BMatC= 1.22D-03 BMatP= 3.11D-02
 IDIUse=3 WtCom= 9.64D-01 WtEn= 3.58D-02
 Coeff-Com: -0.415D-03 0.235D-03-0.111D-01-0.845D-02 0.140D+00 0.317D+00
 Coeff-Com:  0.563D+00
 Coeff-En:   0.000D+00 0.000D+00 0.000D+00 0.000D+00 0.000D+00 0.000D+00
 Coeff-En:   0.100D+01
 Coeff:     -0.400D-03 0.226D-03-0.107D-01-0.814D-02 0.135D+00 0.305D+00
 Coeff:      0.579D+00
 Gap=     0.244 Goal=   None    Shift=    0.000
 RMSDP=9.49D-04 MaxDP=1.02D-01 DE=-2.05D-02 OVMax= 1.08D-02

 Cycle   8  Pass 1  IDiag  1:
 RMSU=  4.18D-04    CP:  1.68D-02  1.62D+00  8.59D-01  5.70D-01  9.21D-01
                    CP:  8.15D-01  8.65D-01
 E= -3010.54280106306     Delta-E=       -0.000856515479 Rises=F Damp=F
 DIIS: error= 6.49D-04 at cycle   8 NSaved=   8.
 NSaved= 8 IEnMin= 8 EnMin= -3010.54280106306     IErMin= 8 ErrMin= 6.49D-04
 ErrMax= 6.49D-04  0.00D+00 EMaxC= 1.00D-01 BMatC= 7.10D-05 BMatP= 1.22D-03
 IDIUse=3 WtCom= 9.94D-01 WtEn= 6.49D-03
 Coeff-Com: -0.162D-02 0.186D-02-0.801D-02-0.846D-02 0.151D-01 0.598D-01
 Coeff-Com:  0.257D+00 0.685D+00
 Coeff-En:   0.000D+00 0.000D+00 0.000D+00 0.000D+00 0.000D+00 0.000D+00
 Coeff-En:   0.000D+00 0.100D+01
 Coeff:     -0.161D-02 0.185D-02-0.796D-02-0.841D-02 0.150D-01 0.594D-01
 Coeff:      0.255D+00 0.687D+00
 Gap=     0.242 Goal=   None    Shift=    0.000
 RMSDP=2.89D-04 MaxDP=2.73D-02 DE=-8.57D-04 OVMax= 2.45D-03

 Cycle   9  Pass 1  IDiag  1:
 RMSU=  9.07D-05    CP:  1.68D-02  1.63D+00  8.60D-01  5.71D-01  9.29D-01
                    CP:  8.20D-01  9.31D-01  1.06D+00
 E= -3010.54286021162     Delta-E=       -0.000059148563 Rises=F Damp=F
 DIIS: error= 1.57D-04 at cycle   9 NSaved=   9.
 NSaved= 9 IEnMin= 9 EnMin= -3010.54286021162     IErMin= 9 ErrMin= 1.57D-04
 ErrMax= 1.57D-04  0.00D+00 EMaxC= 1.00D-01 BMatC= 5.44D-06 BMatP= 7.10D-05
 IDIUse=3 WtCom= 9.98D-01 WtEn= 1.57D-03
 Coeff-Com: -0.103D-02 0.135D-02-0.153D-02-0.163D-02-0.819D-02-0.117D-01
 Coeff-Com:  0.309D-01 0.255D+00 0.737D+00
 Coeff-En:   0.000D+00 0.000D+00 0.000D+00 0.000D+00 0.000D+00 0.000D+00
 Coeff-En:   0.000D+00 0.000D+00 0.100D+01
 Coeff:     -0.103D-02 0.134D-02-0.153D-02-0.162D-02-0.818D-02-0.117D-01
 Coeff:      0.308D-01 0.255D+00 0.737D+00
 Gap=     0.243 Goal=   None    Shift=    0.000
 RMSDP=1.10D-04 MaxDP=1.32D-02 DE=-5.91D-05 OVMax= 1.66D-03

 Cycle  10  Pass 1  IDiag  1:
 RMSU=  7.67D-05    CP:  1.68D-02  1.63D+00  8.60D-01  5.71D-01  9.25D-01
                    CP:  8.20D-01  9.20D-01  1.03D+00  9.27D-01
 E= -3010.54286921807     Delta-E=       -0.000009006453 Rises=F Damp=F
 DIIS: error= 8.65D-05 at cycle  10 NSaved=  10.
 NSaved=10 IEnMin=10 EnMin= -3010.54286921807     IErMin=10 ErrMin= 8.65D-05
 ErrMax= 8.65D-05  0.00D+00 EMaxC= 1.00D-01 BMatC= 1.29D-06 BMatP= 5.44D-06
 IDIUse=1 WtCom= 1.00D+00 WtEn= 0.00D+00
 Coeff-Com: -0.737D-03 0.104D-02 0.410D-03 0.531D-03-0.542D-02-0.130D-01
 Coeff-Com: -0.341D-01-0.345D-01 0.267D+00 0.819D+00
 Coeff:     -0.737D-03 0.104D-02 0.410D-03 0.531D-03-0.542D-02-0.130D-01
 Coeff:     -0.341D-01-0.345D-01 0.267D+00 0.819D+00
 Gap=     0.243 Goal=   None    Shift=    0.000
 RMSDP=5.93D-05 MaxDP=5.32D-03 DE=-9.01D-06 OVMax= 1.24D-03

 Cycle  11  Pass 1  IDiag  1:
 RMSU=  1.96D-05    CP:  1.68D-02  1.63D+00  8.60D-01  5.71D-01  9.22D-01
                    CP:  8.21D-01  9.13D-01  9.77D-01  9.94D-01  1.42D+00
 E= -3010.54287201385     Delta-E=       -0.000002795772 Rises=F Damp=F
 DIIS: error= 2.51D-05 at cycle  11 NSaved=  11.
 NSaved=11 IEnMin=11 EnMin= -3010.54287201385     IErMin=11 ErrMin= 2.51D-05
 ErrMax= 2.51D-05  0.00D+00 EMaxC= 1.00D-01 BMatC= 2.81D-07 BMatP= 1.29D-06
 IDIUse=1 WtCom= 1.00D+00 WtEn= 0.00D+00
 Coeff-Com: -0.428D-03 0.595D-03 0.228D-03 0.495D-03 0.232D-04-0.125D-02
 Coeff-Com: -0.171D-01-0.534D-01-0.424D-01 0.241D+00 0.872D+00
 Coeff:     -0.428D-03 0.595D-03 0.228D-03 0.495D-03 0.232D-04-0.125D-02
 Coeff:     -0.171D-01-0.534D-01-0.424D-01 0.241D+00 0.872D+00
 Gap=     0.243 Goal=   None    Shift=    0.000
 RMSDP=4.41D-05 MaxDP=4.29D-03 DE=-2.80D-06 OVMax= 8.09D-04

 Cycle  12  Pass 1  IDiag  1:
 RMSU=  9.29D-06    CP:  1.68D-02  1.63D+00  8.59D-01  5.71D-01  9.20D-01
                    CP:  8.21D-01  9.02D-01  9.62D-01  1.04D+00  1.65D+00
                    CP:  1.40D+00
 E= -3010.54287277260     Delta-E=       -0.000000758758 Rises=F Damp=F
 DIIS: error= 1.37D-05 at cycle  12 NSaved=  12.
 NSaved=12 IEnMin=12 EnMin= -3010.54287277260     IErMin=12 ErrMin= 1.37D-05
 ErrMax= 1.37D-05  0.00D+00 EMaxC= 1.00D-01 BMatC= 7.44D-08 BMatP= 2.81D-07
 IDIUse=1 WtCom= 1.00D+00 WtEn= 0.00D+00
 Coeff-Com: -0.170D-03 0.221D-03-0.881D-04 0.121D-03 0.123D-02 0.232D-02
 Coeff-Com:  0.217D-02-0.586D-02-0.715D-01-0.126D+00 0.274D+00 0.924D+00
 Coeff:     -0.170D-03 0.221D-03-0.881D-04 0.121D-03 0.123D-02 0.232D-02
 Coeff:      0.217D-02-0.586D-02-0.715D-01-0.126D+00 0.274D+00 0.924D+00
 Gap=     0.243 Goal=   None    Shift=    0.000
 RMSDP=2.66D-05 MaxDP=2.81D-03 DE=-7.59D-07 OVMax= 5.45D-04

 Cycle  13  Pass 1  IDiag  1:
 RMSU=  3.82D-06    CP:  1.68D-02  1.63D+00  8.59D-01  5.71D-01  9.19D-01
                    CP:  8.21D-01  8.97D-01  9.47D-01  1.03D+00  1.79D+00
                    CP:  1.77D+00  1.41D+00
 E= -3010.54287302332     Delta-E=       -0.000000250718 Rises=F Damp=F
 DIIS: error= 1.01D-05 at cycle  13 NSaved=  13.
 NSaved=13 IEnMin=13 EnMin= -3010.54287302332     IErMin=13 ErrMin= 1.01D-05
 ErrMax= 1.01D-05  0.00D+00 EMaxC= 1.00D-01 BMatC= 1.41D-08 BMatP= 7.44D-08
 IDIUse=1 WtCom= 1.00D+00 WtEn= 0.00D+00
 Coeff-Com: -0.169D-04 0.201D-04-0.498D-04-0.411D-04 0.231D-03 0.564D-03
 Coeff-Com:  0.498D-02 0.128D-01 0.243D-02-0.732D-01-0.180D+00 0.188D+00
 Coeff-Com:  0.104D+01
 Coeff:     -0.169D-04 0.201D-04-0.498D-04-0.411D-04 0.231D-03 0.564D-03
 Coeff:      0.498D-02 0.128D-01 0.243D-02-0.732D-01-0.180D+00 0.188D+00
 Coeff:      0.104D+01
 Gap=     0.243 Goal=   None    Shift=    0.000
 RMSDP=1.19D-05 MaxDP=1.21D-03 DE=-2.51D-07 OVMax= 3.01D-04

 Cycle  14  Pass 1  IDiag  1:
 RMSU=  1.99D-06    CP:  1.68D-02  1.63D+00  8.59D-01  5.71D-01  9.18D-01
                    CP:  8.21D-01  8.95D-01  9.42D-01  1.04D+00  1.84D+00
                    CP:  1.94D+00  1.85D+00  1.54D+00
 E= -3010.54287308557     Delta-E=       -0.000000062249 Rises=F Damp=F
 DIIS: error= 3.42D-06 at cycle  14 NSaved=  14.
 NSaved=14 IEnMin=14 EnMin= -3010.54287308557     IErMin=14 ErrMin= 3.42D-06
 ErrMax= 3.42D-06  0.00D+00 EMaxC= 1.00D-01 BMatC= 1.91D-09 BMatP= 1.41D-08
 IDIUse=1 WtCom= 1.00D+00 WtEn= 0.00D+00
 Coeff-Com:  0.174D-04-0.223D-04-0.779D-06-0.391D-04-0.178D-03-0.289D-03
 Coeff-Com:  0.144D-02 0.552D-02 0.151D-01-0.517D-03-0.118D+00-0.100D+00
 Coeff-Com:  0.372D+00 0.825D+00
 Coeff:      0.174D-04-0.223D-04-0.779D-06-0.391D-04-0.178D-03-0.289D-03
 Coeff:      0.144D-02 0.552D-02 0.151D-01-0.517D-03-0.118D+00-0.100D+00
 Coeff:      0.372D+00 0.825D+00
 Gap=     0.243 Goal=   None    Shift=    0.000
 RMSDP=2.72D-06 MaxDP=1.75D-04 DE=-6.22D-08 OVMax= 1.13D-04

 Cycle  15  Pass 1  IDiag  1:
 RMSU=  8.98D-07    CP:  1.68D-02  1.63D+00  8.59D-01  5.71D-01  9.18D-01
                    CP:  8.21D-01  8.96D-01  9.41D-01  1.04D+00  1.85D+00
                    CP:  2.00D+00  1.97D+00  1.81D+00  1.36D+00
 E= -3010.54287309557     Delta-E=       -0.000000010002 Rises=F Damp=F
 DIIS: error= 2.23D-06 at cycle  15 NSaved=  15.
 NSaved=15 IEnMin=15 EnMin= -3010.54287309557     IErMin=15 ErrMin= 2.23D-06
 ErrMax= 2.23D-06  0.00D+00 EMaxC= 1.00D-01 BMatC= 3.27D-10 BMatP= 1.91D-09
 IDIUse=1 WtCom= 1.00D+00 WtEn= 0.00D+00
 Coeff-Com:  0.149D-04-0.202D-04 0.566D-05 0.570D-08-0.499D-04-0.701D-04
 Coeff-Com: -0.782D-03-0.230D-02-0.107D-02 0.118D-01 0.306D-01-0.332D-01
 Coeff-Com: -0.169D+00 0.333D-02 0.116D+01
 Coeff:      0.149D-04-0.202D-04 0.566D-05 0.570D-08-0.499D-04-0.701D-04
 Coeff:     -0.782D-03-0.230D-02-0.107D-02 0.118D-01 0.306D-01-0.332D-01
 Coeff:     -0.169D+00 0.333D-02 0.116D+01
 Gap=     0.243 Goal=   None    Shift=    0.000
 RMSDP=2.40D-06 MaxDP=1.97D-04 DE=-1.00D-08 OVMax= 6.03D-05

 Cycle  16  Pass 1  IDiag  1:
 RMSU=  3.36D-07    CP:  1.68D-02  1.63D+00  8.59D-01  5.71D-01  9.18D-01
                    CP:  8.21D-01  8.96D-01  9.42D-01  1.04D+00  1.86D+00
                    CP:  2.02D+00  2.03D+00  1.93D+00  1.77D+00  1.40D+00
 E= -3010.54287309793     Delta-E=       -0.000000002353 Rises=F Damp=F
 DIIS: error= 8.42D-07 at cycle  16 NSaved=  16.
 NSaved=16 IEnMin=16 EnMin= -3010.54287309793     IErMin=16 ErrMin= 8.42D-07
 ErrMax= 8.42D-07  0.00D+00 EMaxC= 1.00D-01 BMatC= 8.79D-11 BMatP= 3.27D-10
 IDIUse=1 WtCom= 1.00D+00 WtEn= 0.00D+00
 Coeff-Com:  0.662D-05-0.928D-05-0.320D-07 0.260D-05 0.309D-04 0.692D-04
 Coeff-Com: -0.309D-03-0.129D-02-0.341D-02 0.224D-03 0.270D-01 0.174D-01
 Coeff-Com: -0.837D-01-0.175D+00 0.104D+00 0.112D+01
 Coeff:      0.662D-05-0.928D-05-0.320D-07 0.260D-05 0.309D-04 0.692D-04
 Coeff:     -0.309D-03-0.129D-02-0.341D-02 0.224D-03 0.270D-01 0.174D-01
 Coeff:     -0.837D-01-0.175D+00 0.104D+00 0.112D+01
 Gap=     0.243 Goal=   None    Shift=    0.000
 RMSDP=9.95D-07 MaxDP=7.58D-05 DE=-2.35D-09 OVMax= 2.75D-05

 Cycle  17  Pass 1  IDiag  1:
 RMSU=  1.76D-07    CP:  1.68D-02  1.63D+00  8.59D-01  5.71D-01  9.18D-01
                    CP:  8.21D-01  8.96D-01  9.42D-01  1.04D+00  1.86D+00
                    CP:  2.02D+00  2.05D+00  1.98D+00  1.91D+00  1.69D+00
                    CP:  1.35D+00
 E= -3010.54287309837     Delta-E=       -0.000000000446 Rises=F Damp=F
 DIIS: error= 2.36D-07 at cycle  17 NSaved=  17.
 NSaved=17 IEnMin=17 EnMin= -3010.54287309837     IErMin=17 ErrMin= 2.36D-07
 ErrMax= 2.36D-07  0.00D+00 EMaxC= 1.00D-01 BMatC= 1.64D-11 BMatP= 8.79D-11
 IDIUse=1 WtCom= 1.00D+00 WtEn= 0.00D+00
 Coeff-Com:  0.214D-05-0.296D-05-0.514D-06-0.330D-06 0.211D-04 0.384D-04
 Coeff-Com:  0.590D-04 0.297D-04-0.890D-03-0.243D-02 0.281D-02 0.114D-01
 Coeff-Com:  0.745D-02-0.561D-01-0.170D+00 0.326D+00 0.882D+00
 Coeff:      0.214D-05-0.296D-05-0.514D-06-0.330D-06 0.211D-04 0.384D-04
 Coeff:      0.590D-04 0.297D-04-0.890D-03-0.243D-02 0.281D-02 0.114D-01
 Coeff:      0.745D-02-0.561D-01-0.170D+00 0.326D+00 0.882D+00
 Gap=     0.243 Goal=   None    Shift=    0.000
 RMSDP=1.91D-07 MaxDP=1.48D-05 DE=-4.46D-10 OVMax= 8.09D-06

 Cycle  18  Pass 1  IDiag  1:
 RMSU=  4.85D-08    CP:  1.68D-02  1.63D+00  8.59D-01  5.71D-01  9.18D-01
                    CP:  8.21D-01  8.96D-01  9.42D-01  1.04D+00  1.86D+00
                    CP:  2.03D+00  2.05D+00  1.99D+00  1.93D+00  1.78D+00
                    CP:  1.47D+00  1.34D+00
 E= -3010.54287309839     Delta-E=       -0.000000000023 Rises=F Damp=F
 DIIS: error= 7.78D-08 at cycle  18 NSaved=  18.
 NSaved=18 IEnMin=18 EnMin= -3010.54287309839     IErMin=18 ErrMin= 7.78D-08
 ErrMax= 7.78D-08  0.00D+00 EMaxC= 1.00D-01 BMatC= 1.98D-12 BMatP= 1.64D-11
 IDIUse=1 WtCom= 1.00D+00 WtEn= 0.00D+00
 Coeff-Com:  0.247D-06-0.299D-06 0.465D-06-0.269D-06 0.318D-05 0.208D-05
 Coeff-Com:  0.598D-04 0.186D-03 0.237D-03-0.726D-03-0.328D-02 0.365D-03
 Coeff-Com:  0.154D-01 0.140D-01-0.516D-01-0.111D+00 0.183D+00 0.953D+00
 Coeff:      0.247D-06-0.299D-06 0.465D-06-0.269D-06 0.318D-05 0.208D-05
 Coeff:      0.598D-04 0.186D-03 0.237D-03-0.726D-03-0.328D-02 0.365D-03
 Coeff:      0.154D-01 0.140D-01-0.516D-01-0.111D+00 0.183D+00 0.953D+00
 Gap=     0.243 Goal=   None    Shift=    0.000
 RMSDP=6.37D-08 MaxDP=2.94D-06 DE=-2.27D-11 OVMax= 2.18D-06

 Cycle  19  Pass 1  IDiag  1:
 RMSU=  2.16D-08    CP:  1.68D-02  1.63D+00  8.59D-01  5.71D-01  9.18D-01
                    CP:  8.21D-01  8.96D-01  9.42D-01  1.04D+00  1.86D+00
                    CP:  2.03D+00  2.05D+00  2.00D+00  1.93D+00  1.80D+00
                    CP:  1.51D+00  1.49D+00  1.29D+00
 E= -3010.54287309839     Delta-E=        0.000000000000 Rises=F Damp=F
 DIIS: error= 1.97D-08 at cycle  19 NSaved=  19.
 NSaved=19 IEnMin=18 EnMin= -3010.54287309839     IErMin=19 ErrMin= 1.97D-08
 ErrMax= 1.97D-08  0.00D+00 EMaxC= 1.00D-01 BMatC= 2.24D-13 BMatP= 1.98D-12
 IDIUse=1 WtCom= 1.00D+00 WtEn= 0.00D+00
 Coeff-Com:  0.618D-07-0.651D-07 0.224D-06-0.483D-07-0.976D-06-0.304D-05
 Coeff-Com:  0.694D-05 0.391D-04 0.136D-03 0.201D-04-0.116D-02-0.126D-02
 Coeff-Com:  0.237D-02 0.951D-02 0.127D-01-0.648D-01-0.604D-01 0.264D+00
 Coeff-Com:  0.838D+00
 Coeff:      0.618D-07-0.651D-07 0.224D-06-0.483D-07-0.976D-06-0.304D-05
 Coeff:      0.694D-05 0.391D-04 0.136D-03 0.201D-04-0.116D-02-0.126D-02
 Coeff:      0.237D-02 0.951D-02 0.127D-01-0.648D-01-0.604D-01 0.264D+00
 Coeff:      0.838D+00
 Gap=     0.243 Goal=   None    Shift=    0.000
 RMSDP=3.78D-08 MaxDP=3.07D-06 DE= 0.00D+00 OVMax= 5.48D-07

 Cycle  20  Pass 1  IDiag  1:
 RMSU=  8.12D-09    CP:  1.68D-02  1.63D+00  8.59D-01  5.71D-01  9.18D-01
                    CP:  8.21D-01  8.96D-01  9.42D-01  1.04D+00  1.86D+00
                    CP:  2.03D+00  2.05D+00  2.00D+00  1.93D+00  1.80D+00
                    CP:  1.51D+00  1.51D+00  1.40D+00  1.24D+00
 E= -3010.54287309840     Delta-E=       -0.000000000008 Rises=F Damp=F
 DIIS: error= 9.64D-09 at cycle  20 NSaved=  20.
 NSaved=20 IEnMin=20 EnMin= -3010.54287309840     IErMin=20 ErrMin= 9.64D-09
 ErrMax= 9.64D-09  0.00D+00 EMaxC= 1.00D-01 BMatC= 3.23D-14 BMatP= 2.24D-13
 IDIUse=1 WtCom= 1.00D+00 WtEn= 0.00D+00
 Coeff-Com: -0.569D-07 0.746D-07-0.192D-08 0.838D-07-0.516D-06-0.975D-06
 Coeff-Com: -0.910D-05-0.227D-04-0.547D-05 0.147D-03 0.321D-03-0.324D-03
 Coeff-Com: -0.214D-02-0.282D-03 0.123D-01-0.407D-03-0.459D-01-0.761D-01
 Coeff-Com:  0.221D+00 0.891D+00
 Coeff:     -0.569D-07 0.746D-07-0.192D-08 0.838D-07-0.516D-06-0.975D-06
 Coeff:     -0.910D-05-0.227D-04-0.547D-05 0.147D-03 0.321D-03-0.324D-03
 Coeff:     -0.214D-02-0.282D-03 0.123D-01-0.407D-03-0.459D-01-0.761D-01
 Coeff:      0.221D+00 0.891D+00
 Gap=     0.243 Goal=   None    Shift=    0.000
 RMSDP=1.07D-08 MaxDP=1.11D-06 DE=-8.19D-12 OVMax= 2.15D-07

 Cycle  21  Pass 1  IDiag  1:
 Restarting incremental Fock formation.
 E= -3010.54287309838     Delta-E=        0.000000000027 Rises=F Damp=F
 DIIS: error= 4.71D-09 at cycle  21 NSaved=  20.
 NSaved=20 IEnMin=19 EnMin= -3010.54287309840     IErMin=20 ErrMin= 4.71D-09
 ErrMax= 4.71D-09  0.00D+00 EMaxC= 1.00D-01 BMatC= 7.88D-15 BMatP= 3.23D-14
 IDIUse=1 WtCom= 1.00D+00 WtEn= 0.00D+00
 Coeff-Com: -0.271D-08-0.138D-07 0.370D-07 0.681D-07 0.185D-06-0.273D-05
 Coeff-Com: -0.122D-04-0.264D-04 0.273D-04 0.225D-03 0.869D-04-0.878D-03
 Coeff-Com: -0.154D-02 0.146D-02 0.985D-02 0.118D-02-0.500D-01-0.913D-01
 Coeff-Com:  0.180D+00 0.951D+00
 Coeff:     -0.271D-08-0.138D-07 0.370D-07 0.681D-07 0.185D-06-0.273D-05
 Coeff:     -0.122D-04-0.264D-04 0.273D-04 0.225D-03 0.869D-04-0.878D-03
 Coeff:     -0.154D-02 0.146D-02 0.985D-02 0.118D-02-0.500D-01-0.913D-01
 Coeff:      0.180D+00 0.951D+00
 Gap=     0.243 Goal=   None    Shift=    0.000
 RMSDP=7.17D-09 MaxDP=6.44D-07 DE= 2.73D-11 OVMax= 8.18D-08

 SCF Done:  E(RwB97XD) =  -3010.54287310     A.U. after   21 cycles
            NFock= 21  Conv=0.72D-08     -V/T= 2.0016
 KE= 3.005859203477D+03 PE=-8.702829522777D+03 EE= 1.910782981598D+03
 Leave Link  502 at Thu May  2 14:21:10 2024, MaxMem=   134217728 cpu:            1308.2 elap:            1308.4
 (Enter /software/gaussian/g16-c01/sse4/g16/l601.exe)
 Copying SCF densities to generalized density rwf, IOpCl= 0 IROHF=0.

 **********************************************************************

            Population analysis using the SCF Density.

 **********************************************************************

 Alpha  occ. eigenvalues -- -483.35089 -62.90157 -56.69785 -56.69305 -56.69300
 Alpha  occ. eigenvalues --  -19.46888 -19.46820 -14.86330 -10.60551 -10.60263
 Alpha  occ. eigenvalues --  -10.58689 -10.58572 -10.54699 -10.53995  -9.05994
 Alpha  occ. eigenvalues --   -6.88497  -6.86897  -6.86887  -2.98442  -2.98013
 Alpha  occ. eigenvalues --   -2.98005  -2.96723  -2.96722  -1.50540  -1.33484
 Alpha  occ. eigenvalues --   -1.24043  -1.15033  -1.13798  -1.07525  -1.01779
 Alpha  occ. eigenvalues --   -0.96820  -0.91874  -0.85887  -0.81967  -0.81289
 Alpha  occ. eigenvalues --   -0.80919  -0.79120  -0.77100  -0.76783  -0.74114
 Alpha  occ. eigenvalues --   -0.69927  -0.68929  -0.65484  -0.62733  -0.60790
 Alpha  occ. eigenvalues --   -0.58265  -0.57868  -0.56630  -0.56347
 Alpha virt. eigenvalues --   -0.32039  -0.21574  -0.20115  -0.17454  -0.14520
 Alpha virt. eigenvalues --   -0.13778  -0.12350  -0.09787  -0.08457  -0.07658
 Alpha virt. eigenvalues --   -0.05683  -0.05386  -0.03270  -0.02693  -0.02067
 Alpha virt. eigenvalues --   -0.01733   0.00009   0.00671   0.01977   0.02124
 Alpha virt. eigenvalues --    0.03755   0.04500   0.04684   0.05229   0.06687
 Alpha virt. eigenvalues --    0.07309   0.07629   0.08049   0.08454   0.08965
 Alpha virt. eigenvalues --    0.09792   0.10935   0.11229   0.11881   0.12884
 Alpha virt. eigenvalues --    0.13122   0.13336   0.14188   0.14815   0.15652
 Alpha virt. eigenvalues --    0.16354   0.17572   0.17933   0.18534   0.19222
 Alpha virt. eigenvalues --    0.20178   0.20787   0.21833   0.22173   0.23269
 Alpha virt. eigenvalues --    0.24054   0.25106   0.26520   0.28073   0.28545
 Alpha virt. eigenvalues --    0.30366   0.32723   0.33463   0.33692   0.34992
 Alpha virt. eigenvalues --    0.36401   0.37526   0.38247   0.39058   0.40502
 Alpha virt. eigenvalues --    0.43058   0.43746   0.44532   0.46157   0.46974
 Alpha virt. eigenvalues --    0.47539   0.48901   0.49252   0.50247   0.52715
 Alpha virt. eigenvalues --    0.53658   0.55130   0.57025   0.57429   0.59060
 Alpha virt. eigenvalues --    0.59952   0.61202   0.62674   0.64967   0.67087
 Alpha virt. eigenvalues --    0.70365   0.70582   0.72180   0.72932   0.73552
 Alpha virt. eigenvalues --    0.73872   0.76701   0.79104   0.80227   0.84129
 Alpha virt. eigenvalues --    0.85420   0.86883   0.90626   0.92757   0.97955
 Alpha virt. eigenvalues --    0.99524   1.01279   1.02822   1.04480   1.06056
 Alpha virt. eigenvalues --    1.07808   1.12070   1.12771   1.13372   1.17089
 Alpha virt. eigenvalues --    1.20478   1.22215   1.27105   1.32264   1.35234
 Alpha virt. eigenvalues --    1.35802   1.37883   1.41526   1.53592   1.55693
 Alpha virt. eigenvalues --    1.56422   1.58929   1.60181   1.62950   1.64390
 Alpha virt. eigenvalues --    1.67250   1.70171   1.73215   1.74240   1.78255
 Alpha virt. eigenvalues --    1.82889   1.84230   1.86139   1.90629   1.92822
 Alpha virt. eigenvalues --    1.96772   2.00625   2.01828   2.05769   2.06989
 Alpha virt. eigenvalues --    2.11169   2.13281   2.21321   2.22878   2.26448
 Alpha virt. eigenvalues --    2.32501   2.39062   2.40742   2.43489   2.52141
 Alpha virt. eigenvalues --    2.57106   2.62130   2.64830   2.67662   2.71120
 Alpha virt. eigenvalues --    2.72899   2.75703   2.76539   2.79744   2.80859
 Alpha virt. eigenvalues --    2.91824   2.97099   3.00472   3.04538   3.07779
 Alpha virt. eigenvalues --    3.13751   3.15310   3.16560   3.21801   3.25900
 Alpha virt. eigenvalues --    3.26889   3.37096   3.45476   3.49203   3.53975
 Alpha virt. eigenvalues --    3.56609   3.68273   3.73607   3.82431   3.86085
 Alpha virt. eigenvalues --    4.05811   4.06618   4.15625   4.19616   4.39605
 Alpha virt. eigenvalues --    4.44479   4.53349   4.59040   4.93002   4.95885
 Alpha virt. eigenvalues --    5.04682   5.09204   5.61392   6.14603   6.63947
 Alpha virt. eigenvalues --    7.44570   7.46963   7.57261  23.20819  23.60070
 Alpha virt. eigenvalues --   23.69921  23.76617  23.94484  24.00909  35.30834
 Alpha virt. eigenvalues --   47.90166  49.84613  49.93277 289.77843 289.80188
 Alpha virt. eigenvalues --  289.928551020.91410
          Condensed to atoms (all electrons):
               1          2          3          4          5          6
     1  C    8.436994  -3.219737   1.374503  -0.296491   0.309619   0.043380
     2  C   -3.219737  19.129863  -6.453164   0.816905  -0.039295   0.178125
     3  C    1.374503  -6.453164  20.674498  -1.767145   0.052330   0.133134
     4  C   -0.296491   0.816905  -1.767145   6.658796   0.000201  -0.017632
     5  H    0.309619  -0.039295   0.052330   0.000201   0.324581  -0.001465
     6  H    0.043380   0.178125   0.133134  -0.017632  -0.001465   0.306100
     7  H    0.015210  -0.019877   0.025804   0.321951  -0.002633  -0.000006
     8  N   -0.144974   0.645264  -1.786211   0.027868  -0.000872  -0.031573
     9  O   -0.049881   0.117920  -0.446526  -0.004194  -0.000045  -0.002284
    10  O    0.275558  -0.526998   0.068227  -0.038228   0.000096   0.021994
    11  C    1.079912  -1.730047   2.286817  -0.443923  -0.022240   0.010357
    12  H   -0.010727   0.009803   0.016197   0.000019   0.000011  -0.000018
    13  C   -1.685261  -2.942579  -7.807301   0.993811   0.026797   0.002145
    14  H   -0.004227   0.016900   0.030913   0.006928  -0.000021   0.000011
    15  Br  -0.071004  -0.069596  -0.302433   0.105113  -0.000118  -0.000570
               7          8          9         10         11         12
     1  C    0.015210  -0.144974  -0.049881   0.275558   1.079912  -0.010727
     2  C   -0.019877   0.645264   0.117920  -0.526998  -1.730047   0.009803
     3  C    0.025804  -1.786211  -0.446526   0.068227   2.286817   0.016197
     4  C    0.321951   0.027868  -0.004194  -0.038228  -0.443923   0.000019
     5  H   -0.002633  -0.000872  -0.000045   0.000096  -0.022240   0.000011
     6  H   -0.000006  -0.031573  -0.002284   0.021994   0.010357  -0.000018
     7  H    0.328994   0.000006   0.000017  -0.000018   0.026928  -0.002020
     8  N    0.000006   7.707900   0.150558   0.048859  -0.264505   0.000096
     9  O    0.000017   0.150558   7.807351   0.008762   0.209042   0.000081
    10  O   -0.000018   0.048859   0.008762   7.899324   0.044443   0.000003
    11  C    0.026928  -0.264505   0.209042   0.044443   8.747523   0.327202
    12  H   -0.002020   0.000096   0.000081   0.000003   0.327202   0.307791
    13  C   -0.035364   0.753452   0.148334   0.127227  -4.044508  -0.008619
    14  H    0.000014  -0.014887   0.000807  -0.001894  -0.021967  -0.002616
    15  Br  -0.000365   0.108250  -0.032599  -0.003816  -0.069366  -0.004114
              13         14         15
     1  C   -1.685261  -0.004227  -0.071004
     2  C   -2.942579   0.016900  -0.069596
     3  C   -7.807301   0.030913  -0.302433
     4  C    0.993811   0.006928   0.105113
     5  H    0.026797  -0.000021  -0.000118
     6  H    0.002145   0.000011  -0.000570
     7  H   -0.035364   0.000014  -0.000365
     8  N    0.753452  -0.014887   0.108250
     9  O    0.148334   0.000807  -0.032599
    10  O    0.127227  -0.001894  -0.003816
    11  C   -4.044508  -0.021967  -0.069366
    12  H   -0.008619  -0.002616  -0.004114
    13  C   20.085936   0.286756   0.366124
    14  H    0.286756   0.240198  -0.019755
    15  Br   0.366124  -0.019755  35.034004
 Mulliken charges:
               1
     1  C   -0.052874
     2  C    0.086512
     3  C   -0.099643
     4  C   -0.363978
     5  H    0.353053
     6  H    0.358303
     7  H    0.341359
     8  N   -0.199233
     9  O    0.092656
    10  O    0.076459
    11  C   -0.135666
    12  H    0.366911
    13  C   -0.266948
    14  H    0.482842
    15  Br  -0.039754
 Sum of Mulliken charges =   1.00000
 Mulliken charges with hydrogens summed into heavy atoms:
               1
     1  C    0.300179
     2  C    0.444815
     3  C   -0.099643
     4  C   -0.022619
     8  N   -0.199233
     9  O    0.092656
    10  O    0.076459
    11  C    0.231245
    13  C    0.215894
    15  Br  -0.039754
 Electronic spatial extent (au):  <R**2>=           3951.3193
 Charge=              1.0000 electrons
 Dipole moment (field-independent basis, Debye):
    X=              2.4906    Y=             -0.0383    Z=              3.2611  Tot=              4.1036
 Quadrupole moment (field-independent basis, Debye-Ang):
   XX=            -67.7729   YY=            -52.5829   ZZ=            -67.7876
   XY=             -1.2542   XZ=              5.7001   YZ=             -1.4717
 Traceless Quadrupole moment (field-independent basis, Debye-Ang):
   XX=             -5.0584   YY=             10.1315   ZZ=             -5.0731
   XY=             -1.2542   XZ=              5.7001   YZ=             -1.4717
 Octapole moment (field-independent basis, Debye-Ang**2):
  XXX=           -509.9585  YYY=             98.9810  ZZZ=            105.0957  XYY=           -140.5416
  XXY=             28.1745  XXZ=             51.2117  XZZ=           -144.8207  YZZ=             28.3975
  YYZ=             38.8767  XYZ=             -0.7392
 Hexadecapole moment (field-independent basis, Debye-Ang**3):
 XXXX=          -3421.6244 YYYY=           -718.9379 ZZZZ=           -453.9512 XXXY=            187.0197
 XXXZ=            273.2557 YYYX=            200.1558 YYYZ=           -197.7168 ZZZX=            214.2717
 ZZZY=           -179.8202 XXYY=           -633.3865 XXZZ=           -557.2867 YYZZ=           -198.6140
 XXYZ=            -63.5346 YYXZ=             77.7228 ZZXY=             53.4004
 N-N= 7.756444646039D+02 E-N=-8.702829522425D+03  KE= 3.005859203477D+03
 No NMR shielding tensors so no spin-rotation constants.
 Leave Link  601 at Thu May  2 14:21:18 2024, MaxMem=   134217728 cpu:               7.4 elap:               7.4
 (Enter /software/gaussian/g16-c01/sse4/g16/l9999.exe)
 Unable to Open any file for archive entry.
 1\1\GINC-BHX0015\SP\RwB97XD\6-311+G(d)\C6H5Br1N1O2(1+)\BWEIGHT\02-May-
 2024\0\\#P wB97XD/6-311+G* NoSymm #P Field=Z-223\\TitleMe\\1,1\C,0,0.5
 193,1.233,-0.0319\C,0,1.9445,1.2692,-0.0367\C,0,2.6204,0.0928,-0.025\C
 ,0,-0.196,0.0301,0.001\H,0,-0.0207,2.1742,-0.0434\H,0,2.4828,2.2089,-0
 .0361\H,0,-1.2777,0.0399,0.0117\N,0,4.0921,0.0959,0.0366\O,0,4.6393,-1
 .0217,0.1446\O,0,4.6649,1.1984,-0.0233\C,0,0.4943,-1.1671,0.021\H,0,-0
 .0325,-2.1149,0.0545\C,0,1.9629,-1.2165,-0.0211\H,0,2.4436,-1.9631,0.6
 151\Br,0,2.173,-1.9491,-1.9062\\Version=ES64L-G16RevC.01\HF=-3010.5428
 731\RMSD=7.167e-09\Dipole=-3.3493527,1.2130598,2.5322434\Quadrupole=-3
 .7608167,7.5325401,-3.7717234,-0.9324443,4.2379032,-1.0941876\PG=C01 [
 X(C6H5Br1N1O2)]\\@
 The archive entry for this job was punched.


 This summer one third of the nation will be ill-housed
 ill-nourished and ill-clad. Only they call it a vacation.
 -- Jonas Salk
 Job cpu time:       0 days  0 hours 22 minutes 58.5 seconds.
 Elapsed time:       0 days  0 hours 22 minutes 58.8 seconds.
 File lengths (MBytes):  RWF=     40 Int=      0 D2E=      0 Chk=     32 Scr=      1
 Normal termination of Gaussian 16 at Thu May  2 14:21:18 2024.
