 Entering Gaussian System, Link 0=g16
 Initial command:
 /software/gaussian/g16-c01/sse4/g16/l1.exe "/local_scratch/24657507/Gau-23803.inp" -scrdir="/local_scratch/24657507/"
 Entering Link 1 = /software/gaussian/g16-c01/sse4/g16/l1.exe PID=     23804.
  
 Copyright (c) 1988-2019, Gaussian, Inc.  All Rights Reserved.
  
 This is part of the Gaussian(R) 16 program.  It is based on
 the Gaussian(R) 09 system (copyright 2009, Gaussian, Inc.),
 the Gaussian(R) 03 system (copyright 2003, Gaussian, Inc.),
 the Gaussian(R) 98 system (copyright 1998, Gaussian, Inc.),
 the Gaussian(R) 94 system (copyright 1995, Gaussian, Inc.),
 the Gaussian 92(TM) system (copyright 1992, Gaussian, Inc.),
 the Gaussian 90(TM) system (copyright 1990, Gaussian, Inc.),
 the Gaussian 88(TM) system (copyright 1988, Gaussian, Inc.),
 the Gaussian 86(TM) system (copyright 1986, Carnegie Mellon
 University), and the Gaussian 82(TM) system (copyright 1983,
 Carnegie Mellon University). Gaussian is a federally registered
 trademark of Gaussian, Inc.
  
 This software contains proprietary and confidential information,
 including trade secrets, belonging to Gaussian, Inc.
  
 This software is provided under written license and may be
 used, copied, transmitted, or stored only in accord with that
 written license.
  
 The following legend is applicable only to US Government
 contracts under FAR:
  
                    RESTRICTED RIGHTS LEGEND
  
 Use, reproduction and disclosure by the US Government is
 subject to restrictions as set forth in subparagraphs (a)
 and (c) of the Commercial Computer Software - Restricted
 Rights clause in FAR 52.227-19.
  
 Gaussian, Inc.
 340 Quinnipiac St., Bldg. 40, Wallingford CT 06492
  
  
 ---------------------------------------------------------------
 Warning -- This program may not be used in any manner that
 competes with the business of Gaussian, Inc. or will provide
 assistance to any competitor of Gaussian, Inc.  The licensee
 of this program is prohibited from giving any competitor of
 Gaussian, Inc. access to this program.  By using this program,
 the user acknowledges that Gaussian, Inc. is engaged in the
 business of creating and licensing software in the field of
 computational chemistry and represents and warrants to the
 licensee that it is not a competitor of Gaussian, Inc. and that
 it will not use this program in any manner prohibited above.
 ---------------------------------------------------------------
  

 Cite this work as:
 Gaussian 16, Revision C.01,
 M. J. Frisch, G. W. Trucks, H. B. Schlegel, G. E. Scuseria, 
 M. A. Robb, J. R. Cheeseman, G. Scalmani, V. Barone, 
 G. A. Petersson, H. Nakatsuji, X. Li, M. Caricato, A. V. Marenich, 
 J. Bloino, B. G. Janesko, R. Gomperts, B. Mennucci, H. P. Hratchian, 
 J. V. Ortiz, A. F. Izmaylov, J. L. Sonnenberg, D. Williams-Young, 
 F. Ding, F. Lipparini, F. Egidi, J. Goings, B. Peng, A. Petrone, 
 T. Henderson, D. Ranasinghe, V. G. Zakrzewski, J. Gao, N. Rega, 
 G. Zheng, W. Liang, M. Hada, M. Ehara, K. Toyota, R. Fukuda, 
 J. Hasegawa, M. Ishida, T. Nakajima, Y. Honda, O. Kitao, H. Nakai, 
 T. Vreven, K. Throssell, J. A. Montgomery, Jr., J. E. Peralta, 
 F. Ogliaro, M. J. Bearpark, J. J. Heyd, E. N. Brothers, K. N. Kudin, 
 V. N. Staroverov, T. A. Keith, R. Kobayashi, J. Normand, 
 K. Raghavachari, A. P. Rendell, J. C. Burant, S. S. Iyengar, 
 J. Tomasi, M. Cossi, J. M. Millam, M. Klene, C. Adamo, R. Cammi, 
 J. W. Ochterski, R. L. Martin, K. Morokuma, O. Farkas, 
 J. B. Foresman, and D. J. Fox, Gaussian, Inc., Wallingford CT, 2019.
 
 ******************************************
 Gaussian 16:  ES64L-G16RevC.01  3-Jul-2019
                 1-May-2024 
 ******************************************
 %chk=geometry.chk
 %mem=9GB
 %nprocshared=12
 Will use up to   12 processors via shared memory.
 ---------------------------------------
 #P wB97XD/6-311+G* NoSymm #P Field=Y+58
 ---------------------------------------
 1/38=1,172=1/1;
 2/12=2,15=1,17=6,18=5,40=1/2;
 3/5=4,6=6,7=11,11=2,14=2,15=58,25=1,30=1,74=-58/1,2,3;
 4//1;
 5/5=2,38=5/2;
 6/7=2,8=2,9=2,10=2,28=1/1;
 99/5=1,9=1/99;
 Leave Link    1 at Wed May  1 14:48:54 2024, MaxMem=  1207959552 cpu:               0.9 elap:               1.0
 (Enter /software/gaussian/g16-c01/sse4/g16/l101.exe)
 -------
 TitleMe
 -------
 Symbolic Z-matrix:
 Charge =  1 Multiplicity = 1
 C                     0.0295    1.3397    0.0682 
 C                     1.4348    1.2867    0.0064 
 C                     2.1118    0.0511   -0.0054 
 C                     1.4451   -1.1372    0.0312 
 C                    -0.6879    0.1682    0.11 
 H                    -0.4713    2.2984    0.0781 
 H                     2.0273    2.1965   -0.0322 
 H                     1.9897   -2.0764    0.0232 
 H                    -1.7716    0.1804    0.1582 
 N                     3.5864    0.051    -0.0675 
 O                     4.1471   -1.0597   -0.0881 
 O                     4.145     1.1639   -0.0901 
 C                    -0.0236   -1.1458    0.0835 
 H                    -0.4367   -1.8725    0.7889 
 Br                   -0.5359   -1.8697   -1.7408 
 
 ITRead=  0  0  0  0  0  0  0  0  0  0  0  0  0  0  0
 MicOpt= -1 -1 -1 -1 -1 -1 -1 -1 -1 -1 -1 -1 -1 -1 -1
 NAtoms=     15 NQM=       15 NQMF=       0 NMMI=      0 NMMIF=      0
                NMic=       0 NMicF=      0.
                    Isotopes and Nuclear Properties:
 (Nuclear quadrupole moments (NQMom) in fm**2, nuclear magnetic moments (NMagM)
  in nuclear magnetons)

  Atom         1           2           3           4           5           6           7           8           9          10
 IAtWgt=          12          12          12          12          12           1           1           1           1          14
 AtmWgt=  12.0000000  12.0000000  12.0000000  12.0000000  12.0000000   1.0078250   1.0078250   1.0078250   1.0078250  14.0030740
 NucSpn=           0           0           0           0           0           1           1           1           1           2
 AtZEff=  -0.0000000  -0.0000000  -0.0000000  -0.0000000  -0.0000000  -0.0000000  -0.0000000  -0.0000000  -0.0000000  -0.0000000
 NQMom=    0.0000000   0.0000000   0.0000000   0.0000000   0.0000000   0.0000000   0.0000000   0.0000000   0.0000000   2.0440000
 NMagM=    0.0000000   0.0000000   0.0000000   0.0000000   0.0000000   2.7928460   2.7928460   2.7928460   2.7928460   0.4037610
 AtZNuc=   6.0000000   6.0000000   6.0000000   6.0000000   6.0000000   1.0000000   1.0000000   1.0000000   1.0000000   7.0000000

  Atom        11          12          13          14          15
 IAtWgt=          16          16          12           1          79
 AtmWgt=  15.9949146  15.9949146  12.0000000   1.0078250  78.9183361
 NucSpn=           0           0           0           1           3
 AtZEff=  -0.0000000  -0.0000000  -0.0000000  -0.0000000  -0.0000000
 NQMom=    0.0000000   0.0000000   0.0000000   0.0000000  31.3000000
 NMagM=    0.0000000   0.0000000   0.0000000   2.7928460   2.1063990
 AtZNuc=   8.0000000   8.0000000   6.0000000   1.0000000  35.0000000
 Leave Link  101 at Wed May  1 14:48:55 2024, MaxMem=  1207959552 cpu:               1.4 elap:               1.4
 (Enter /software/gaussian/g16-c01/sse4/g16/l202.exe)
                          Input orientation:                          
 ---------------------------------------------------------------------
 Center     Atomic      Atomic             Coordinates (Angstroms)
 Number     Number       Type             X           Y           Z
 ---------------------------------------------------------------------
      1          6           0        0.029500    1.339700    0.068200
      2          6           0        1.434800    1.286700    0.006400
      3          6           0        2.111800    0.051100   -0.005400
      4          6           0        1.445100   -1.137200    0.031200
      5          6           0       -0.687900    0.168200    0.110000
      6          1           0       -0.471300    2.298400    0.078100
      7          1           0        2.027300    2.196500   -0.032200
      8          1           0        1.989700   -2.076400    0.023200
      9          1           0       -1.771600    0.180400    0.158200
     10          7           0        3.586400    0.051000   -0.067500
     11          8           0        4.147100   -1.059700   -0.088100
     12          8           0        4.145000    1.163900   -0.090100
     13          6           0       -0.023600   -1.145800    0.083500
     14          1           0       -0.436700   -1.872500    0.788900
     15         35           0       -0.535900   -1.869700   -1.740800
 ---------------------------------------------------------------------
                    Distance matrix (angstroms):
                    1          2          3          4          5
     1  C    0.000000
     2  C    1.407656   0.000000
     3  C    2.449874   1.408963   0.000000
     4  C    2.853126   2.424049   1.363043   0.000000
     5  C    1.374344   2.401589   2.804523   2.501993   0.000000
     6  H    1.081667   2.159142   3.424870   3.934226   2.141421
     7  H    2.176095   1.086408   2.147231   3.384750   3.392128
     8  H    3.938800   3.408612   2.131193   1.085702   3.495040
     9  H    2.143837   3.395283   3.888995   3.478413   1.084840
    10  N    3.785591   2.482297   1.475907   2.450862   4.279589
    11  O    4.768247   3.587631   2.320164   2.705743   4.992415
    12  O    4.122294   2.714696   2.319353   3.549540   4.938459
    13  C    2.486114   2.837240   2.449573   1.469656   1.472614
    14  H    3.324903   3.754379   3.290289   2.157764   2.165286
    15  Br   3.727252   4.110867   3.702891   2.756973   2.757100
                    6          7          8          9         10
     6  H    0.000000
     7  H    2.503108   0.000000
     8  H    5.019802   4.273425   0.000000
     9  H    2.486588   4.304945   4.388479   0.000000
    10  N    4.640790   2.652397   2.661486   5.364313   0.000000
    11  O    5.712624   3.885809   2.387560   6.052233   1.244373
    12  O    4.756638   2.356750   3.893289   6.002923   1.245428
    13  C    3.473180   3.923079   2.218790   2.195425   3.806210
    14  H    4.231175   4.827242   2.552506   2.528663   4.540772
    15  Br   4.548146   5.101303   3.087568   3.055498   4.845862
                   11         12         13         14         15
    11  O    0.000000
    12  O    2.223602   0.000000
    13  C    4.175117   4.768865   0.000000
    14  H    4.737193   5.566358   1.093770   0.000000
    15  Br   5.031700   5.817075   2.028436   2.531646   0.000000
 Symmetry turned off by external request.
 Stoichiometry    C6H5BrNO2(1+)
 Framework group  C1[X(C6H5BrNO2)]
 Deg. of freedom    39
 Full point group                 C1      NOp   1
 Rotational constants (GHZ):           1.8252210           0.5518633           0.4576002
 Leave Link  202 at Wed May  1 14:48:57 2024, MaxMem=  1207959552 cpu:               1.2 elap:               1.2
 (Enter /software/gaussian/g16-c01/sse4/g16/l301.exe)
 Standard basis: 6-311+G(d) (5D, 7F)
 Ernie: Thresh=  0.10000D-02 Tol=  0.10000D-05 Strict=F.
 The following finite field(s) will be applied:
 An electric field of              0.0000  0.0058  0.0000
   261 basis functions,   443 primitive gaussians,   273 cartesian basis functions
    49 alpha electrons       49 beta electrons
       nuclear repulsion energy       739.2122215416 Hartrees.
 IExCor= 4639 DFT=T Ex+Corr=wB97XD ExCW=0 ScaHFX=  1.000000
 ScaDFX=  1.000000  1.000000  1.000000  1.000000 ScalE2=  1.000000  1.000000
 IRadAn=      5 IRanWt=     -1 IRanGd=            0 ICorTp=0 IEmpDi=121
 HFx  wShort=  0.000000 wLong=  0.200000 cFull=  0.222036 cShort=  0.000000 cLong=  0.777964
 DFx  wShort=  0.000000 wLong=  0.200000 cFull=  0.000000 cShort=  0.000000 cLong=  1.000000
 NAtoms=   15 NActive=   15 NUniq=   15 SFac= 1.00D+00 NAtFMM=   60 NAOKFM=F Big=F
 Integral buffers will be    131072 words long.
 Raffenetti 2 integral format.
 Two-electron integral symmetry is turned off.
 R6Disp:  Grimme-D2 Dispersion energy=       -0.0077368520 Hartrees.
 Nuclear repulsion after empirical dispersion term =      739.2044846896 Hartrees.
 Leave Link  301 at Wed May  1 14:48:58 2024, MaxMem=  1207959552 cpu:               1.0 elap:               1.0
 (Enter /software/gaussian/g16-c01/sse4/g16/l302.exe)
 NPDir=0 NMtPBC=     1 NCelOv=     1 NCel=       1 NClECP=     1 NCelD=      1
         NCelK=      1 NCelE2=     1 NClLst=     1 CellRange=     0.0.
 One-electron integrals computed using PRISM.
 NBasis=   261 RedAO= T EigKep=  2.35D-06  NBF=   261
 NBsUse=   261 1.00D-06 EigRej= -1.00D+00 NBFU=   261
 Precomputing XC quadrature grid using
 IXCGrd= 4 IRadAn=           5 IRanWt=          -1 IRanGd=           0 AccXCQ= 0.00D+00.
 Generated NRdTot=       0 NPtTot=           0 NUsed=           0 NTot=          32
 NSgBfM=   273   273   273   273   273 MxSgAt=    15 MxSgA2=    15.
 Leave Link  302 at Wed May  1 14:49:19 2024, MaxMem=  1207959552 cpu:              21.7 elap:              21.8
 (Enter /software/gaussian/g16-c01/sse4/g16/l303.exe)
 DipDrv:  MaxL=1.
 The nuclear repulsion energy is now       738.5452564900 hartrees.
 Leave Link  303 at Wed May  1 14:49:23 2024, MaxMem=  1207959552 cpu:               3.2 elap:               3.3
 (Enter /software/gaussian/g16-c01/sse4/g16/l401.exe)
 ExpMin= 3.50D-02 ExpMax= 4.40D+05 ExpMxC= 1.51D+04 IAcc=3 IRadAn=         5 AccDes= 0.00D+00
 Harris functional with IExCor= 4639 and IRadAn=       5 diagonalized for initial guess.
 HarFok:  IExCor= 4639 AccDes= 0.00D+00 IRadAn=         5 IDoV= 1 UseB2=F ITyADJ=14
 ICtDFT=  3500011 ScaDFX=  1.000000  1.000000  1.000000  1.000000
 FoFCou: FMM=F IPFlag=           0 FMFlag=      100000 FMFlg1=           0
         NFxFlg=           0 DoJE=T BraDBF=F KetDBF=T FulRan=T
         wScrn=  0.000000 ICntrl=       500 IOpCl=  0 I1Cent=   200000004 NGrid=           0
         NMat0=    1 NMatS0=      1 NMatT0=    0 NMatD0=    1 NMtDS0=    0 NMtDT0=    0
 Symmetry not used in FoFCou.
 Harris En= -2970.60226398022    
 JPrj=0 DoOrth=F DoCkMO=F.
 Leave Link  401 at Wed May  1 14:49:53 2024, MaxMem=  1207959552 cpu:              30.6 elap:              30.6
 (Enter /software/gaussian/g16-c01/sse4/g16/l502.exe)
 Two-electron integral symmetry not used.
 Closed shell SCF:
 Using DIIS extrapolation, IDIIS=  1040.
 NGot=  1207959552 LenX=  1207804877 LenY=  1207729907
 Requested convergence on RMS density matrix=1.00D-08 within 128 cycles.
 Requested convergence on MAX density matrix=1.00D-06.
 Requested convergence on             energy=1.00D-06.
 No special actions if energy rises.
 Fock matrices will be formed incrementally for  20 cycles.

 Cycle   1  Pass 1  IDiag  1:
 FoFJK:  IHMeth= 1 ICntrl=       0 DoSepK=T KAlg= 0 I1Cent=           0 FoldK=F
 IRaf=         1 NMat=       1 IRICut=       1 DoRegI=T DoRafI=F ISym2E= 0 IDoP0=0 IntGTp=1.
 FoFCou: FMM=F IPFlag=           0 FMFlag=      100000 FMFlg1=           0
         NFxFlg=           0 DoJE=T BraDBF=F KetDBF=F FulRan=T
         wScrn=  0.000000 ICntrl=       500 IOpCl=  0 I1Cent=           0 NGrid=           0
         NMat0=    1 NMatS0=      1 NMatT0=    0 NMatD0=    1 NMtDS0=    0 NMtDT0=    0
 Symmetry not used in FoFCou.
 E= -3009.71316809368    
 DIIS: error= 3.20D-01 at cycle   1 NSaved=   1.
 NSaved= 1 IEnMin= 1 EnMin= -3009.71316809368     IErMin= 1 ErrMin= 3.20D-01
 ErrMax= 3.20D-01  0.00D+00 EMaxC= 1.00D-01 BMatC= 1.20D+01 BMatP= 1.20D+01
 IDIUse=3 WtCom= 0.00D+00 WtEn= 1.00D+00
 Coeff-Com:  0.100D+01
 Coeff-En:   0.100D+01
 Coeff:      0.100D+01
 Gap=     0.346 Goal=   None    Shift=    0.000
 GapD=    0.346 DampG=1.000 DampE=0.250 DampFc=0.2500 IDamp=-1.
 Damping current iteration by 2.50D-01
 RMSDP=4.59D-02 MaxDP=4.69D+00              OVMax= 2.50D-01

 Cycle   2  Pass 1  IDiag  1:
 RMSU=  4.17D-03    CP:  8.89D-01
 E= -3010.00161397163     Delta-E=       -0.288445877949 Rises=F Damp=T
 DIIS: error= 2.25D-01 at cycle   2 NSaved=   2.
 NSaved= 2 IEnMin= 2 EnMin= -3010.00161397163     IErMin= 2 ErrMin= 2.25D-01
 ErrMax= 2.25D-01  0.00D+00 EMaxC= 1.00D-01 BMatC= 5.46D+00 BMatP= 1.20D+01
 IDIUse=3 WtCom= 0.00D+00 WtEn= 1.00D+00
 Coeff-Com: -0.183D+01 0.283D+01
 Coeff-En:   0.000D+00 0.100D+01
 Coeff:      0.000D+00 0.100D+01
 Gap=     0.290 Goal=   None    Shift=    0.000
 RMSDP=3.55D-02 MaxDP=3.56D+00 DE=-2.88D-01 OVMax= 7.53D-02

 Cycle   3  Pass 1  IDiag  1:
 RMSU=  4.43D-03    CP:  5.40D-01  3.00D+00
 E= -3010.38508009627     Delta-E=       -0.383466124637 Rises=F Damp=F
 DIIS: error= 6.58D-02 at cycle   3 NSaved=   3.
 NSaved= 3 IEnMin= 3 EnMin= -3010.38508009627     IErMin= 3 ErrMin= 6.58D-02
 ErrMax= 6.58D-02  0.00D+00 EMaxC= 1.00D-01 BMatC= 7.40D-01 BMatP= 5.46D+00
 IDIUse=3 WtCom= 3.42D-01 WtEn= 6.58D-01
 Coeff-Com:  0.260D+01-0.341D+01 0.181D+01
 Coeff-En:   0.313D-01 0.000D+00 0.969D+00
 Coeff:      0.910D+00-0.117D+01 0.126D+01
 Gap=     0.273 Goal=   None    Shift=    0.000
 RMSDP=8.08D-03 MaxDP=4.42D-01 DE=-3.83D-01 OVMax= 7.31D-02

 Cycle   4  Pass 1  IDiag  1:
 RMSU=  5.61D-03    CP:  5.63D-01  2.50D+00  1.91D+00
 E= -3010.48711578468     Delta-E=       -0.102035688410 Rises=F Damp=F
 DIIS: error= 3.84D-02 at cycle   4 NSaved=   4.
 NSaved= 4 IEnMin= 4 EnMin= -3010.48711578468     IErMin= 4 ErrMin= 3.84D-02
 ErrMax= 3.84D-02  0.00D+00 EMaxC= 1.00D-01 BMatC= 2.38D-01 BMatP= 7.40D-01
 IDIUse=3 WtCom= 6.16D-01 WtEn= 3.84D-01
 Coeff-Com:  0.244D+00-0.310D+00 0.498D+00 0.568D+00
 Coeff-En:   0.000D+00 0.000D+00 0.212D+00 0.788D+00
 Coeff:      0.150D+00-0.191D+00 0.388D+00 0.652D+00
 Gap=     0.269 Goal=   None    Shift=    0.000
 RMSDP=3.74D-03 MaxDP=2.99D-01 DE=-1.02D-01 OVMax= 5.41D-02

 Cycle   5  Pass 1  IDiag  1:
 RMSU=  1.83D-03    CP:  5.36D-01  2.85D+00  1.77D+00  7.94D-01
 E= -3010.53128128835     Delta-E=       -0.044165503670 Rises=F Damp=F
 DIIS: error= 1.06D-02 at cycle   5 NSaved=   5.
 NSaved= 5 IEnMin= 5 EnMin= -3010.53128128835     IErMin= 5 ErrMin= 1.06D-02
 ErrMax= 1.06D-02  0.00D+00 EMaxC= 1.00D-01 BMatC= 1.40D-02 BMatP= 2.38D-01
 IDIUse=3 WtCom= 8.94D-01 WtEn= 1.06D-01
 Coeff-Com: -0.100D+00 0.140D+00 0.133D+00 0.400D+00 0.427D+00
 Coeff-En:   0.000D+00 0.000D+00 0.000D+00 0.000D+00 0.100D+01
 Coeff:     -0.896D-01 0.125D+00 0.119D+00 0.358D+00 0.488D+00
 Gap=     0.271 Goal=   None    Shift=    0.000
 RMSDP=1.17D-03 MaxDP=6.01D-02 DE=-4.42D-02 OVMax= 4.24D-02

 Cycle   6  Pass 1  IDiag  1:
 RMSU=  6.00D-04    CP:  5.31D-01  2.82D+00  1.81D+00  8.60D-01  5.71D-01
 E= -3010.53777504469     Delta-E=       -0.006493756344 Rises=F Damp=F
 DIIS: error= 2.92D-03 at cycle   6 NSaved=   6.
 NSaved= 6 IEnMin= 6 EnMin= -3010.53777504469     IErMin= 6 ErrMin= 2.92D-03
 ErrMax= 2.92D-03  0.00D+00 EMaxC= 1.00D-01 BMatC= 1.13D-03 BMatP= 1.40D-02
 IDIUse=3 WtCom= 9.71D-01 WtEn= 2.92D-02
 Coeff-Com: -0.103D+00 0.139D+00 0.134D-02 0.158D+00 0.318D+00 0.487D+00
 Coeff-En:   0.000D+00 0.000D+00 0.000D+00 0.000D+00 0.820D-01 0.918D+00
 Coeff:     -0.100D+00 0.135D+00 0.130D-02 0.153D+00 0.311D+00 0.499D+00
 Gap=     0.251 Goal=   None    Shift=    0.000
 RMSDP=3.37D-04 MaxDP=1.64D-02 DE=-6.49D-03 OVMax= 1.02D-02

 Cycle   7  Pass 1  IDiag  1:
 RMSU=  2.48D-04    CP:  5.32D-01  2.83D+00  1.80D+00  8.41D-01  6.58D-01
                    CP:  8.35D-01
 E= -3010.53855691022     Delta-E=       -0.000781865526 Rises=F Damp=F
 DIIS: error= 2.59D-04 at cycle   7 NSaved=   7.
 NSaved= 7 IEnMin= 7 EnMin= -3010.53855691022     IErMin= 7 ErrMin= 2.59D-04
 ErrMax= 2.59D-04  0.00D+00 EMaxC= 1.00D-01 BMatC= 1.59D-05 BMatP= 1.13D-03
 IDIUse=3 WtCom= 9.97D-01 WtEn= 2.59D-03
 Coeff-Com: -0.340D-01 0.454D-01-0.117D-01 0.284D-01 0.662D-01 0.154D+00
 Coeff-Com:  0.752D+00
 Coeff-En:   0.000D+00 0.000D+00 0.000D+00 0.000D+00 0.000D+00 0.000D+00
 Coeff-En:   0.100D+01
 Coeff:     -0.340D-01 0.453D-01-0.117D-01 0.283D-01 0.660D-01 0.153D+00
 Coeff:      0.753D+00
 Gap=     0.252 Goal=   None    Shift=    0.000
 RMSDP=1.53D-04 MaxDP=1.12D-02 DE=-7.82D-04 OVMax= 2.67D-03

 Cycle   8  Pass 1  IDiag  1:
 RMSU=  9.53D-05    CP:  5.31D-01  2.83D+00  1.81D+00  8.54D-01  6.83D-01
                    CP:  9.13D-01  9.10D-01
 E= -3010.53857816356     Delta-E=       -0.000021253341 Rises=F Damp=F
 DIIS: error= 1.48D-04 at cycle   8 NSaved=   8.
 NSaved= 8 IEnMin= 8 EnMin= -3010.53857816356     IErMin= 8 ErrMin= 1.48D-04
 ErrMax= 1.48D-04  0.00D+00 EMaxC= 1.00D-01 BMatC= 2.88D-06 BMatP= 1.59D-05
 IDIUse=3 WtCom= 9.99D-01 WtEn= 1.48D-03
 Coeff-Com:  0.545D-02-0.754D-02-0.377D-02-0.139D-01-0.315D-01-0.458D-01
 Coeff-Com:  0.228D+00 0.869D+00
 Coeff-En:   0.000D+00 0.000D+00 0.000D+00 0.000D+00 0.000D+00 0.000D+00
 Coeff-En:   0.000D+00 0.100D+01
 Coeff:      0.545D-02-0.752D-02-0.377D-02-0.139D-01-0.314D-01-0.457D-01
 Coeff:      0.228D+00 0.869D+00
 Gap=     0.252 Goal=   None    Shift=    0.000
 RMSDP=6.92D-05 MaxDP=4.35D-03 DE=-2.13D-05 OVMax= 1.87D-03

 Cycle   9  Pass 1  IDiag  1:
 RMSU=  2.45D-05    CP:  5.31D-01  2.83D+00  1.81D+00  8.55D-01  6.86D-01
                    CP:  9.47D-01  1.12D+00  1.20D+00
 E= -3010.53858424179     Delta-E=       -0.000006078232 Rises=F Damp=F
 DIIS: error= 4.90D-05 at cycle   9 NSaved=   9.
 NSaved= 9 IEnMin= 9 EnMin= -3010.53858424179     IErMin= 9 ErrMin= 4.90D-05
 ErrMax= 4.90D-05  0.00D+00 EMaxC= 1.00D-01 BMatC= 2.31D-07 BMatP= 2.88D-06
 IDIUse=1 WtCom= 1.00D+00 WtEn= 0.00D+00
 Coeff-Com:  0.545D-02-0.732D-02 0.559D-03-0.693D-02-0.142D-01-0.287D-01
 Coeff-Com: -0.580D-01 0.176D+00 0.933D+00
 Coeff:      0.545D-02-0.732D-02 0.559D-03-0.693D-02-0.142D-01-0.287D-01
 Coeff:     -0.580D-01 0.176D+00 0.933D+00
 Gap=     0.252 Goal=   None    Shift=    0.000
 RMSDP=2.42D-05 MaxDP=1.82D-03 DE=-6.08D-06 OVMax= 1.01D-03

 Cycle  10  Pass 1  IDiag  1:
 RMSU=  1.03D-05    CP:  5.32D-01  2.83D+00  1.81D+00  8.56D-01  6.87D-01
                    CP:  9.59D-01  1.17D+00  1.30D+00  1.17D+00
 E= -3010.53858530721     Delta-E=       -0.000001065425 Rises=F Damp=F
 DIIS: error= 1.63D-05 at cycle  10 NSaved=  10.
 NSaved=10 IEnMin=10 EnMin= -3010.53858530721     IErMin=10 ErrMin= 1.63D-05
 ErrMax= 1.63D-05  0.00D+00 EMaxC= 1.00D-01 BMatC= 6.58D-08 BMatP= 2.31D-07
 IDIUse=1 WtCom= 1.00D+00 WtEn= 0.00D+00
 Coeff-Com:  0.160D-03-0.185D-03 0.404D-03 0.122D-03 0.228D-02 0.281D-02
 Coeff-Com: -0.498D-01-0.862D-01 0.276D+00 0.854D+00
 Coeff:      0.160D-03-0.185D-03 0.404D-03 0.122D-03 0.228D-02 0.281D-02
 Coeff:     -0.498D-01-0.862D-01 0.276D+00 0.854D+00
 Gap=     0.252 Goal=   None    Shift=    0.000
 RMSDP=1.00D-05 MaxDP=7.31D-04 DE=-1.07D-06 OVMax= 3.74D-04

 Cycle  11  Pass 1  IDiag  1:
 RMSU=  4.61D-06    CP:  5.32D-01  2.83D+00  1.81D+00  8.55D-01  6.87D-01
                    CP:  9.60D-01  1.19D+00  1.30D+00  1.27D+00  1.20D+00
 E= -3010.53858550398     Delta-E=       -0.000000196765 Rises=F Damp=F
 DIIS: error= 6.32D-06 at cycle  11 NSaved=  11.
 NSaved=11 IEnMin=11 EnMin= -3010.53858550398     IErMin=11 ErrMin= 6.32D-06
 ErrMax= 6.32D-06  0.00D+00 EMaxC= 1.00D-01 BMatC= 7.15D-09 BMatP= 6.58D-08
 IDIUse=1 WtCom= 1.00D+00 WtEn= 0.00D+00
 Coeff-Com: -0.388D-03 0.524D-03 0.785D-04 0.759D-03 0.172D-02 0.364D-02
 Coeff-Com:  0.366D-02-0.257D-01-0.122D+00 0.708D-01 0.107D+01
 Coeff:     -0.388D-03 0.524D-03 0.785D-04 0.759D-03 0.172D-02 0.364D-02
 Coeff:      0.366D-02-0.257D-01-0.122D+00 0.708D-01 0.107D+01
 Gap=     0.252 Goal=   None    Shift=    0.000
 RMSDP=6.69D-06 MaxDP=4.08D-04 DE=-1.97D-07 OVMax= 1.87D-04

 Cycle  12  Pass 1  IDiag  1:
 RMSU=  1.86D-06    CP:  5.32D-01  2.83D+00  1.81D+00  8.55D-01  6.86D-01
                    CP:  9.60D-01  1.19D+00  1.28D+00  1.28D+00  1.56D+00
                    CP:  1.44D+00
 E= -3010.53858554804     Delta-E=       -0.000000044065 Rises=F Damp=F
 DIIS: error= 2.69D-06 at cycle  12 NSaved=  12.
 NSaved=12 IEnMin=12 EnMin= -3010.53858554804     IErMin=12 ErrMin= 2.69D-06
 ErrMax= 2.69D-06  0.00D+00 EMaxC= 1.00D-01 BMatC= 2.28D-09 BMatP= 7.15D-09
 IDIUse=1 WtCom= 1.00D+00 WtEn= 0.00D+00
 Coeff-Com: -0.187D-03 0.247D-03-0.247D-04 0.345D-03 0.229D-03 0.781D-03
 Coeff-Com:  0.123D-01 0.731D-02-0.116D+00-0.137D+00 0.476D+00 0.756D+00
 Coeff:     -0.187D-03 0.247D-03-0.247D-04 0.345D-03 0.229D-03 0.781D-03
 Coeff:      0.123D-01 0.731D-02-0.116D+00-0.137D+00 0.476D+00 0.756D+00
 Gap=     0.252 Goal=   None    Shift=    0.000
 RMSDP=2.31D-06 MaxDP=1.29D-04 DE=-4.41D-08 OVMax= 1.02D-04

 Cycle  13  Pass 1  IDiag  1:
 RMSU=  6.52D-07    CP:  5.32D-01  2.83D+00  1.81D+00  8.55D-01  6.85D-01
                    CP:  9.60D-01  1.19D+00  1.27D+00  1.28D+00  1.66D+00
                    CP:  1.64D+00  1.12D+00
 E= -3010.53858555758     Delta-E=       -0.000000009539 Rises=F Damp=F
 DIIS: error= 7.58D-07 at cycle  13 NSaved=  13.
 NSaved=13 IEnMin=13 EnMin= -3010.53858555758     IErMin=13 ErrMin= 7.58D-07
 ErrMax= 7.58D-07  0.00D+00 EMaxC= 1.00D-01 BMatC= 3.84D-10 BMatP= 2.28D-09
 IDIUse=1 WtCom= 1.00D+00 WtEn= 0.00D+00
 Coeff-Com: -0.126D-05 0.127D-05-0.261D-04-0.690D-04-0.254D-03-0.706D-03
 Coeff-Com: -0.109D-02 0.276D-02 0.193D-01 0.311D-02-0.215D+00 0.745D-01
 Coeff-Com:  0.112D+01
 Coeff:     -0.126D-05 0.127D-05-0.261D-04-0.690D-04-0.254D-03-0.706D-03
 Coeff:     -0.109D-02 0.276D-02 0.193D-01 0.311D-02-0.215D+00 0.745D-01
 Coeff:      0.112D+01
 Gap=     0.252 Goal=   None    Shift=    0.000
 RMSDP=1.23D-06 MaxDP=9.04D-05 DE=-9.54D-09 OVMax= 5.94D-05

 Cycle  14  Pass 1  IDiag  1:
 RMSU=  3.34D-07    CP:  5.32D-01  2.83D+00  1.81D+00  8.55D-01  6.85D-01
                    CP:  9.60D-01  1.19D+00  1.27D+00  1.27D+00  1.72D+00
                    CP:  1.71D+00  1.50D+00  1.47D+00
 E= -3010.53858555995     Delta-E=       -0.000000002368 Rises=F Damp=F
 DIIS: error= 4.55D-07 at cycle  14 NSaved=  14.
 NSaved=14 IEnMin=14 EnMin= -3010.53858555995     IErMin=14 ErrMin= 4.55D-07
 ErrMax= 4.55D-07  0.00D+00 EMaxC= 1.00D-01 BMatC= 8.17D-11 BMatP= 3.84D-10
 IDIUse=1 WtCom= 1.00D+00 WtEn= 0.00D+00
 Coeff-Com:  0.224D-04-0.295D-04-0.103D-04-0.869D-04-0.122D-03-0.373D-03
 Coeff-Com: -0.265D-02-0.264D-03 0.293D-01 0.291D-01-0.190D+00-0.108D+00
 Coeff-Com:  0.401D+00 0.842D+00
 Coeff:      0.224D-04-0.295D-04-0.103D-04-0.869D-04-0.122D-03-0.373D-03
 Coeff:     -0.265D-02-0.264D-03 0.293D-01 0.291D-01-0.190D+00-0.108D+00
 Coeff:      0.401D+00 0.842D+00
 Gap=     0.252 Goal=   None    Shift=    0.000
 RMSDP=6.14D-07 MaxDP=4.92D-05 DE=-2.37D-09 OVMax= 2.66D-05

 Cycle  15  Pass 1  IDiag  1:
 RMSU=  1.32D-07    CP:  5.32D-01  2.83D+00  1.81D+00  8.55D-01  6.85D-01
                    CP:  9.59D-01  1.19D+00  1.27D+00  1.27D+00  1.75D+00
                    CP:  1.74D+00  1.67D+00  1.77D+00  1.19D+00
 E= -3010.53858556049     Delta-E=       -0.000000000542 Rises=F Damp=F
 DIIS: error= 2.42D-07 at cycle  15 NSaved=  15.
 NSaved=15 IEnMin=15 EnMin= -3010.53858556049     IErMin=15 ErrMin= 2.42D-07
 ErrMax= 2.42D-07  0.00D+00 EMaxC= 1.00D-01 BMatC= 1.41D-11 BMatP= 8.17D-11
 IDIUse=1 WtCom= 1.00D+00 WtEn= 0.00D+00
 Coeff-Com:  0.130D-04-0.173D-04 0.464D-05-0.109D-04 0.263D-04 0.964D-04
 Coeff-Com: -0.225D-03-0.357D-03 0.163D-02 0.651D-02 0.890D-02-0.347D-01
 Coeff-Com: -0.189D+00 0.218D+00 0.989D+00
 Coeff:      0.130D-04-0.173D-04 0.464D-05-0.109D-04 0.263D-04 0.964D-04
 Coeff:     -0.225D-03-0.357D-03 0.163D-02 0.651D-02 0.890D-02-0.347D-01
 Coeff:     -0.189D+00 0.218D+00 0.989D+00
 Gap=     0.252 Goal=   None    Shift=    0.000
 RMSDP=2.59D-07 MaxDP=2.11D-05 DE=-5.42D-10 OVMax= 1.19D-05

 Cycle  16  Pass 1  IDiag  1:
 RMSU=  6.53D-08    CP:  5.32D-01  2.83D+00  1.81D+00  8.55D-01  6.85D-01
                    CP:  9.59D-01  1.19D+00  1.27D+00  1.26D+00  1.76D+00
                    CP:  1.74D+00  1.73D+00  1.92D+00  1.39D+00  1.50D+00
 E= -3010.53858556058     Delta-E=       -0.000000000091 Rises=F Damp=F
 DIIS: error= 6.10D-08 at cycle  16 NSaved=  16.
 NSaved=16 IEnMin=16 EnMin= -3010.53858556058     IErMin=16 ErrMin= 6.10D-08
 ErrMax= 6.10D-08  0.00D+00 EMaxC= 1.00D-01 BMatC= 2.13D-12 BMatP= 1.41D-11
 IDIUse=1 WtCom= 1.00D+00 WtEn= 0.00D+00
 Coeff-Com:  0.357D-05-0.480D-05 0.316D-05 0.568D-05 0.240D-04 0.795D-04
 Coeff-Com:  0.233D-03-0.223D-03-0.337D-02-0.137D-02 0.251D-01 0.424D-03
 Coeff-Com: -0.104D+00-0.499D-01 0.240D+00 0.893D+00
 Coeff:      0.357D-05-0.480D-05 0.316D-05 0.568D-05 0.240D-04 0.795D-04
 Coeff:      0.233D-03-0.223D-03-0.337D-02-0.137D-02 0.251D-01 0.424D-03
 Coeff:     -0.104D+00-0.499D-01 0.240D+00 0.893D+00
 Gap=     0.252 Goal=   None    Shift=    0.000
 RMSDP=1.09D-07 MaxDP=9.74D-06 DE=-9.09D-11 OVMax= 4.45D-06

 Cycle  17  Pass 1  IDiag  1:
 RMSU=  1.98D-08    CP:  5.32D-01  2.83D+00  1.81D+00  8.55D-01  6.85D-01
                    CP:  9.59D-01  1.19D+00  1.27D+00  1.26D+00  1.76D+00
                    CP:  1.74D+00  1.76D+00  1.96D+00  1.46D+00  1.74D+00
                    CP:  1.02D+00
 E= -3010.53858556058     Delta-E=        0.000000000001 Rises=F Damp=F
 DIIS: error= 4.96D-08 at cycle  17 NSaved=  17.
 NSaved=17 IEnMin=16 EnMin= -3010.53858556058     IErMin=17 ErrMin= 4.96D-08
 ErrMax= 4.96D-08  0.00D+00 EMaxC= 1.00D-01 BMatC= 3.83D-13 BMatP= 2.13D-12
 IDIUse=1 WtCom= 1.00D+00 WtEn= 0.00D+00
 Coeff-Com: -0.121D-05 0.160D-05 0.810D-07 0.349D-05 0.527D-05 0.137D-04
 Coeff-Com:  0.104D-03-0.677D-05-0.118D-02-0.112D-02 0.640D-02 0.475D-02
 Coeff-Com:  0.159D-02-0.486D-01-0.932D-01 0.293D+00 0.838D+00
 Coeff:     -0.121D-05 0.160D-05 0.810D-07 0.349D-05 0.527D-05 0.137D-04
 Coeff:      0.104D-03-0.677D-05-0.118D-02-0.112D-02 0.640D-02 0.475D-02
 Coeff:      0.159D-02-0.486D-01-0.932D-01 0.293D+00 0.838D+00
 Gap=     0.252 Goal=   None    Shift=    0.000
 RMSDP=2.47D-08 MaxDP=1.97D-06 DE= 9.09D-13 OVMax= 1.01D-06

 Cycle  18  Pass 1  IDiag  1:
 RMSU=  8.15D-09    CP:  5.32D-01  2.83D+00  1.81D+00  8.55D-01  6.85D-01
                    CP:  9.59D-01  1.19D+00  1.27D+00  1.26D+00  1.77D+00
                    CP:  1.74D+00  1.76D+00  1.97D+00  1.47D+00  1.80D+00
                    CP:  1.17D+00  1.16D+00
 E= -3010.53858556060     Delta-E=       -0.000000000012 Rises=F Damp=F
 DIIS: error= 1.00D-08 at cycle  18 NSaved=  18.
 NSaved=18 IEnMin=18 EnMin= -3010.53858556060     IErMin=18 ErrMin= 1.00D-08
 ErrMax= 1.00D-08  0.00D+00 EMaxC= 1.00D-01 BMatC= 5.56D-14 BMatP= 3.83D-13
 IDIUse=1 WtCom= 1.00D+00 WtEn= 0.00D+00
 Coeff-Com: -0.154D-06 0.205D-06-0.376D-06-0.967D-06-0.430D-05-0.130D-04
 Coeff-Com: -0.191D-04 0.526D-04 0.330D-03-0.136D-03-0.318D-02 0.526D-03
 Coeff-Com:  0.205D-01-0.262D-02-0.677D-01-0.884D-01 0.202D+00 0.939D+00
 Coeff:     -0.154D-06 0.205D-06-0.376D-06-0.967D-06-0.430D-05-0.130D-04
 Coeff:     -0.191D-04 0.526D-04 0.330D-03-0.136D-03-0.318D-02 0.526D-03
 Coeff:      0.205D-01-0.262D-02-0.677D-01-0.884D-01 0.202D+00 0.939D+00
 Gap=     0.252 Goal=   None    Shift=    0.000
 RMSDP=1.12D-08 MaxDP=4.57D-07 DE=-1.18D-11 OVMax= 4.57D-07

 Cycle  19  Pass 1  IDiag  1:
 RMSU=  2.58D-09    CP:  5.32D-01  2.83D+00  1.81D+00  8.55D-01  6.85D-01
                    CP:  9.59D-01  1.19D+00  1.27D+00  1.26D+00  1.77D+00
                    CP:  1.74D+00  1.77D+00  1.97D+00  1.47D+00  1.83D+00
                    CP:  1.18D+00  1.37D+00  1.32D+00
 E= -3010.53858556059     Delta-E=        0.000000000006 Rises=F Damp=F
 DIIS: error= 2.96D-09 at cycle  19 NSaved=  19.
 NSaved=19 IEnMin=18 EnMin= -3010.53858556060     IErMin=19 ErrMin= 2.96D-09
 ErrMax= 2.96D-09  0.00D+00 EMaxC= 1.00D-01 BMatC= 3.84D-15 BMatP= 5.56D-14
 IDIUse=1 WtCom= 1.00D+00 WtEn= 0.00D+00
 Large coefficients: NSaved= 19 BigCof=    0.00 CofMax=   10.00 Det=-1.03D-14
 Inversion failed.  Reducing to 18 matrices.
 Coeff-Com:  0.180D-08-0.162D-07-0.133D-06-0.394D-07-0.612D-06-0.961D-05
 Coeff-Com: -0.857D-05 0.101D-03 0.101D-03-0.480D-03-0.357D-03 0.298D-03
 Coeff-Com:  0.313D-02 0.510D-02-0.198D-01-0.612D-01-0.208D-01 0.109D+01
 Coeff:      0.180D-08-0.162D-07-0.133D-06-0.394D-07-0.612D-06-0.961D-05
 Coeff:     -0.857D-05 0.101D-03 0.101D-03-0.480D-03-0.357D-03 0.298D-03
 Coeff:      0.313D-02 0.510D-02-0.198D-01-0.612D-01-0.208D-01 0.109D+01
 Gap=     0.252 Goal=   None    Shift=    0.000
 RMSDP=3.50D-09 MaxDP=1.74D-07 DE= 6.37D-12 OVMax= 1.54D-07

 SCF Done:  E(RwB97XD) =  -3010.53858556     A.U. after   19 cycles
            NFock= 19  Conv=0.35D-08     -V/T= 2.0016
 KE= 3.005843502129D+03 PE=-8.631238695975D+03 EE= 1.876311351795D+03
 Leave Link  502 at Wed May  1 15:08:09 2024, MaxMem=  1207959552 cpu:            1095.4 elap:            1095.5
 (Enter /software/gaussian/g16-c01/sse4/g16/l601.exe)
 Copying SCF densities to generalized density rwf, IOpCl= 0 IROHF=0.

 **********************************************************************

            Population analysis using the SCF Density.

 **********************************************************************

 Alpha  occ. eigenvalues -- -483.30199 -62.85213 -56.64916 -56.64331 -56.64328
 Alpha  occ. eigenvalues --  -19.45511 -19.45484 -14.85027 -10.57346 -10.57315
 Alpha  occ. eigenvalues --  -10.56704 -10.56463 -10.56390 -10.52968  -9.01012
 Alpha  occ. eigenvalues --   -6.83715  -6.81802  -6.81786  -2.93613  -2.93106
 Alpha  occ. eigenvalues --   -2.93092  -2.91561  -2.91561  -1.49296  -1.32275
 Alpha  occ. eigenvalues --   -1.22155  -1.13433  -1.11419  -1.03511  -1.00676
 Alpha  occ. eigenvalues --   -0.94959  -0.90543  -0.84963  -0.80416  -0.80234
 Alpha  occ. eigenvalues --   -0.79613  -0.77801  -0.75732  -0.75523  -0.71751
 Alpha  occ. eigenvalues --   -0.68934  -0.67205  -0.63203  -0.59505  -0.56784
 Alpha  occ. eigenvalues --   -0.55834  -0.55304  -0.55106  -0.54275
 Alpha virt. eigenvalues --   -0.29080  -0.20883  -0.15065  -0.12784  -0.09529
 Alpha virt. eigenvalues --   -0.06494  -0.06110  -0.04596  -0.04438  -0.02872
 Alpha virt. eigenvalues --   -0.02004  -0.01710  -0.00745  -0.00259   0.00783
 Alpha virt. eigenvalues --    0.01583   0.02535   0.02846   0.03388   0.03703
 Alpha virt. eigenvalues --    0.04709   0.04989   0.05574   0.06060   0.06829
 Alpha virt. eigenvalues --    0.07250   0.07618   0.07831   0.09034   0.09641
 Alpha virt. eigenvalues --    0.10391   0.11167   0.11389   0.12233   0.12873
 Alpha virt. eigenvalues --    0.13224   0.13427   0.14108   0.15636   0.16006
 Alpha virt. eigenvalues --    0.16848   0.17040   0.18110   0.18463   0.19422
 Alpha virt. eigenvalues --    0.20324   0.21397   0.21732   0.22442   0.24753
 Alpha virt. eigenvalues --    0.25600   0.28052   0.28435   0.30610   0.32802
 Alpha virt. eigenvalues --    0.33286   0.33901   0.34961   0.35466   0.36526
 Alpha virt. eigenvalues --    0.37479   0.37847   0.39654   0.41276   0.42213
 Alpha virt. eigenvalues --    0.43115   0.43808   0.44631   0.46650   0.47557
 Alpha virt. eigenvalues --    0.48046   0.50791   0.51284   0.52661   0.53650
 Alpha virt. eigenvalues --    0.54903   0.55681   0.57278   0.57749   0.59024
 Alpha virt. eigenvalues --    0.61508   0.62937   0.64967   0.67379   0.69132
 Alpha virt. eigenvalues --    0.70582   0.72099   0.72375   0.73669   0.74062
 Alpha virt. eigenvalues --    0.75106   0.79393   0.80405   0.83891   0.85538
 Alpha virt. eigenvalues --    0.86819   0.88207   0.92220   0.93470   0.98868
 Alpha virt. eigenvalues --    0.99935   1.01219   1.05109   1.05614   1.06938
 Alpha virt. eigenvalues --    1.09619   1.11124   1.12218   1.12754   1.14621
 Alpha virt. eigenvalues --    1.22312   1.24834   1.27062   1.33191   1.36804
 Alpha virt. eigenvalues --    1.37161   1.38604   1.45628   1.54705   1.57408
 Alpha virt. eigenvalues --    1.58786   1.59186   1.60885   1.62810   1.66698
 Alpha virt. eigenvalues --    1.69460   1.70153   1.73765   1.75585   1.79304
 Alpha virt. eigenvalues --    1.81506   1.85589   1.87636   1.94414   1.96520
 Alpha virt. eigenvalues --    1.98412   2.03231   2.04176   2.07531   2.08560
 Alpha virt. eigenvalues --    2.10296   2.15043   2.20524   2.22844   2.29015
 Alpha virt. eigenvalues --    2.37889   2.41577   2.43026   2.44030   2.52722
 Alpha virt. eigenvalues --    2.56941   2.63269   2.66366   2.68508   2.71926
 Alpha virt. eigenvalues --    2.73821   2.76838   2.77601   2.81316   2.82169
 Alpha virt. eigenvalues --    2.93966   2.96816   3.00972   3.06228   3.09274
 Alpha virt. eigenvalues --    3.13240   3.14931   3.19120   3.23856   3.24687
 Alpha virt. eigenvalues --    3.27658   3.39413   3.47641   3.51496   3.54872
 Alpha virt. eigenvalues --    3.57219   3.70264   3.74425   3.82444   3.87516
 Alpha virt. eigenvalues --    4.10016   4.10239   4.17654   4.22904   4.43699
 Alpha virt. eigenvalues --    4.44656   4.57803   4.60196   4.93486   4.96178
 Alpha virt. eigenvalues --    5.04808   5.08987   5.63140   6.16074   6.65710
 Alpha virt. eigenvalues --    7.48690   7.50267   7.60003  23.21608  23.61588
 Alpha virt. eigenvalues --   23.70386  23.79635  23.96200  24.01694  35.32930
 Alpha virt. eigenvalues --   47.92230  49.85890  49.94699 289.81547 289.83214
 Alpha virt. eigenvalues --  289.956461020.92634
          Condensed to atoms (all electrons):
               1          2          3          4          5          6
     1  C    9.155473  -2.683835   0.350673  -1.754970  -0.598695   0.306717
     2  C   -2.683835  13.429879  -2.004568  -2.252177   0.699619  -0.015506
     3  C    0.350673  -2.004568  13.524666  -3.590395  -1.391258   0.022263
     4  C   -1.754970  -2.252177  -3.590395  15.025373   1.487191   0.012539
     5  C   -0.598695   0.699619  -1.391258   1.487191   7.475328   0.021633
     6  H    0.306717  -0.015506   0.022263   0.012539   0.021633   0.359820
     7  H    0.077943   0.215164   0.093841  -0.038617  -0.022967  -0.002199
     8  H    0.002485  -0.004332   0.060509   0.264380  -0.016720   0.000000
     9  H    0.023050  -0.009412   0.002043  -0.000590   0.308805  -0.002460
    10  N   -0.179696   0.381029  -0.944909   0.336687   0.018651  -0.000669
    11  O    0.005220  -0.060104  -0.266813   0.010608  -0.053273  -0.000022
    12  O    0.348289  -0.067166  -0.278399  -0.091396  -0.045645   0.000021
    13  C    1.495636  -2.157158   1.080619  -3.669807  -1.922421  -0.010885
    14  H   -0.008088  -0.011870   0.012047  -0.100189  -0.026667  -0.000066
    15  Br   0.047399  -0.007834   0.078904   0.052588   0.082702  -0.000399
               7          8          9         10         11         12
     1  C    0.077943   0.002485   0.023050  -0.179696   0.005220   0.348289
     2  C    0.215164  -0.004332  -0.009412   0.381029  -0.060104  -0.067166
     3  C    0.093841   0.060509   0.002043  -0.944909  -0.266813  -0.278399
     4  C   -0.038617   0.264380  -0.000590   0.336687   0.010608  -0.091396
     5  C   -0.022967  -0.016720   0.308805   0.018651  -0.053273  -0.045645
     6  H   -0.002199   0.000000  -0.002460  -0.000669  -0.000022   0.000021
     7  H    0.320526  -0.000003   0.000003  -0.028458  -0.001679   0.024270
     8  H   -0.000003   0.279376   0.000111  -0.021856   0.021032  -0.000722
     9  H    0.000003   0.000111   0.330556   0.000418   0.000007   0.000006
    10  N   -0.028458  -0.021856   0.000418   7.354605   0.211611   0.130342
    11  O   -0.001679   0.021032   0.000007   0.211611   7.784762   0.000443
    12  O    0.024270  -0.000722   0.000006   0.130342   0.000443   7.933815
    13  C    0.017693   0.024815   0.004624  -0.153543   0.287300   0.049324
    14  H   -0.000016  -0.003633  -0.005679  -0.000206  -0.000308  -0.000065
    15  Br  -0.000118   0.001940  -0.000682   0.001627   0.000532   0.001999
              13         14         15
     1  C    1.495636  -0.008088   0.047399
     2  C   -2.157158  -0.011870  -0.007834
     3  C    1.080619   0.012047   0.078904
     4  C   -3.669807  -0.100189   0.052588
     5  C   -1.922421  -0.026667   0.082702
     6  H   -0.010885  -0.000066  -0.000399
     7  H    0.017693  -0.000016  -0.000118
     8  H    0.024815  -0.003633   0.001940
     9  H    0.004624  -0.005679  -0.000682
    10  N   -0.153543  -0.000206   0.001627
    11  O    0.287300  -0.000308   0.000532
    12  O    0.049324  -0.000065   0.001999
    13  C   11.077176   0.435326  -0.075910
    14  H    0.435326   0.327009  -0.036296
    15  Br  -0.075910  -0.036296  34.638984
 Mulliken charges:
               1
     1  C   -0.587600
     2  C    0.548272
     3  C   -0.749225
     4  C    0.308774
     5  C   -0.016283
     6  H    0.309212
     7  H    0.344617
     8  H    0.392619
     9  H    0.349201
    10  N   -0.105633
    11  O    0.060684
    12  O   -0.005116
    13  C   -0.482789
    14  H    0.418701
    15  Br   0.214565
 Sum of Mulliken charges =   1.00000
 Mulliken charges with hydrogens summed into heavy atoms:
               1
     1  C   -0.278388
     2  C    0.892889
     3  C   -0.749225
     4  C    0.701393
     5  C    0.332918
    10  N   -0.105633
    11  O    0.060684
    12  O   -0.005116
    13  C   -0.064088
    15  Br   0.214565
 Electronic spatial extent (au):  <R**2>=           2797.7318
 Charge=              1.0000 electrons
 Dipole moment (field-independent basis, Debye):
    X=             -1.0204    Y=             -2.2564    Z=             -0.2414  Tot=              2.4881
 Quadrupole moment (field-independent basis, Debye-Ang):
   XX=            -71.5566   YY=            -51.2925   ZZ=            -62.1426
   XY=             -0.5606   XZ=              1.2993   YZ=              2.4264
 Traceless Quadrupole moment (field-independent basis, Debye-Ang):
   XX=             -9.8927   YY=             10.3714   ZZ=             -0.4787
   XY=             -0.5606   XZ=              1.2993   YZ=              2.4264
 Octapole moment (field-independent basis, Debye-Ang**2):
  XXX=           -301.3174  YYY=             77.6465  ZZZ=             75.8735  XYY=            -77.3371
  XXY=             21.1178  XXZ=             32.0070  XZZ=            -78.6688  YZZ=             13.4941
  YYZ=             23.0737  XYZ=             -3.7561
 Hexadecapole moment (field-independent basis, Debye-Ang**3):
 XXXX=          -2286.0240 YYYY=           -668.3013 ZZZZ=           -343.6891 XXXY=            -99.3343
 XXXZ=            -20.8412 YYYX=            -65.3891 YYYZ=           -148.4531 ZZZX=            -17.1324
 ZZZY=           -130.8712 XXYY=           -456.7876 XXZZ=           -369.9586 YYZZ=           -158.1302
 XXYZ=            -53.1456 YYXZ=             -0.5822 ZZXY=             -8.6478
 N-N= 7.385452564900D+02 E-N=-8.631238695402D+03  KE= 3.005843502129D+03
 No NMR shielding tensors so no spin-rotation constants.
 Leave Link  601 at Wed May  1 15:08:16 2024, MaxMem=  1207959552 cpu:               7.3 elap:               7.3
 (Enter /software/gaussian/g16-c01/sse4/g16/l9999.exe)
 Unable to Open any file for archive entry.
 1\1\GINC-BHX0029\SP\RwB97XD\6-311+G(d)\C6H5Br1N1O2(1+)\BWEIGHT\01-May-
 2024\0\\#P wB97XD/6-311+G* NoSymm #P Field=Y+58\\TitleMe\\1,1\C,0,0.02
 95,1.3397,0.0682\C,0,1.4348,1.2867,0.0064\C,0,2.1118,0.0511,-0.0054\C,
 0,1.4451,-1.1372,0.0312\C,0,-0.6879,0.1682,0.11\H,0,-0.4713,2.2984,0.0
 781\H,0,2.0273,2.1965,-0.0322\H,0,1.9897,-2.0764,0.0232\H,0,-1.7716,0.
 1804,0.1582\N,0,3.5864,0.051,-0.0675\O,0,4.1471,-1.0597,-0.0881\O,0,4.
 145,1.1639,-0.0901\C,0,-0.0236,-1.1458,0.0835\H,0,-0.4367,-1.8725,0.78
 89\Br,0,-0.5359,-1.8697,-1.7408\\Version=ES64L-G16RevC.01\HF=-3010.538
 5856\RMSD=3.501e-09\Dipole=-2.3080106,0.2603633,1.0512009\Quadrupole=-
 7.3549738,7.7108599,-0.3558861,-0.4167646,0.9660099,1.8039574\PG=C01 [
 X(C6H5Br1N1O2)]\\@
 The archive entry for this job was punched.


 IN NATURE THERE ARE NEITHER REWARDS OR
 PUNISHMENTS -- THERE ARE CONSEQUENCES.

                            -- ROBERT GREEN INGERSOLL
 Job cpu time:       0 days  0 hours 19 minutes 23.6 seconds.
 Elapsed time:       0 days  0 hours 19 minutes 23.8 seconds.
 File lengths (MBytes):  RWF=     40 Int=      0 D2E=      0 Chk=     32 Scr=      1
 Normal termination of Gaussian 16 at Wed May  1 15:08:17 2024.
