 Entering Gaussian System, Link 0=g16
 Initial command:
 /software/gaussian/g16-c01/sse4/g16/l1.exe "/local_scratch/24665379/Gau-10908.inp" -scrdir="/local_scratch/24665379/"
 Entering Link 1 = /software/gaussian/g16-c01/sse4/g16/l1.exe PID=     10954.
  
 Copyright (c) 1988-2019, Gaussian, Inc.  All Rights Reserved.
  
 This is part of the Gaussian(R) 16 program.  It is based on
 the Gaussian(R) 09 system (copyright 2009, Gaussian, Inc.),
 the Gaussian(R) 03 system (copyright 2003, Gaussian, Inc.),
 the Gaussian(R) 98 system (copyright 1998, Gaussian, Inc.),
 the Gaussian(R) 94 system (copyright 1995, Gaussian, Inc.),
 the Gaussian 92(TM) system (copyright 1992, Gaussian, Inc.),
 the Gaussian 90(TM) system (copyright 1990, Gaussian, Inc.),
 the Gaussian 88(TM) system (copyright 1988, Gaussian, Inc.),
 the Gaussian 86(TM) system (copyright 1986, Carnegie Mellon
 University), and the Gaussian 82(TM) system (copyright 1983,
 Carnegie Mellon University). Gaussian is a federally registered
 trademark of Gaussian, Inc.
  
 This software contains proprietary and confidential information,
 including trade secrets, belonging to Gaussian, Inc.
  
 This software is provided under written license and may be
 used, copied, transmitted, or stored only in accord with that
 written license.
  
 The following legend is applicable only to US Government
 contracts under FAR:
  
                    RESTRICTED RIGHTS LEGEND
  
 Use, reproduction and disclosure by the US Government is
 subject to restrictions as set forth in subparagraphs (a)
 and (c) of the Commercial Computer Software - Restricted
 Rights clause in FAR 52.227-19.
  
 Gaussian, Inc.
 340 Quinnipiac St., Bldg. 40, Wallingford CT 06492
  
  
 ---------------------------------------------------------------
 Warning -- This program may not be used in any manner that
 competes with the business of Gaussian, Inc. or will provide
 assistance to any competitor of Gaussian, Inc.  The licensee
 of this program is prohibited from giving any competitor of
 Gaussian, Inc. access to this program.  By using this program,
 the user acknowledges that Gaussian, Inc. is engaged in the
 business of creating and licensing software in the field of
 computational chemistry and represents and warrants to the
 licensee that it is not a competitor of Gaussian, Inc. and that
 it will not use this program in any manner prohibited above.
 ---------------------------------------------------------------
  

 Cite this work as:
 Gaussian 16, Revision C.01,
 M. J. Frisch, G. W. Trucks, H. B. Schlegel, G. E. Scuseria, 
 M. A. Robb, J. R. Cheeseman, G. Scalmani, V. Barone, 
 G. A. Petersson, H. Nakatsuji, X. Li, M. Caricato, A. V. Marenich, 
 J. Bloino, B. G. Janesko, R. Gomperts, B. Mennucci, H. P. Hratchian, 
 J. V. Ortiz, A. F. Izmaylov, J. L. Sonnenberg, D. Williams-Young, 
 F. Ding, F. Lipparini, F. Egidi, J. Goings, B. Peng, A. Petrone, 
 T. Henderson, D. Ranasinghe, V. G. Zakrzewski, J. Gao, N. Rega, 
 G. Zheng, W. Liang, M. Hada, M. Ehara, K. Toyota, R. Fukuda, 
 J. Hasegawa, M. Ishida, T. Nakajima, Y. Honda, O. Kitao, H. Nakai, 
 T. Vreven, K. Throssell, J. A. Montgomery, Jr., J. E. Peralta, 
 F. Ogliaro, M. J. Bearpark, J. J. Heyd, E. N. Brothers, K. N. Kudin, 
 V. N. Staroverov, T. A. Keith, R. Kobayashi, J. Normand, 
 K. Raghavachari, A. P. Rendell, J. C. Burant, S. S. Iyengar, 
 J. Tomasi, M. Cossi, J. M. Millam, M. Klene, C. Adamo, R. Cammi, 
 J. W. Ochterski, R. L. Martin, K. Morokuma, O. Farkas, 
 J. B. Foresman, and D. J. Fox, Gaussian, Inc., Wallingford CT, 2019.
 
 ******************************************
 Gaussian 16:  ES64L-G16RevC.01  3-Jul-2019
                 2-May-2024 
 ******************************************
 %chk=geometry.chk
 %mem=1GB
 %nprocshared=12
 Will use up to   12 processors via shared memory.
 ---------------------------------------
 #P wB97XD/6-311+G* NoSymm #P Field=Z-38
 ---------------------------------------
 1/38=1,172=1/1;
 2/12=2,15=1,17=6,18=5,40=1/2;
 3/5=4,6=6,7=11,11=2,14=3,15=-38,25=1,30=1,74=-58/1,2,3;
 4//1;
 5/5=2,38=5/2;
 6/7=2,8=2,9=2,10=2,28=1/1;
 99/5=1,9=1/99;
 Leave Link    1 at Thu May  2 13:58:19 2024, MaxMem=   134217728 cpu:               2.4 elap:               2.4
 (Enter /software/gaussian/g16-c01/sse4/g16/l101.exe)
 -------
 TitleMe
 -------
 Symbolic Z-matrix:
 Charge =  1 Multiplicity = 1
 C                     0.5193    1.233    -0.0319 
 C                     1.9445    1.2692   -0.0367 
 C                     2.6204    0.0928   -0.025 
 C                    -0.196     0.0301    0.001 
 H                    -0.0207    2.1742   -0.0434 
 H                     2.4828    2.2089   -0.0361 
 H                    -1.2777    0.0399    0.0117 
 N                     4.0921    0.0959    0.0366 
 O                     4.6393   -1.0217    0.1446 
 O                     4.6649    1.1984   -0.0233 
 C                     0.4943   -1.1671    0.021 
 H                    -0.0325   -2.1149    0.0545 
 C                     1.9629   -1.2165   -0.0211 
 H                     2.4436   -1.9631    0.6151 
 Br                    2.173    -1.9491   -1.9062 
 
 ITRead=  0  0  0  0  0  0  0  0  0  0  0  0  0  0  0
 MicOpt= -1 -1 -1 -1 -1 -1 -1 -1 -1 -1 -1 -1 -1 -1 -1
 NAtoms=     15 NQM=       15 NQMF=       0 NMMI=      0 NMMIF=      0
                NMic=       0 NMicF=      0.
                    Isotopes and Nuclear Properties:
 (Nuclear quadrupole moments (NQMom) in fm**2, nuclear magnetic moments (NMagM)
  in nuclear magnetons)

  Atom         1           2           3           4           5           6           7           8           9          10
 IAtWgt=          12          12          12          12           1           1           1          14          16          16
 AtmWgt=  12.0000000  12.0000000  12.0000000  12.0000000   1.0078250   1.0078250   1.0078250  14.0030740  15.9949146  15.9949146
 NucSpn=           0           0           0           0           1           1           1           2           0           0
 AtZEff=  -0.0000000  -0.0000000  -0.0000000  -0.0000000  -0.0000000  -0.0000000  -0.0000000  -0.0000000  -0.0000000  -0.0000000
 NQMom=    0.0000000   0.0000000   0.0000000   0.0000000   0.0000000   0.0000000   0.0000000   2.0440000   0.0000000   0.0000000
 NMagM=    0.0000000   0.0000000   0.0000000   0.0000000   2.7928460   2.7928460   2.7928460   0.4037610   0.0000000   0.0000000
 AtZNuc=   6.0000000   6.0000000   6.0000000   6.0000000   1.0000000   1.0000000   1.0000000   7.0000000   8.0000000   8.0000000

  Atom        11          12          13          14          15
 IAtWgt=          12           1          12           1          79
 AtmWgt=  12.0000000   1.0078250  12.0000000   1.0078250  78.9183361
 NucSpn=           0           1           0           1           3
 AtZEff=  -0.0000000  -0.0000000  -0.0000000  -0.0000000  -0.0000000
 NQMom=    0.0000000   0.0000000   0.0000000   0.0000000  31.3000000
 NMagM=    0.0000000   2.7928460   0.0000000   2.7928460   2.1063990
 AtZNuc=   6.0000000   1.0000000   6.0000000   1.0000000  35.0000000
 Leave Link  101 at Thu May  2 13:58:21 2024, MaxMem=   134217728 cpu:               1.6 elap:               1.7
 (Enter /software/gaussian/g16-c01/sse4/g16/l202.exe)
                          Input orientation:                          
 ---------------------------------------------------------------------
 Center     Atomic      Atomic             Coordinates (Angstroms)
 Number     Number       Type             X           Y           Z
 ---------------------------------------------------------------------
      1          6           0        0.519300    1.233000   -0.031900
      2          6           0        1.944500    1.269200   -0.036700
      3          6           0        2.620400    0.092800   -0.025000
      4          6           0       -0.196000    0.030100    0.001000
      5          1           0       -0.020700    2.174200   -0.043400
      6          1           0        2.482800    2.208900   -0.036100
      7          1           0       -1.277700    0.039900    0.011700
      8          7           0        4.092100    0.095900    0.036600
      9          8           0        4.639300   -1.021700    0.144600
     10          8           0        4.664900    1.198400   -0.023300
     11          6           0        0.494300   -1.167100    0.021000
     12          1           0       -0.032500   -2.114900    0.054500
     13          6           0        1.962900   -1.216500   -0.021100
     14          1           0        2.443600   -1.963100    0.615100
     15         35           0        2.173000   -1.949100   -1.906200
 ---------------------------------------------------------------------
                    Distance matrix (angstroms):
                    1          2          3          4          5
     1  C    0.000000
     2  C    1.425668   0.000000
     3  C    2.390549   1.356796   0.000000
     4  C    1.399895   2.473566   2.817218   0.000000
     5  H    1.085168   2.163581   3.362733   2.151712   0.000000
     6  H    2.192654   1.082960   2.120598   3.453189   2.503751
     7  H    2.157452   3.449071   3.898632   1.081797   2.477564
     8  N    3.750012   2.448304   1.472992   4.288753   4.608780
     9  O    4.699917   3.541615   2.312322   4.950458   5.653735
    10  O    4.145753   2.721354   2.324292   4.999386   4.786171
    11  C    2.400813   2.835836   2.471794   1.382101   3.381369
    12  H    3.394169   3.920329   3.452266   2.151887   4.290233
    13  C    2.843264   2.485817   1.465124   2.493060   3.928360
    14  H    3.786370   3.334922   2.160489   3.364142   4.860416
    15  Br   4.046416   3.728900   2.812194   3.628609   5.028314
                    6          7          8          9         10
     6  H    0.000000
     7  H    4.341452   0.000000
     8  N    2.657047   5.370150   0.000000
     9  O    3.888434   6.012948   1.249048   0.000000
    10  O    2.404752   6.054572   1.243863   2.226587   0.000000
    11  C    3.918516   2.144043   3.813080   4.149391   4.794941
    12  H    5.003018   2.489080   4.679774   4.798846   5.748876
    13  C    3.464662   3.475788   2.501842   2.688591   3.623886
    14  H    4.222698   4.268978   2.700314   2.434893   3.916224
    15  Br   4.569706   4.420610   3.411663   3.338935   4.434144
                   11         12         13         14         15
    11  C    0.000000
    12  H    1.084880   0.000000
    13  C    1.470034   2.189625   0.000000
    14  H    2.187771   2.543302   1.092353   0.000000
    15  Br   2.672762   2.955683   2.033334   2.535818   0.000000
 Symmetry turned off by external request.
 Stoichiometry    C6H5BrNO2(1+)
 Framework group  C1[X(C6H5BrNO2)]
 Deg. of freedom    39
 Full point group                 C1      NOp   1
 Rotational constants (GHZ):           1.1632986           0.9594224           0.5957624
 Leave Link  202 at Thu May  2 13:58:23 2024, MaxMem=   134217728 cpu:               1.2 elap:               1.2
 (Enter /software/gaussian/g16-c01/sse4/g16/l301.exe)
 Standard basis: 6-311+G(d) (5D, 7F)
 Ernie: Thresh=  0.10000D-02 Tol=  0.10000D-05 Strict=F.
 The following finite field(s) will be applied:
 An electric field of              0.0000  0.0000 -0.0038
   261 basis functions,   443 primitive gaussians,   273 cartesian basis functions
    49 alpha electrons       49 beta electrons
       nuclear repulsion energy       772.8945969580 Hartrees.
 IExCor= 4639 DFT=T Ex+Corr=wB97XD ExCW=0 ScaHFX=  1.000000
 ScaDFX=  1.000000  1.000000  1.000000  1.000000 ScalE2=  1.000000  1.000000
 IRadAn=      5 IRanWt=     -1 IRanGd=            0 ICorTp=0 IEmpDi=121
 HFx  wShort=  0.000000 wLong=  0.200000 cFull=  0.222036 cShort=  0.000000 cLong=  0.777964
 DFx  wShort=  0.000000 wLong=  0.200000 cFull=  0.000000 cShort=  0.000000 cLong=  1.000000
 NAtoms=   15 NActive=   15 NUniq=   15 SFac= 1.00D+00 NAtFMM=   60 NAOKFM=F Big=F
 Integral buffers will be    131072 words long.
 Raffenetti 2 integral format.
 Two-electron integral symmetry is turned off.
 R6Disp:  Grimme-D2 Dispersion energy=       -0.0080346408 Hartrees.
 Nuclear repulsion after empirical dispersion term =      772.8865623173 Hartrees.
 Leave Link  301 at Thu May  2 13:58:24 2024, MaxMem=   134217728 cpu:               1.1 elap:               1.1
 (Enter /software/gaussian/g16-c01/sse4/g16/l302.exe)
 NPDir=0 NMtPBC=     1 NCelOv=     1 NCel=       1 NClECP=     1 NCelD=      1
         NCelK=      1 NCelE2=     1 NClLst=     1 CellRange=     0.0.
 One-electron integrals computed using PRISM.
 NBasis=   261 RedAO= T EigKep=  2.52D-06  NBF=   261
 NBsUse=   261 1.00D-06 EigRej= -1.00D+00 NBFU=   261
 Precomputing XC quadrature grid using
 IXCGrd= 4 IRadAn=           5 IRanWt=          -1 IRanGd=           0 AccXCQ= 0.00D+00.
 Generated NRdTot=       0 NPtTot=           0 NUsed=           0 NTot=          32
 NSgBfM=   273   273   273   273   273 MxSgAt=    15 MxSgA2=    15.
 Leave Link  302 at Thu May  2 13:58:46 2024, MaxMem=   134217728 cpu:              21.9 elap:              21.9
 (Enter /software/gaussian/g16-c01/sse4/g16/l303.exe)
 DipDrv:  MaxL=1.
 The nuclear repulsion energy is now       773.3565187607 hartrees.
 Leave Link  303 at Thu May  2 13:58:49 2024, MaxMem=   134217728 cpu:               3.2 elap:               3.3
 (Enter /software/gaussian/g16-c01/sse4/g16/l401.exe)
 ExpMin= 3.50D-02 ExpMax= 4.40D+05 ExpMxC= 1.51D+04 IAcc=3 IRadAn=         5 AccDes= 0.00D+00
 Harris functional with IExCor= 4639 and IRadAn=       5 diagonalized for initial guess.
 HarFok:  IExCor= 4639 AccDes= 0.00D+00 IRadAn=         5 IDoV= 1 UseB2=F ITyADJ=14
 ICtDFT=  3500011 ScaDFX=  1.000000  1.000000  1.000000  1.000000
 FoFCou: FMM=F IPFlag=           0 FMFlag=      100000 FMFlg1=           0
         NFxFlg=           0 DoJE=T BraDBF=F KetDBF=T FulRan=T
         wScrn=  0.000000 ICntrl=       500 IOpCl=  0 I1Cent=   200000004 NGrid=           0
         NMat0=    1 NMatS0=      1 NMatT0=    0 NMatD0=    1 NMtDS0=    0 NMtDT0=    0
 Symmetry not used in FoFCou.
 Harris En= -2970.60157710707    
 JPrj=0 DoOrth=F DoCkMO=F.
 Leave Link  401 at Thu May  2 13:59:21 2024, MaxMem=   134217728 cpu:              31.5 elap:              31.5
 (Enter /software/gaussian/g16-c01/sse4/g16/l502.exe)
 Two-electron integral symmetry not used.
 Closed shell SCF:
 Using DIIS extrapolation, IDIIS=  1040.
 NGot=   134217728 LenX=   134063053 LenY=   133988083
 Requested convergence on RMS density matrix=1.00D-08 within 128 cycles.
 Requested convergence on MAX density matrix=1.00D-06.
 Requested convergence on             energy=1.00D-06.
 No special actions if energy rises.
 Fock matrices will be formed incrementally for  20 cycles.

 Cycle   1  Pass 1  IDiag  1:
 FoFJK:  IHMeth= 1 ICntrl=       0 DoSepK=T KAlg= 0 I1Cent=           0 FoldK=F
 IRaf=         1 NMat=       1 IRICut=       1 DoRegI=T DoRafI=F ISym2E= 0 IDoP0=0 IntGTp=1.
 FoFCou: FMM=F IPFlag=           0 FMFlag=      100000 FMFlg1=           0
         NFxFlg=           0 DoJE=T BraDBF=F KetDBF=F FulRan=T
         wScrn=  0.000000 ICntrl=       500 IOpCl=  0 I1Cent=           0 NGrid=           0
         NMat0=    1 NMatS0=      1 NMatT0=    0 NMatD0=    1 NMtDS0=    0 NMtDT0=    0
 Symmetry not used in FoFCou.
 E= -3009.69861541681    
 DIIS: error= 2.90D-01 at cycle   1 NSaved=   1.
 NSaved= 1 IEnMin= 1 EnMin= -3009.69861541681     IErMin= 1 ErrMin= 2.90D-01
 ErrMax= 2.90D-01  0.00D+00 EMaxC= 1.00D-01 BMatC= 1.19D+01 BMatP= 1.19D+01
 IDIUse=3 WtCom= 0.00D+00 WtEn= 1.00D+00
 Coeff-Com:  0.100D+01
 Coeff-En:   0.100D+01
 Coeff:      0.100D+01
 Gap=     0.315 Goal=   None    Shift=    0.000
 GapD=    0.315 DampG=1.000 DampE=0.250 DampFc=0.2500 IDamp=-1.
 Damping current iteration by 2.50D-01
 RMSDP=4.19D-02 MaxDP=4.34D+00              OVMax= 2.61D-01

 Cycle   2  Pass 1  IDiag  1:
 RMSU=  5.70D-03    CP:  9.17D-01
 E= -3009.98945764204     Delta-E=       -0.290842225228 Rises=F Damp=T
 DIIS: error= 2.19D-01 at cycle   2 NSaved=   2.
 NSaved= 2 IEnMin= 2 EnMin= -3009.98945764204     IErMin= 2 ErrMin= 2.19D-01
 ErrMax= 2.19D-01  0.00D+00 EMaxC= 1.00D-01 BMatC= 5.46D+00 BMatP= 1.19D+01
 IDIUse=3 WtCom= 0.00D+00 WtEn= 1.00D+00
 Coeff-Com: -0.183D+01 0.283D+01
 Coeff-En:   0.000D+00 0.100D+01
 Coeff:      0.000D+00 0.100D+01
 Gap=     0.268 Goal=   None    Shift=    0.000
 RMSDP=3.38D-02 MaxDP=3.61D+00 DE=-2.91D-01 OVMax= 6.88D-02

 Cycle   3  Pass 1  IDiag  1:
 RMSU=  5.03D-03    CP:  6.21D-01  3.00D+00
 E= -3010.37688273820     Delta-E=       -0.387425096162 Rises=F Damp=F
 DIIS: error= 6.57D-02 at cycle   3 NSaved=   3.
 NSaved= 3 IEnMin= 3 EnMin= -3010.37688273820     IErMin= 3 ErrMin= 6.57D-02
 ErrMax= 6.57D-02  0.00D+00 EMaxC= 1.00D-01 BMatC= 7.31D-01 BMatP= 5.46D+00
 IDIUse=3 WtCom= 3.43D-01 WtEn= 6.57D-01
 Coeff-Com:  0.260D+01-0.341D+01 0.181D+01
 Coeff-En:   0.327D-01 0.000D+00 0.967D+00
 Coeff:      0.914D+00-0.117D+01 0.126D+01
 Gap=     0.263 Goal=   None    Shift=    0.000
 RMSDP=1.07D-02 MaxDP=6.37D-01 DE=-3.87D-01 OVMax= 7.43D-02

 Cycle   4  Pass 1  IDiag  1:
 RMSU=  6.24D-03    CP:  6.53D-01  2.02D+00  2.06D+00
 E= -3010.48453137392     Delta-E=       -0.107648635727 Rises=F Damp=F
 DIIS: error= 3.79D-02 at cycle   4 NSaved=   4.
 NSaved= 4 IEnMin= 4 EnMin= -3010.48453137392     IErMin= 4 ErrMin= 3.79D-02
 ErrMax= 3.79D-02  0.00D+00 EMaxC= 1.00D-01 BMatC= 2.25D-01 BMatP= 7.31D-01
 IDIUse=3 WtCom= 6.21D-01 WtEn= 3.79D-01
 Coeff-Com:  0.814D-02 0.304D-02 0.369D+00 0.620D+00
 Coeff-En:   0.000D+00 0.000D+00 0.193D+00 0.807D+00
 Coeff:      0.506D-02 0.189D-02 0.303D+00 0.691D+00
 Gap=     0.257 Goal=   None    Shift=    0.000
 RMSDP=5.13D-03 MaxDP=6.02D-01 DE=-1.08D-01 OVMax= 3.05D-02

 Cycle   5  Pass 1  IDiag  1:
 RMSU=  1.64D-03    CP:  6.15D-01  2.22D+00  1.91D+00  6.11D-01
 E= -3010.52767597247     Delta-E=       -0.043144598548 Rises=F Damp=F
 DIIS: error= 7.20D-03 at cycle   5 NSaved=   5.
 NSaved= 5 IEnMin= 5 EnMin= -3010.52767597247     IErMin= 5 ErrMin= 7.20D-03
 ErrMax= 7.20D-03  0.00D+00 EMaxC= 1.00D-01 BMatC= 9.70D-03 BMatP= 2.25D-01
 IDIUse=3 WtCom= 9.28D-01 WtEn= 7.20D-02
 Coeff-Com: -0.971D-01 0.135D+00 0.124D+00 0.396D+00 0.441D+00
 Coeff-En:   0.000D+00 0.000D+00 0.000D+00 0.000D+00 0.100D+01
 Coeff:     -0.901D-01 0.125D+00 0.115D+00 0.368D+00 0.482D+00
 Gap=     0.250 Goal=   None    Shift=    0.000
 RMSDP=1.44D-03 MaxDP=1.68D-01 DE=-4.31D-02 OVMax= 2.05D-02

 Cycle   6  Pass 1  IDiag  1:
 RMSU=  5.58D-04    CP:  6.20D-01  2.25D+00  1.99D+00  7.73D-01  6.46D-01
 E= -3010.53073999590     Delta-E=       -0.003064023431 Rises=F Damp=F
 DIIS: error= 2.97D-03 at cycle   6 NSaved=   6.
 NSaved= 6 IEnMin= 6 EnMin= -3010.53073999590     IErMin= 6 ErrMin= 2.97D-03
 ErrMax= 2.97D-03  0.00D+00 EMaxC= 1.00D-01 BMatC= 7.46D-04 BMatP= 9.70D-03
 IDIUse=3 WtCom= 9.70D-01 WtEn= 2.97D-02
 Coeff-Com: -0.944D-01 0.127D+00 0.326D-02 0.163D+00 0.330D+00 0.471D+00
 Coeff-En:   0.000D+00 0.000D+00 0.000D+00 0.000D+00 0.106D+00 0.894D+00
 Coeff:     -0.916D-01 0.123D+00 0.316D-02 0.158D+00 0.324D+00 0.484D+00
 Gap=     0.246 Goal=   None    Shift=    0.000
 RMSDP=4.01D-04 MaxDP=3.17D-02 DE=-3.06D-03 OVMax= 5.99D-03

 Cycle   7  Pass 1  IDiag  1:
 RMSU=  2.16D-04    CP:  6.19D-01  2.24D+00  1.97D+00  7.43D-01  7.45D-01
                    CP:  6.70D-01
 E= -3010.53126750098     Delta-E=       -0.000527505082 Rises=F Damp=F
 DIIS: error= 3.13D-04 at cycle   7 NSaved=   7.
 NSaved= 7 IEnMin= 7 EnMin= -3010.53126750098     IErMin= 7 ErrMin= 3.13D-04
 ErrMax= 3.13D-04  0.00D+00 EMaxC= 1.00D-01 BMatC= 1.52D-05 BMatP= 7.46D-04
 IDIUse=3 WtCom= 9.97D-01 WtEn= 3.13D-03
 Coeff-Com: -0.340D-01 0.453D-01-0.119D-01 0.315D-01 0.794D-01 0.179D+00
 Coeff-Com:  0.711D+00
 Coeff-En:   0.000D+00 0.000D+00 0.000D+00 0.000D+00 0.000D+00 0.000D+00
 Coeff-En:   0.100D+01
 Coeff:     -0.339D-01 0.452D-01-0.118D-01 0.314D-01 0.791D-01 0.178D+00
 Coeff:      0.712D+00
 Gap=     0.247 Goal=   None    Shift=    0.000
 RMSDP=1.47D-04 MaxDP=1.12D-02 DE=-5.28D-04 OVMax= 1.63D-03

 Cycle   8  Pass 1  IDiag  1:
 RMSU=  6.35D-05    CP:  6.19D-01  2.23D+00  1.98D+00  7.57D-01  7.90D-01
                    CP:  7.31D-01  9.36D-01
 E= -3010.53128578571     Delta-E=       -0.000018284722 Rises=F Damp=F
 DIIS: error= 9.78D-05 at cycle   8 NSaved=   8.
 NSaved= 8 IEnMin= 8 EnMin= -3010.53128578571     IErMin= 8 ErrMin= 9.78D-05
 ErrMax= 9.78D-05  0.00D+00 EMaxC= 1.00D-01 BMatC= 2.15D-06 BMatP= 1.52D-05
 IDIUse=1 WtCom= 1.00D+00 WtEn= 0.00D+00
 Coeff-Com:  0.501D-02-0.691D-02-0.339D-02-0.136D-01-0.285D-01-0.348D-01
 Coeff-Com:  0.166D+00 0.917D+00
 Coeff:      0.501D-02-0.691D-02-0.339D-02-0.136D-01-0.285D-01-0.348D-01
 Coeff:      0.166D+00 0.917D+00
 Gap=     0.246 Goal=   None    Shift=    0.000
 RMSDP=6.70D-05 MaxDP=5.66D-03 DE=-1.83D-05 OVMax= 1.53D-03

 Cycle   9  Pass 1  IDiag  1:
 RMSU=  2.40D-05    CP:  6.19D-01  2.23D+00  1.98D+00  7.62D-01  8.00D-01
                    CP:  7.40D-01  1.08D+00  1.23D+00
 E= -3010.53129047082     Delta-E=       -0.000004685113 Rises=F Damp=F
 DIIS: error= 2.38D-05 at cycle   9 NSaved=   9.
 NSaved= 9 IEnMin= 9 EnMin= -3010.53129047082     IErMin= 9 ErrMin= 2.38D-05
 ErrMax= 2.38D-05  0.00D+00 EMaxC= 1.00D-01 BMatC= 2.61D-07 BMatP= 2.15D-06
 IDIUse=1 WtCom= 1.00D+00 WtEn= 0.00D+00
 Coeff-Com:  0.660D-02-0.886D-02 0.748D-03-0.871D-02-0.177D-01-0.317D-01
 Coeff-Com: -0.642D-01 0.255D+00 0.869D+00
 Coeff:      0.660D-02-0.886D-02 0.748D-03-0.871D-02-0.177D-01-0.317D-01
 Coeff:     -0.642D-01 0.255D+00 0.869D+00
 Gap=     0.246 Goal=   None    Shift=    0.000
 RMSDP=3.45D-05 MaxDP=3.51D-03 DE=-4.69D-06 OVMax= 8.89D-04

 Cycle  10  Pass 1  IDiag  1:
 RMSU=  1.06D-05    CP:  6.19D-01  2.23D+00  1.98D+00  7.61D-01  8.06D-01
                    CP:  7.33D-01  1.12D+00  1.48D+00  1.06D+00
 E= -3010.53129148663     Delta-E=       -0.000001015811 Rises=F Damp=F
 DIIS: error= 1.47D-05 at cycle  10 NSaved=  10.
 NSaved=10 IEnMin=10 EnMin= -3010.53129148663     IErMin=10 ErrMin= 1.47D-05
 ErrMax= 1.47D-05  0.00D+00 EMaxC= 1.00D-01 BMatC= 7.16D-08 BMatP= 2.61D-07
 IDIUse=1 WtCom= 1.00D+00 WtEn= 0.00D+00
 Coeff-Com:  0.467D-03-0.597D-03 0.492D-03 0.402D-04 0.244D-02 0.429D-02
 Coeff-Com: -0.426D-01-0.997D-01 0.195D+00 0.940D+00
 Coeff:      0.467D-03-0.597D-03 0.492D-03 0.402D-04 0.244D-02 0.429D-02
 Coeff:     -0.426D-01-0.997D-01 0.195D+00 0.940D+00
 Gap=     0.246 Goal=   None    Shift=    0.000
 RMSDP=1.54D-05 MaxDP=1.50D-03 DE=-1.02D-06 OVMax= 5.01D-04

 Cycle  11  Pass 1  IDiag  1:
 RMSU=  7.60D-06    CP:  6.19D-01  2.23D+00  1.98D+00  7.61D-01  8.08D-01
                    CP:  7.29D-01  1.12D+00  1.61D+00  1.17D+00  1.45D+00
 E= -3010.53129175840     Delta-E=       -0.000000271776 Rises=F Damp=F
 DIIS: error= 7.48D-06 at cycle  11 NSaved=  11.
 NSaved=11 IEnMin=11 EnMin= -3010.53129175840     IErMin=11 ErrMin= 7.48D-06
 ErrMax= 7.48D-06  0.00D+00 EMaxC= 1.00D-01 BMatC= 8.61D-09 BMatP= 7.16D-08
 IDIUse=1 WtCom= 1.00D+00 WtEn= 0.00D+00
 Coeff-Com: -0.448D-03 0.598D-03 0.125D-04 0.968D-03 0.188D-02 0.434D-02
 Coeff-Com:  0.198D-01-0.177D-01-0.208D+00-0.243D+00 0.144D+01
 Coeff:     -0.448D-03 0.598D-03 0.125D-04 0.968D-03 0.188D-02 0.434D-02
 Coeff:      0.198D-01-0.177D-01-0.208D+00-0.243D+00 0.144D+01
 Gap=     0.246 Goal=   None    Shift=    0.000
 RMSDP=1.54D-05 MaxDP=1.46D-03 DE=-2.72D-07 OVMax= 3.91D-04

 Cycle  12  Pass 1  IDiag  1:
 RMSU=  1.67D-06    CP:  6.19D-01  2.23D+00  1.98D+00  7.60D-01  8.09D-01
                    CP:  7.23D-01  1.12D+00  1.71D+00  1.20D+00  1.93D+00
                    CP:  1.77D+00
 E= -3010.53129184312     Delta-E=       -0.000000084719 Rises=F Damp=F
 DIIS: error= 2.97D-06 at cycle  12 NSaved=  12.
 NSaved=12 IEnMin=12 EnMin= -3010.53129184312     IErMin=12 ErrMin= 2.97D-06
 ErrMax= 2.97D-06  0.00D+00 EMaxC= 1.00D-01 BMatC= 1.73D-09 BMatP= 8.61D-09
 IDIUse=1 WtCom= 1.00D+00 WtEn= 0.00D+00
 Coeff-Com: -0.171D-03 0.226D-03-0.392D-04 0.296D-03 0.111D-03 0.479D-03
 Coeff-Com:  0.117D-01 0.694D-02-0.887D-01-0.206D+00 0.505D+00 0.771D+00
 Coeff:     -0.171D-03 0.226D-03-0.392D-04 0.296D-03 0.111D-03 0.479D-03
 Coeff:      0.117D-01 0.694D-02-0.887D-01-0.206D+00 0.505D+00 0.771D+00
 Gap=     0.246 Goal=   None    Shift=    0.000
 RMSDP=2.02D-06 MaxDP=1.79D-04 DE=-8.47D-08 OVMax= 8.77D-05

 Cycle  13  Pass 1  IDiag  1:
 RMSU=  8.61D-07    CP:  6.19D-01  2.23D+00  1.98D+00  7.60D-01  8.09D-01
                    CP:  7.22D-01  1.11D+00  1.72D+00  1.20D+00  1.98D+00
                    CP:  1.88D+00  1.21D+00
 E= -3010.53129185033     Delta-E=       -0.000000007204 Rises=F Damp=F
 DIIS: error= 1.73D-06 at cycle  13 NSaved=  13.
 NSaved=13 IEnMin=13 EnMin= -3010.53129185033     IErMin=13 ErrMin= 1.73D-06
 ErrMax= 1.73D-06  0.00D+00 EMaxC= 1.00D-01 BMatC= 3.12D-10 BMatP= 1.73D-09
 IDIUse=1 WtCom= 1.00D+00 WtEn= 0.00D+00
 Coeff-Com:  0.165D-04-0.216D-04-0.232D-04-0.149D-03-0.444D-03-0.105D-02
 Coeff-Com: -0.387D-02 0.277D-02 0.461D-01 0.367D-01-0.310D+00 0.102D+00
 Coeff-Com:  0.113D+01
 Coeff:      0.165D-04-0.216D-04-0.232D-04-0.149D-03-0.444D-03-0.105D-02
 Coeff:     -0.387D-02 0.277D-02 0.461D-01 0.367D-01-0.310D+00 0.102D+00
 Coeff:      0.113D+01
 Gap=     0.246 Goal=   None    Shift=    0.000
 RMSDP=9.57D-07 MaxDP=4.78D-05 DE=-7.20D-09 OVMax= 4.98D-05

 Cycle  14  Pass 1  IDiag  1:
 RMSU=  3.52D-07    CP:  6.19D-01  2.23D+00  1.98D+00  7.60D-01  8.09D-01
                    CP:  7.22D-01  1.11D+00  1.72D+00  1.20D+00  2.00D+00
                    CP:  1.93D+00  1.48D+00  1.60D+00
 E= -3010.53129185215     Delta-E=       -0.000000001824 Rises=F Damp=F
 DIIS: error= 5.23D-07 at cycle  14 NSaved=  14.
 NSaved=14 IEnMin=14 EnMin= -3010.53129185215     IErMin=14 ErrMin= 5.23D-07
 ErrMax= 5.23D-07  0.00D+00 EMaxC= 1.00D-01 BMatC= 2.95D-11 BMatP= 3.12D-10
 IDIUse=1 WtCom= 1.00D+00 WtEn= 0.00D+00
 Coeff-Com:  0.554D-05-0.707D-05-0.366D-05-0.353D-04-0.214D-04-0.937D-04
 Coeff-Com: -0.141D-02-0.288D-03 0.147D-01 0.245D-01-0.899D-01-0.687D-01
 Coeff-Com:  0.156D+00 0.966D+00
 Coeff:      0.554D-05-0.707D-05-0.366D-05-0.353D-04-0.214D-04-0.937D-04
 Coeff:     -0.141D-02-0.288D-03 0.147D-01 0.245D-01-0.899D-01-0.687D-01
 Coeff:      0.156D+00 0.966D+00
 Gap=     0.246 Goal=   None    Shift=    0.000
 RMSDP=2.60D-07 MaxDP=1.09D-05 DE=-1.82D-09 OVMax= 1.12D-05

 Cycle  15  Pass 1  IDiag  1:
 RMSU=  1.44D-07    CP:  6.19D-01  2.23D+00  1.98D+00  7.60D-01  8.09D-01
                    CP:  7.22D-01  1.11D+00  1.71D+00  1.20D+00  2.00D+00
                    CP:  1.92D+00  1.52D+00  1.74D+00  1.17D+00
 E= -3010.53129185236     Delta-E=       -0.000000000211 Rises=F Damp=F
 DIIS: error= 2.13D-07 at cycle  15 NSaved=  15.
 NSaved=15 IEnMin=15 EnMin= -3010.53129185236     IErMin=15 ErrMin= 2.13D-07
 ErrMax= 2.13D-07  0.00D+00 EMaxC= 1.00D-01 BMatC= 8.97D-12 BMatP= 2.95D-11
 IDIUse=1 WtCom= 1.00D+00 WtEn= 0.00D+00
 Coeff-Com:  0.603D-05-0.802D-05 0.382D-05 0.447D-05 0.560D-04 0.114D-03
 Coeff-Com:  0.146D-04-0.628D-03-0.175D-02 0.401D-02 0.122D-01-0.486D-01
 Coeff-Com: -0.123D+00 0.378D+00 0.780D+00
 Coeff:      0.603D-05-0.802D-05 0.382D-05 0.447D-05 0.560D-04 0.114D-03
 Coeff:      0.146D-04-0.628D-03-0.175D-02 0.401D-02 0.122D-01-0.486D-01
 Coeff:     -0.123D+00 0.378D+00 0.780D+00
 Gap=     0.246 Goal=   None    Shift=    0.000
 RMSDP=1.31D-07 MaxDP=8.52D-06 DE=-2.11D-10 OVMax= 5.07D-06

 Cycle  16  Pass 1  IDiag  1:
 RMSU=  4.10D-08    CP:  6.19D-01  2.23D+00  1.98D+00  7.60D-01  8.09D-01
                    CP:  7.22D-01  1.11D+00  1.71D+00  1.20D+00  2.00D+00
                    CP:  1.92D+00  1.54D+00  1.77D+00  1.31D+00  1.26D+00
 E= -3010.53129185231     Delta-E=        0.000000000056 Rises=F Damp=F
 DIIS: error= 6.61D-08 at cycle  16 NSaved=  16.
 NSaved=16 IEnMin=15 EnMin= -3010.53129185236     IErMin=16 ErrMin= 6.61D-08
 ErrMax= 6.61D-08  0.00D+00 EMaxC= 1.00D-01 BMatC= 1.35D-12 BMatP= 8.97D-12
 IDIUse=1 WtCom= 1.00D+00 WtEn= 0.00D+00
 Coeff-Com: -0.913D-06 0.120D-05 0.139D-05 0.941D-05 0.268D-04 0.562D-04
 Coeff-Com:  0.225D-03-0.186D-03-0.291D-02-0.186D-02 0.182D-01-0.453D-02
 Coeff-Com: -0.570D-01-0.591D-01 0.253D+00 0.854D+00
 Coeff:     -0.913D-06 0.120D-05 0.139D-05 0.941D-05 0.268D-04 0.562D-04
 Coeff:      0.225D-03-0.186D-03-0.291D-02-0.186D-02 0.182D-01-0.453D-02
 Coeff:     -0.570D-01-0.591D-01 0.253D+00 0.854D+00
 Gap=     0.246 Goal=   None    Shift=    0.000
 RMSDP=4.88D-08 MaxDP=3.37D-06 DE= 5.59D-11 OVMax= 1.33D-06

 Cycle  17  Pass 1  IDiag  1:
 RMSU=  2.07D-08    CP:  6.19D-01  2.23D+00  1.98D+00  7.60D-01  8.09D-01
                    CP:  7.22D-01  1.11D+00  1.71D+00  1.20D+00  2.00D+00
                    CP:  1.92D+00  1.53D+00  1.77D+00  1.35D+00  1.45D+00
                    CP:  1.32D+00
 E= -3010.53129185237     Delta-E=       -0.000000000065 Rises=F Damp=F
 DIIS: error= 2.50D-08 at cycle  17 NSaved=  17.
 NSaved=17 IEnMin=17 EnMin= -3010.53129185237     IErMin=17 ErrMin= 2.50D-08
 ErrMax= 2.50D-08  0.00D+00 EMaxC= 1.00D-01 BMatC= 1.48D-13 BMatP= 1.35D-12
 IDIUse=1 WtCom= 1.00D+00 WtEn= 0.00D+00
 Coeff-Com: -0.127D-05 0.169D-05-0.247D-06 0.153D-05-0.125D-05-0.541D-05
 Coeff-Com:  0.306D-04 0.851D-04-0.375D-03-0.761D-03 0.190D-02 0.492D-02
 Coeff-Com:  0.611D-02-0.735D-01-0.383D-01 0.159D+00 0.941D+00
 Coeff:     -0.127D-05 0.169D-05-0.247D-06 0.153D-05-0.125D-05-0.541D-05
 Coeff:      0.306D-04 0.851D-04-0.375D-03-0.761D-03 0.190D-02 0.492D-02
 Coeff:      0.611D-02-0.735D-01-0.383D-01 0.159D+00 0.941D+00
 Gap=     0.246 Goal=   None    Shift=    0.000
 RMSDP=5.05D-08 MaxDP=4.97D-06 DE=-6.46D-11 OVMax= 5.01D-07

 Cycle  18  Pass 1  IDiag  1:
 RMSU=  6.25D-09    CP:  6.19D-01  2.23D+00  1.98D+00  7.60D-01  8.09D-01
                    CP:  7.22D-01  1.11D+00  1.72D+00  1.20D+00  2.00D+00
                    CP:  1.92D+00  1.54D+00  1.76D+00  1.34D+00  1.55D+00
                    CP:  1.50D+00  1.16D+00
 E= -3010.53129185234     Delta-E=        0.000000000033 Rises=F Damp=F
 DIIS: error= 1.19D-08 at cycle  18 NSaved=  18.
 NSaved=18 IEnMin=17 EnMin= -3010.53129185237     IErMin=18 ErrMin= 1.19D-08
 ErrMax= 1.19D-08  0.00D+00 EMaxC= 1.00D-01 BMatC= 4.69D-14 BMatP= 1.48D-13
 IDIUse=1 WtCom= 1.00D+00 WtEn= 0.00D+00
 Coeff-Com: -0.308D-06 0.412D-06-0.335D-06-0.102D-05-0.577D-05-0.138D-04
 Coeff-Com: -0.231D-04 0.844D-04 0.257D-03-0.164D-03-0.217D-02 0.305D-02
 Coeff-Com:  0.134D-01-0.236D-01-0.531D-01-0.870D-01 0.421D+00 0.729D+00
 Coeff:     -0.308D-06 0.412D-06-0.335D-06-0.102D-05-0.577D-05-0.138D-04
 Coeff:     -0.231D-04 0.844D-04 0.257D-03-0.164D-03-0.217D-02 0.305D-02
 Coeff:      0.134D-01-0.236D-01-0.531D-01-0.870D-01 0.421D+00 0.729D+00
 Gap=     0.246 Goal=   None    Shift=    0.000
 RMSDP=1.97D-08 MaxDP=2.03D-06 DE= 3.27D-11 OVMax= 1.98D-07

 Cycle  19  Pass 1  IDiag  1:
 RMSU=  2.51D-09    CP:  6.19D-01  2.23D+00  1.98D+00  7.60D-01  8.09D-01
                    CP:  7.22D-01  1.11D+00  1.72D+00  1.20D+00  2.00D+00
                    CP:  1.92D+00  1.54D+00  1.76D+00  1.33D+00  1.57D+00
                    CP:  1.57D+00  1.37D+00  1.05D+00
 E= -3010.53129185233     Delta-E=        0.000000000011 Rises=F Damp=F
 DIIS: error= 7.29D-09 at cycle  19 NSaved=  19.
 NSaved=19 IEnMin=17 EnMin= -3010.53129185237     IErMin=19 ErrMin= 7.29D-09
 ErrMax= 7.29D-09  0.00D+00 EMaxC= 1.00D-01 BMatC= 4.74D-15 BMatP= 4.69D-14
 IDIUse=1 WtCom= 1.00D+00 WtEn= 0.00D+00
 Large coefficients: NSaved= 19 BigCof=    0.00 CofMax=   10.00 Det=-8.12D-15
 Inversion failed.  Reducing to 18 matrices.
 Large coefficients: NSaved= 18 BigCof=    0.00 CofMax=   10.00 Det=-8.22D-15
 Inversion failed.  Reducing to 17 matrices.
 Coeff-Com: -0.423D-07-0.181D-06-0.266D-06-0.970D-06-0.710D-05 0.298D-06
 Coeff-Com:  0.827D-04 0.116D-03-0.472D-03-0.365D-03 0.106D-02 0.569D-02
 Coeff-Com: -0.405D-03-0.438D-01-0.642D-01 0.102D+00 0.100D+01
 Coeff:     -0.423D-07-0.181D-06-0.266D-06-0.970D-06-0.710D-05 0.298D-06
 Coeff:      0.827D-04 0.116D-03-0.472D-03-0.365D-03 0.106D-02 0.569D-02
 Coeff:     -0.405D-03-0.438D-01-0.642D-01 0.102D+00 0.100D+01
 Gap=     0.246 Goal=   None    Shift=    0.000
 RMSDP=4.44D-09 MaxDP=4.64D-07 DE= 1.09D-11 OVMax= 1.48D-07

 SCF Done:  E(RwB97XD) =  -3010.53129185     A.U. after   19 cycles
            NFock= 19  Conv=0.44D-08     -V/T= 2.0016
 KE= 3.005855619781D+03 PE=-8.700109450890D+03 EE= 1.910366020496D+03
 Leave Link  502 at Thu May  2 14:18:59 2024, MaxMem=   134217728 cpu:            1177.6 elap:            1178.1
 (Enter /software/gaussian/g16-c01/sse4/g16/l601.exe)
 Copying SCF densities to generalized density rwf, IOpCl= 0 IROHF=0.

 **********************************************************************

            Population analysis using the SCF Density.

 **********************************************************************

 Alpha  occ. eigenvalues -- -483.31662 -62.86692 -56.66376 -56.65820 -56.65810
 Alpha  occ. eigenvalues --  -19.46275 -19.46253 -14.85703 -10.59347 -10.58278
 Alpha  occ. eigenvalues --  -10.57431 -10.57133 -10.53501 -10.52853  -9.02503
 Alpha  occ. eigenvalues --   -6.85158  -6.83327  -6.83299  -2.95068  -2.94585
 Alpha  occ. eigenvalues --   -2.94562  -2.93097  -2.93096  -1.49957  -1.32914
 Alpha  occ. eigenvalues --   -1.22590  -1.13049  -1.12611  -1.05111  -1.00472
 Alpha  occ. eigenvalues --   -0.95495  -0.90696  -0.85022  -0.80990  -0.80247
 Alpha  occ. eigenvalues --   -0.80128  -0.78020  -0.76258  -0.75709  -0.72211
 Alpha  occ. eigenvalues --   -0.68662  -0.67698  -0.63606  -0.60106  -0.57460
 Alpha  occ. eigenvalues --   -0.57016  -0.56611  -0.55974  -0.54937
 Alpha virt. eigenvalues --   -0.30291  -0.20463  -0.16019  -0.13158  -0.08806
 Alpha virt. eigenvalues --   -0.06189  -0.06003  -0.05538  -0.03888  -0.03166
 Alpha virt. eigenvalues --   -0.02938  -0.02205  -0.01826  -0.00845  -0.00333
 Alpha virt. eigenvalues --    0.00763   0.01223   0.01498   0.02118   0.03356
 Alpha virt. eigenvalues --    0.04335   0.05313   0.05772   0.06137   0.06717
 Alpha virt. eigenvalues --    0.07391   0.07748   0.07946   0.09397   0.09464
 Alpha virt. eigenvalues --    0.10132   0.10793   0.11684   0.11763   0.12597
 Alpha virt. eigenvalues --    0.13013   0.13359   0.13503   0.14651   0.15787
 Alpha virt. eigenvalues --    0.16561   0.17145   0.17698   0.18758   0.19167
 Alpha virt. eigenvalues --    0.20182   0.20715   0.21415   0.22453   0.23955
 Alpha virt. eigenvalues --    0.24499   0.26757   0.27786   0.29125   0.31216
 Alpha virt. eigenvalues --    0.32268   0.33201   0.33577   0.34357   0.36455
 Alpha virt. eigenvalues --    0.37138   0.37630   0.39494   0.40554   0.41739
 Alpha virt. eigenvalues --    0.43315   0.44143   0.45324   0.46894   0.47387
 Alpha virt. eigenvalues --    0.48511   0.50349   0.50708   0.52012   0.53554
 Alpha virt. eigenvalues --    0.55015   0.55932   0.58039   0.58154   0.60143
 Alpha virt. eigenvalues --    0.61053   0.62222   0.64337   0.67278   0.68136
 Alpha virt. eigenvalues --    0.71307   0.71556   0.72830   0.74345   0.74569
 Alpha virt. eigenvalues --    0.74741   0.77322   0.79641   0.82912   0.85503
 Alpha virt. eigenvalues --    0.86935   0.87585   0.91466   0.94085   0.98720
 Alpha virt. eigenvalues --    1.00341   1.02463   1.03841   1.05597   1.06918
 Alpha virt. eigenvalues --    1.08752   1.12607   1.13349   1.14036   1.17866
 Alpha virt. eigenvalues --    1.21025   1.22849   1.28085   1.33419   1.36277
 Alpha virt. eigenvalues --    1.36897   1.38970   1.43078   1.54870   1.56685
 Alpha virt. eigenvalues --    1.57300   1.59850   1.61210   1.63939   1.65735
 Alpha virt. eigenvalues --    1.68112   1.71416   1.73976   1.75264   1.79441
 Alpha virt. eigenvalues --    1.83943   1.85348   1.87265   1.94404   1.95899
 Alpha virt. eigenvalues --    1.97825   2.02358   2.02936   2.07197   2.08801
 Alpha virt. eigenvalues --    2.12750   2.14597   2.22332   2.23690   2.27401
 Alpha virt. eigenvalues --    2.33524   2.39903   2.41540   2.44374   2.53262
 Alpha virt. eigenvalues --    2.58091   2.63165   2.65954   2.68743   2.71686
 Alpha virt. eigenvalues --    2.73679   2.76361   2.77435   2.80609   2.82011
 Alpha virt. eigenvalues --    2.93181   2.98127   3.01382   3.05791   3.08969
 Alpha virt. eigenvalues --    3.14852   3.16359   3.17568   3.22484   3.26551
 Alpha virt. eigenvalues --    3.27805   3.37927   3.46605   3.50154   3.54683
 Alpha virt. eigenvalues --    3.57581   3.68865   3.74192   3.83641   3.87341
 Alpha virt. eigenvalues --    4.09521   4.10369   4.18995   4.23105   4.42877
 Alpha virt. eigenvalues --    4.45155   4.54624   4.59817   4.93530   4.96366
 Alpha virt. eigenvalues --    5.05222   5.09703   5.61973   6.15128   6.67557
 Alpha virt. eigenvalues --    7.48376   7.50710   7.60842  23.22138  23.61287
 Alpha virt. eigenvalues --   23.71768  23.77979  23.95680  24.02113  35.31460
 Alpha virt. eigenvalues --   47.93656  49.85196  49.93859 289.81304 289.83644
 Alpha virt. eigenvalues --  289.962711020.94848
          Condensed to atoms (all electrons):
               1          2          3          4          5          6
     1  C    7.864855  -2.658207   0.894112  -0.088068   0.299063   0.056315
     2  C   -2.658207  17.120287  -4.367561   0.471878  -0.018797   0.188985
     3  C    0.894112  -4.367561  18.624973  -1.354691   0.028881   0.120420
     4  C   -0.088068   0.471878  -1.354691   6.418454   0.019064  -0.015881
     5  H    0.299063  -0.018797   0.028881   0.019064   0.330596  -0.001639
     6  H    0.056315   0.188985   0.120420  -0.015881  -0.001639   0.311374
     7  H    0.026574  -0.026248   0.022813   0.306361  -0.002788  -0.000004
     8  N   -0.098747   0.098383  -1.641736   0.018678  -0.000524  -0.029836
     9  O   -0.024951   0.216799  -0.161642  -0.014833  -0.000035  -0.002445
    10  O    0.274693  -0.222321  -0.207080  -0.024826   0.000017   0.021377
    11  C    0.768190  -0.764273   2.314425  -0.287098  -0.023994   0.008994
    12  H   -0.010357   0.015833   0.010769   0.014440   0.000012  -0.000017
    13  C   -1.200794  -4.051945  -8.001727   0.854179   0.024053  -0.008250
    14  H   -0.004986   0.011556   0.017390   0.005452  -0.000027   0.000033
    15  Br   0.001892  -0.183007  -0.218415   0.012699  -0.000123  -0.000535
               7          8          9         10         11         12
     1  C    0.026574  -0.098747  -0.024951   0.274693   0.768190  -0.010357
     2  C   -0.026248   0.098383   0.216799  -0.222321  -0.764273   0.015833
     3  C    0.022813  -1.641736  -0.161642  -0.207080   2.314425   0.010769
     4  C    0.306361   0.018678  -0.014833  -0.024826  -0.287098   0.014440
     5  H   -0.002788  -0.000524  -0.000035   0.000017  -0.023994   0.000012
     6  H   -0.000004  -0.029836  -0.002445   0.021377   0.008994  -0.000017
     7  H    0.337122  -0.000007   0.000007  -0.000002   0.032223  -0.002315
     8  N   -0.000007   7.613149   0.081533   0.178192  -0.306724   0.000411
     9  O    0.000007   0.081533   7.869960   0.007080   0.259208   0.000098
    10  O   -0.000002   0.178192   0.007080   7.824852   0.011038  -0.000018
    11  C    0.032223  -0.306724   0.259208   0.011038   7.942314   0.317927
    12  H   -0.002315   0.000411   0.000098  -0.000018   0.317927   0.319669
    13  C   -0.025169   1.191084  -0.276135   0.065610  -4.143301  -0.018501
    14  H   -0.000025  -0.026467   0.010279  -0.001766   0.006773  -0.004204
    15  Br  -0.000459   0.154996  -0.053635   0.002763   0.056524  -0.001792
              13         14         15
     1  C   -1.200794  -0.004986   0.001892
     2  C   -4.051945   0.011556  -0.183007
     3  C   -8.001727   0.017390  -0.218415
     4  C    0.854179   0.005452   0.012699
     5  H    0.024053  -0.000027  -0.000123
     6  H   -0.008250   0.000033  -0.000535
     7  H   -0.025169  -0.000025  -0.000459
     8  N    1.191084  -0.026467   0.154996
     9  O   -0.276135   0.010279  -0.053635
    10  O    0.065610  -0.001766   0.002763
    11  C   -4.143301   0.006773   0.056524
    12  H   -0.018501  -0.004204  -0.001792
    13  C   21.269474   0.292907   0.372042
    14  H    0.292907   0.306680  -0.037080
    15  Br   0.372042  -0.037080  34.748208
 Mulliken charges:
               1
     1  C   -0.099582
     2  C    0.168635
     3  C   -0.080933
     4  C   -0.335807
     5  H    0.346241
     6  H    0.351109
     7  H    0.331918
     8  N   -0.232386
     9  O    0.088712
    10  O    0.070391
    11  C   -0.192226
    12  H    0.358045
    13  C   -0.343526
    14  H    0.423485
    15  Br   0.145924
 Sum of Mulliken charges =   1.00000
 Mulliken charges with hydrogens summed into heavy atoms:
               1
     1  C    0.246658
     2  C    0.519744
     3  C   -0.080933
     4  C   -0.003889
     8  N   -0.232386
     9  O    0.088712
    10  O    0.070391
    11  C    0.165819
    13  C    0.079959
    15  Br   0.145924
 Electronic spatial extent (au):  <R**2>=           3946.9534
 Charge=              1.0000 electrons
 Dipole moment (field-independent basis, Debye):
    X=              2.7284    Y=             -0.7544    Z=             -0.0696  Tot=              2.8316
 Quadrupole moment (field-independent basis, Debye-Ang):
   XX=            -67.8395   YY=            -51.3819   ZZ=            -63.0497
   XY=             -2.6674   XZ=             -1.1562   YZ=              1.7921
 Traceless Quadrupole moment (field-independent basis, Debye-Ang):
   XX=             -7.0825   YY=              9.3751   ZZ=             -2.2927
   XY=             -2.6674   XZ=             -1.1562   YZ=              1.7921
 Octapole moment (field-independent basis, Debye-Ang**2):
  XXX=           -512.5996  YYY=             93.2145  ZZZ=             86.4560  XYY=           -137.2021
  XXY=             25.0379  XXZ=             29.8031  XZZ=           -134.4547  YZZ=             18.9580
  YYZ=             27.8718  XYZ=              6.5016
 Hexadecapole moment (field-independent basis, Debye-Ang**3):
 XXXX=          -3444.6339 YYYY=           -704.5980 ZZZZ=           -404.0486 XXXY=            180.4566
 XXXZ=            198.5812 YYYX=            187.6367 YYYZ=           -176.1656 ZZZX=            174.9586
 ZZZY=           -149.9782 XXYY=           -625.4806 XXZZ=           -530.8967 YYZZ=           -175.6864
 XXYZ=            -44.9061 YYXZ=             54.1317 ZZXY=             32.8650
 N-N= 7.733565187607D+02 E-N=-8.700109450420D+03  KE= 3.005855619781D+03
 No NMR shielding tensors so no spin-rotation constants.
 Leave Link  601 at Thu May  2 14:19:06 2024, MaxMem=   134217728 cpu:               7.2 elap:               7.2
 (Enter /software/gaussian/g16-c01/sse4/g16/l9999.exe)
 Unable to Open any file for archive entry.
 1\1\GINC-BHX0017\SP\RwB97XD\6-311+G(d)\C6H5Br1N1O2(1+)\BWEIGHT\02-May-
 2024\0\\#P wB97XD/6-311+G* NoSymm #P Field=Z-38\\TitleMe\\1,1\C,0,0.51
 93,1.233,-0.0319\C,0,1.9445,1.2692,-0.0367\C,0,2.6204,0.0928,-0.025\C,
 0,-0.196,0.0301,0.001\H,0,-0.0207,2.1742,-0.0434\H,0,2.4828,2.2089,-0.
 0361\H,0,-1.2777,0.0399,0.0117\N,0,4.0921,0.0959,0.0366\O,0,4.6393,-1.
 0217,0.1446\O,0,4.6649,1.1984,-0.0233\C,0,0.4943,-1.1671,0.021\H,0,-0.
 0325,-2.1149,0.0545\C,0,1.9629,-1.2165,-0.0211\H,0,2.4436,-1.9631,0.61
 51\Br,0,2.173,-1.9491,-1.9062\\Version=ES64L-G16RevC.01\HF=-3010.53129
 19\RMSD=4.443e-09\Dipole=-3.2557854,0.9313183,1.221851\Quadrupole=-5.2
 656371,6.9701897,-1.7045526,-1.9831617,-0.8595964,1.33238\PG=C01 [X(C6
 H5Br1N1O2)]\\@
 The archive entry for this job was punched.


 TELEVISION IS CALLED A MEDIUM BECAUSE IT ISN'T
 RARE, AND IT ISN'T WELL DONE.
 Job cpu time:       0 days  0 hours 20 minutes 48.5 seconds.
 Elapsed time:       0 days  0 hours 20 minutes 49.1 seconds.
 File lengths (MBytes):  RWF=     40 Int=      0 D2E=      0 Chk=     32 Scr=      1
 Normal termination of Gaussian 16 at Thu May  2 14:19:07 2024.
