 Entering Gaussian System, Link 0=g16
 Initial command:
 /software/gaussian/g16-c01/sse4/g16/l1.exe "/local_scratch/24665403/Gau-9076.inp" -scrdir="/local_scratch/24665403/"
 Entering Link 1 = /software/gaussian/g16-c01/sse4/g16/l1.exe PID=      9081.
  
 Copyright (c) 1988-2019, Gaussian, Inc.  All Rights Reserved.
  
 This is part of the Gaussian(R) 16 program.  It is based on
 the Gaussian(R) 09 system (copyright 2009, Gaussian, Inc.),
 the Gaussian(R) 03 system (copyright 2003, Gaussian, Inc.),
 the Gaussian(R) 98 system (copyright 1998, Gaussian, Inc.),
 the Gaussian(R) 94 system (copyright 1995, Gaussian, Inc.),
 the Gaussian 92(TM) system (copyright 1992, Gaussian, Inc.),
 the Gaussian 90(TM) system (copyright 1990, Gaussian, Inc.),
 the Gaussian 88(TM) system (copyright 1988, Gaussian, Inc.),
 the Gaussian 86(TM) system (copyright 1986, Carnegie Mellon
 University), and the Gaussian 82(TM) system (copyright 1983,
 Carnegie Mellon University). Gaussian is a federally registered
 trademark of Gaussian, Inc.
  
 This software contains proprietary and confidential information,
 including trade secrets, belonging to Gaussian, Inc.
  
 This software is provided under written license and may be
 used, copied, transmitted, or stored only in accord with that
 written license.
  
 The following legend is applicable only to US Government
 contracts under FAR:
  
                    RESTRICTED RIGHTS LEGEND
  
 Use, reproduction and disclosure by the US Government is
 subject to restrictions as set forth in subparagraphs (a)
 and (c) of the Commercial Computer Software - Restricted
 Rights clause in FAR 52.227-19.
  
 Gaussian, Inc.
 340 Quinnipiac St., Bldg. 40, Wallingford CT 06492
  
  
 ---------------------------------------------------------------
 Warning -- This program may not be used in any manner that
 competes with the business of Gaussian, Inc. or will provide
 assistance to any competitor of Gaussian, Inc.  The licensee
 of this program is prohibited from giving any competitor of
 Gaussian, Inc. access to this program.  By using this program,
 the user acknowledges that Gaussian, Inc. is engaged in the
 business of creating and licensing software in the field of
 computational chemistry and represents and warrants to the
 licensee that it is not a competitor of Gaussian, Inc. and that
 it will not use this program in any manner prohibited above.
 ---------------------------------------------------------------
  

 Cite this work as:
 Gaussian 16, Revision C.01,
 M. J. Frisch, G. W. Trucks, H. B. Schlegel, G. E. Scuseria, 
 M. A. Robb, J. R. Cheeseman, G. Scalmani, V. Barone, 
 G. A. Petersson, H. Nakatsuji, X. Li, M. Caricato, A. V. Marenich, 
 J. Bloino, B. G. Janesko, R. Gomperts, B. Mennucci, H. P. Hratchian, 
 J. V. Ortiz, A. F. Izmaylov, J. L. Sonnenberg, D. Williams-Young, 
 F. Ding, F. Lipparini, F. Egidi, J. Goings, B. Peng, A. Petrone, 
 T. Henderson, D. Ranasinghe, V. G. Zakrzewski, J. Gao, N. Rega, 
 G. Zheng, W. Liang, M. Hada, M. Ehara, K. Toyota, R. Fukuda, 
 J. Hasegawa, M. Ishida, T. Nakajima, Y. Honda, O. Kitao, H. Nakai, 
 T. Vreven, K. Throssell, J. A. Montgomery, Jr., J. E. Peralta, 
 F. Ogliaro, M. J. Bearpark, J. J. Heyd, E. N. Brothers, K. N. Kudin, 
 V. N. Staroverov, T. A. Keith, R. Kobayashi, J. Normand, 
 K. Raghavachari, A. P. Rendell, J. C. Burant, S. S. Iyengar, 
 J. Tomasi, M. Cossi, J. M. Millam, M. Klene, C. Adamo, R. Cammi, 
 J. W. Ochterski, R. L. Martin, K. Morokuma, O. Farkas, 
 J. B. Foresman, and D. J. Fox, Gaussian, Inc., Wallingford CT, 2019.
 
 ******************************************
 Gaussian 16:  ES64L-G16RevC.01  3-Jul-2019
                 2-May-2024 
 ******************************************
 %chk=geometry.chk
 %mem=1GB
 %nprocshared=12
 Will use up to   12 processors via shared memory.
 ----------------------------------------
 #P wB97XD/6-311+G* NoSymm #P Field=Z+194
 ----------------------------------------
 1/38=1,172=1/1;
 2/12=2,15=1,17=6,18=5,40=1/2;
 3/5=4,6=6,7=11,11=2,14=3,15=194,25=1,30=1,74=-58/1,2,3;
 4//1;
 5/5=2,38=5/2;
 6/7=2,8=2,9=2,10=2,28=1/1;
 99/5=1,9=1/99;
 Leave Link    1 at Thu May  2 13:58:20 2024, MaxMem=   134217728 cpu:               1.3 elap:               1.3
 (Enter /software/gaussian/g16-c01/sse4/g16/l101.exe)
 -------
 TitleMe
 -------
 Symbolic Z-matrix:
 Charge =  1 Multiplicity = 1
 C                     0.5193    1.233    -0.0319 
 C                     1.9445    1.2692   -0.0367 
 C                     2.6204    0.0928   -0.025 
 C                    -0.196     0.0301    0.001 
 H                    -0.0207    2.1742   -0.0434 
 H                     2.4828    2.2089   -0.0361 
 H                    -1.2777    0.0399    0.0117 
 N                     4.0921    0.0959    0.0366 
 O                     4.6393   -1.0217    0.1446 
 O                     4.6649    1.1984   -0.0233 
 C                     0.4943   -1.1671    0.021 
 H                    -0.0325   -2.1149    0.0545 
 C                     1.9629   -1.2165   -0.0211 
 H                     2.4436   -1.9631    0.6151 
 Br                    2.173    -1.9491   -1.9062 
 
 ITRead=  0  0  0  0  0  0  0  0  0  0  0  0  0  0  0
 MicOpt= -1 -1 -1 -1 -1 -1 -1 -1 -1 -1 -1 -1 -1 -1 -1
 NAtoms=     15 NQM=       15 NQMF=       0 NMMI=      0 NMMIF=      0
                NMic=       0 NMicF=      0.
                    Isotopes and Nuclear Properties:
 (Nuclear quadrupole moments (NQMom) in fm**2, nuclear magnetic moments (NMagM)
  in nuclear magnetons)

  Atom         1           2           3           4           5           6           7           8           9          10
 IAtWgt=          12          12          12          12           1           1           1          14          16          16
 AtmWgt=  12.0000000  12.0000000  12.0000000  12.0000000   1.0078250   1.0078250   1.0078250  14.0030740  15.9949146  15.9949146
 NucSpn=           0           0           0           0           1           1           1           2           0           0
 AtZEff=  -0.0000000  -0.0000000  -0.0000000  -0.0000000  -0.0000000  -0.0000000  -0.0000000  -0.0000000  -0.0000000  -0.0000000
 NQMom=    0.0000000   0.0000000   0.0000000   0.0000000   0.0000000   0.0000000   0.0000000   2.0440000   0.0000000   0.0000000
 NMagM=    0.0000000   0.0000000   0.0000000   0.0000000   2.7928460   2.7928460   2.7928460   0.4037610   0.0000000   0.0000000
 AtZNuc=   6.0000000   6.0000000   6.0000000   6.0000000   1.0000000   1.0000000   1.0000000   7.0000000   8.0000000   8.0000000

  Atom        11          12          13          14          15
 IAtWgt=          12           1          12           1          79
 AtmWgt=  12.0000000   1.0078250  12.0000000   1.0078250  78.9183361
 NucSpn=           0           1           0           1           3
 AtZEff=  -0.0000000  -0.0000000  -0.0000000  -0.0000000  -0.0000000
 NQMom=    0.0000000   0.0000000   0.0000000   0.0000000  31.3000000
 NMagM=    0.0000000   2.7928460   0.0000000   2.7928460   2.1063990
 AtZNuc=   6.0000000   1.0000000   6.0000000   1.0000000  35.0000000
 Leave Link  101 at Thu May  2 13:58:22 2024, MaxMem=   134217728 cpu:               1.5 elap:               1.5
 (Enter /software/gaussian/g16-c01/sse4/g16/l202.exe)
                          Input orientation:                          
 ---------------------------------------------------------------------
 Center     Atomic      Atomic             Coordinates (Angstroms)
 Number     Number       Type             X           Y           Z
 ---------------------------------------------------------------------
      1          6           0        0.519300    1.233000   -0.031900
      2          6           0        1.944500    1.269200   -0.036700
      3          6           0        2.620400    0.092800   -0.025000
      4          6           0       -0.196000    0.030100    0.001000
      5          1           0       -0.020700    2.174200   -0.043400
      6          1           0        2.482800    2.208900   -0.036100
      7          1           0       -1.277700    0.039900    0.011700
      8          7           0        4.092100    0.095900    0.036600
      9          8           0        4.639300   -1.021700    0.144600
     10          8           0        4.664900    1.198400   -0.023300
     11          6           0        0.494300   -1.167100    0.021000
     12          1           0       -0.032500   -2.114900    0.054500
     13          6           0        1.962900   -1.216500   -0.021100
     14          1           0        2.443600   -1.963100    0.615100
     15         35           0        2.173000   -1.949100   -1.906200
 ---------------------------------------------------------------------
                    Distance matrix (angstroms):
                    1          2          3          4          5
     1  C    0.000000
     2  C    1.425668   0.000000
     3  C    2.390549   1.356796   0.000000
     4  C    1.399895   2.473566   2.817218   0.000000
     5  H    1.085168   2.163581   3.362733   2.151712   0.000000
     6  H    2.192654   1.082960   2.120598   3.453189   2.503751
     7  H    2.157452   3.449071   3.898632   1.081797   2.477564
     8  N    3.750012   2.448304   1.472992   4.288753   4.608780
     9  O    4.699917   3.541615   2.312322   4.950458   5.653735
    10  O    4.145753   2.721354   2.324292   4.999386   4.786171
    11  C    2.400813   2.835836   2.471794   1.382101   3.381369
    12  H    3.394169   3.920329   3.452266   2.151887   4.290233
    13  C    2.843264   2.485817   1.465124   2.493060   3.928360
    14  H    3.786370   3.334922   2.160489   3.364142   4.860416
    15  Br   4.046416   3.728900   2.812194   3.628609   5.028314
                    6          7          8          9         10
     6  H    0.000000
     7  H    4.341452   0.000000
     8  N    2.657047   5.370150   0.000000
     9  O    3.888434   6.012948   1.249048   0.000000
    10  O    2.404752   6.054572   1.243863   2.226587   0.000000
    11  C    3.918516   2.144043   3.813080   4.149391   4.794941
    12  H    5.003018   2.489080   4.679774   4.798846   5.748876
    13  C    3.464662   3.475788   2.501842   2.688591   3.623886
    14  H    4.222698   4.268978   2.700314   2.434893   3.916224
    15  Br   4.569706   4.420610   3.411663   3.338935   4.434144
                   11         12         13         14         15
    11  C    0.000000
    12  H    1.084880   0.000000
    13  C    1.470034   2.189625   0.000000
    14  H    2.187771   2.543302   1.092353   0.000000
    15  Br   2.672762   2.955683   2.033334   2.535818   0.000000
 Symmetry turned off by external request.
 Stoichiometry    C6H5BrNO2(1+)
 Framework group  C1[X(C6H5BrNO2)]
 Deg. of freedom    39
 Full point group                 C1      NOp   1
 Rotational constants (GHZ):           1.1632986           0.9594224           0.5957624
 Leave Link  202 at Thu May  2 13:58:23 2024, MaxMem=   134217728 cpu:               1.2 elap:               1.2
 (Enter /software/gaussian/g16-c01/sse4/g16/l301.exe)
 Standard basis: 6-311+G(d) (5D, 7F)
 Ernie: Thresh=  0.10000D-02 Tol=  0.10000D-05 Strict=F.
 The following finite field(s) will be applied:
 An electric field of              0.0000  0.0000  0.0194
   261 basis functions,   443 primitive gaussians,   273 cartesian basis functions
    49 alpha electrons       49 beta electrons
       nuclear repulsion energy       772.8945969580 Hartrees.
 IExCor= 4639 DFT=T Ex+Corr=wB97XD ExCW=0 ScaHFX=  1.000000
 ScaDFX=  1.000000  1.000000  1.000000  1.000000 ScalE2=  1.000000  1.000000
 IRadAn=      5 IRanWt=     -1 IRanGd=            0 ICorTp=0 IEmpDi=121
 HFx  wShort=  0.000000 wLong=  0.200000 cFull=  0.222036 cShort=  0.000000 cLong=  0.777964
 DFx  wShort=  0.000000 wLong=  0.200000 cFull=  0.000000 cShort=  0.000000 cLong=  1.000000
 NAtoms=   15 NActive=   15 NUniq=   15 SFac= 1.00D+00 NAtFMM=   60 NAOKFM=F Big=F
 Integral buffers will be    131072 words long.
 Raffenetti 2 integral format.
 Two-electron integral symmetry is turned off.
 R6Disp:  Grimme-D2 Dispersion energy=       -0.0080346408 Hartrees.
 Nuclear repulsion after empirical dispersion term =      772.8865623173 Hartrees.
 Leave Link  301 at Thu May  2 13:58:24 2024, MaxMem=   134217728 cpu:               1.1 elap:               1.1
 (Enter /software/gaussian/g16-c01/sse4/g16/l302.exe)
 NPDir=0 NMtPBC=     1 NCelOv=     1 NCel=       1 NClECP=     1 NCelD=      1
         NCelK=      1 NCelE2=     1 NClLst=     1 CellRange=     0.0.
 One-electron integrals computed using PRISM.
 NBasis=   261 RedAO= T EigKep=  2.52D-06  NBF=   261
 NBsUse=   261 1.00D-06 EigRej= -1.00D+00 NBFU=   261
 Precomputing XC quadrature grid using
 IXCGrd= 4 IRadAn=           5 IRanWt=          -1 IRanGd=           0 AccXCQ= 0.00D+00.
 Generated NRdTot=       0 NPtTot=           0 NUsed=           0 NTot=          32
 NSgBfM=   273   273   273   273   273 MxSgAt=    15 MxSgA2=    15.
 Leave Link  302 at Thu May  2 13:58:46 2024, MaxMem=   134217728 cpu:              21.8 elap:              21.8
 (Enter /software/gaussian/g16-c01/sse4/g16/l303.exe)
 DipDrv:  MaxL=1.
 The nuclear repulsion energy is now       770.4873110007 hartrees.
 Leave Link  303 at Thu May  2 13:58:49 2024, MaxMem=   134217728 cpu:               3.3 elap:               3.3
 (Enter /software/gaussian/g16-c01/sse4/g16/l401.exe)
 ExpMin= 3.50D-02 ExpMax= 4.40D+05 ExpMxC= 1.51D+04 IAcc=3 IRadAn=         5 AccDes= 0.00D+00
 Harris functional with IExCor= 4639 and IRadAn=       5 diagonalized for initial guess.
 HarFok:  IExCor= 4639 AccDes= 0.00D+00 IRadAn=         5 IDoV= 1 UseB2=F ITyADJ=14
 ICtDFT=  3500011 ScaDFX=  1.000000  1.000000  1.000000  1.000000
 FoFCou: FMM=F IPFlag=           0 FMFlag=      100000 FMFlg1=           0
         NFxFlg=           0 DoJE=T BraDBF=F KetDBF=T FulRan=T
         wScrn=  0.000000 ICntrl=       500 IOpCl=  0 I1Cent=   200000004 NGrid=           0
         NMat0=    1 NMatS0=      1 NMatT0=    0 NMatD0=    1 NMtDS0=    0 NMtDT0=    0
 Symmetry not used in FoFCou.
 Harris En= -2970.63289969085    
 JPrj=0 DoOrth=F DoCkMO=F.
 Leave Link  401 at Thu May  2 13:59:21 2024, MaxMem=   134217728 cpu:              31.6 elap:              31.6
 (Enter /software/gaussian/g16-c01/sse4/g16/l502.exe)
 Two-electron integral symmetry not used.
 Closed shell SCF:
 Using DIIS extrapolation, IDIIS=  1040.
 NGot=   134217728 LenX=   134063053 LenY=   133988083
 Requested convergence on RMS density matrix=1.00D-08 within 128 cycles.
 Requested convergence on MAX density matrix=1.00D-06.
 Requested convergence on             energy=1.00D-06.
 No special actions if energy rises.
 Fock matrices will be formed incrementally for  20 cycles.

 Cycle   1  Pass 1  IDiag  1:
 FoFJK:  IHMeth= 1 ICntrl=       0 DoSepK=T KAlg= 0 I1Cent=           0 FoldK=F
 IRaf=         1 NMat=       1 IRICut=       1 DoRegI=T DoRafI=F ISym2E= 0 IDoP0=0 IntGTp=1.
 FoFCou: FMM=F IPFlag=           0 FMFlag=      100000 FMFlg1=           0
         NFxFlg=           0 DoJE=T BraDBF=F KetDBF=F FulRan=T
         wScrn=  0.000000 ICntrl=       500 IOpCl=  0 I1Cent=           0 NGrid=           0
         NMat0=    1 NMatS0=      1 NMatT0=    0 NMatD0=    1 NMtDS0=    0 NMtDT0=    0
 Symmetry not used in FoFCou.
 E= -3009.65138978198    
 DIIS: error= 2.91D-01 at cycle   1 NSaved=   1.
 NSaved= 1 IEnMin= 1 EnMin= -3009.65138978198     IErMin= 1 ErrMin= 2.91D-01
 ErrMax= 2.91D-01  0.00D+00 EMaxC= 1.00D-01 BMatC= 1.21D+01 BMatP= 1.21D+01
 IDIUse=3 WtCom= 0.00D+00 WtEn= 1.00D+00
 Coeff-Com:  0.100D+01
 Coeff-En:   0.100D+01
 Coeff:      0.100D+01
 Gap=     0.313 Goal=   None    Shift=    0.000
 GapD=    0.313 DampG=1.000 DampE=0.250 DampFc=0.2500 IDamp=-1.
 Damping current iteration by 2.50D-01
 RMSDP=1.90D-01 MaxDP=2.28D+01              OVMax= 2.61D-01

 Cycle   2  Pass 1  IDiag  1:
 RMSU=  9.46D-03    CP:  8.28D-01
 E= -3009.96933347458     Delta-E=       -0.317943692608 Rises=F Damp=T
 DIIS: error= 2.19D-01 at cycle   2 NSaved=   2.
 NSaved= 2 IEnMin= 2 EnMin= -3009.96933347458     IErMin= 2 ErrMin= 2.19D-01
 ErrMax= 2.19D-01  0.00D+00 EMaxC= 1.00D-01 BMatC= 5.46D+00 BMatP= 1.21D+01
 IDIUse=3 WtCom= 0.00D+00 WtEn= 1.00D+00
 Coeff-Com: -0.178D+01 0.278D+01
 Coeff-En:   0.000D+00 0.100D+01
 Coeff:      0.000D+00 0.100D+01
 Gap=     0.264 Goal=   None    Shift=    0.000
 RMSDP=1.36D-01 MaxDP=1.66D+01 DE=-3.18D-01 OVMax= 8.92D-02

 Cycle   3  Pass 1  IDiag  1:
 RMSU=  6.00D-03    CP:  3.35D-01  3.00D+00
 E= -3010.37009086713     Delta-E=       -0.400757392545 Rises=F Damp=F
 DIIS: error= 6.72D-02 at cycle   3 NSaved=   3.
 NSaved= 3 IEnMin= 3 EnMin= -3010.37009086713     IErMin= 3 ErrMin= 6.72D-02
 ErrMax= 6.72D-02  0.00D+00 EMaxC= 1.00D-01 BMatC= 7.89D-01 BMatP= 5.46D+00
 IDIUse=3 WtCom= 3.28D-01 WtEn= 6.72D-01
 Coeff-Com:  0.251D+01-0.329D+01 0.178D+01
 Coeff-En:   0.690D-01 0.000D+00 0.931D+00
 Coeff:      0.869D+00-0.108D+01 0.121D+01
 Gap=     0.279 Goal=   None    Shift=    0.000
 RMSDP=2.58D-02 MaxDP=3.01D+00 DE=-4.01D-01 OVMax= 1.22D-01

 Cycle   4  Pass 1  IDiag  1:
 RMSU=  7.88D-03    CP:  4.23D-01  2.74D+00  1.57D+00
 E= -3010.50210809641     Delta-E=       -0.132017229281 Rises=F Damp=F
 DIIS: error= 3.61D-02 at cycle   4 NSaved=   4.
 NSaved= 4 IEnMin= 4 EnMin= -3010.50210809641     IErMin= 4 ErrMin= 3.61D-02
 ErrMax= 3.61D-02  0.00D+00 EMaxC= 1.00D-01 BMatC= 2.11D-01 BMatP= 7.89D-01
 IDIUse=3 WtCom= 6.39D-01 WtEn= 3.61D-01
 Coeff-Com: -0.185D+00 0.259D+00 0.249D+00 0.676D+00
 Coeff-En:   0.000D+00 0.000D+00 0.174D+00 0.826D+00
 Coeff:     -0.118D+00 0.166D+00 0.222D+00 0.730D+00
 Gap=     0.243 Goal=   None    Shift=    0.000
 RMSDP=1.68D-02 MaxDP=2.31D+00 DE=-1.32D-01 OVMax= 4.61D-02

 Cycle   5  Pass 1  IDiag  1:
 RMSU=  3.12D-03    CP:  3.63D-01  2.87D+00  1.43D+00  6.85D-01
 E= -3010.54783784869     Delta-E=       -0.045729752278 Rises=F Damp=F
 DIIS: error= 6.75D-03 at cycle   5 NSaved=   5.
 NSaved= 5 IEnMin= 5 EnMin= -3010.54783784869     IErMin= 5 ErrMin= 6.75D-03
 ErrMax= 6.75D-03  0.00D+00 EMaxC= 1.00D-01 BMatC= 9.14D-03 BMatP= 2.11D-01
 IDIUse=3 WtCom= 9.32D-01 WtEn= 6.75D-02
 Coeff-Com: -0.179D+00 0.244D+00 0.525D-01 0.401D+00 0.482D+00
 Coeff-En:   0.000D+00 0.000D+00 0.000D+00 0.000D+00 0.100D+01
 Coeff:     -0.167D+00 0.227D+00 0.490D-01 0.374D+00 0.517D+00
 Gap=     0.229 Goal=   None    Shift=    0.000
 RMSDP=3.42D-03 MaxDP=4.56D-01 DE=-4.57D-02 OVMax= 2.20D-02

 Cycle   6  Pass 1  IDiag  1:
 RMSU=  6.56D-04    CP:  3.75D-01  2.86D+00  1.48D+00  7.73D-01  7.83D-01
 E= -3010.55052492203     Delta-E=       -0.002687073339 Rises=F Damp=F
 DIIS: error= 2.61D-03 at cycle   6 NSaved=   6.
 NSaved= 6 IEnMin= 6 EnMin= -3010.55052492203     IErMin= 6 ErrMin= 2.61D-03
 ErrMax= 2.61D-03  0.00D+00 EMaxC= 1.00D-01 BMatC= 5.43D-04 BMatP= 9.14D-03
 IDIUse=3 WtCom= 9.74D-01 WtEn= 2.61D-02
 Coeff-Com: -0.121D+00 0.163D+00-0.756D-02 0.192D+00 0.342D+00 0.432D+00
 Coeff-En:   0.000D+00 0.000D+00 0.000D+00 0.000D+00 0.384D-01 0.962D+00
 Coeff:     -0.118D+00 0.159D+00-0.736D-02 0.187D+00 0.334D+00 0.446D+00
 Gap=     0.229 Goal=   None    Shift=    0.000
 RMSDP=1.09D-03 MaxDP=1.40D-01 DE=-2.69D-03 OVMax= 8.88D-03

 Cycle   7  Pass 1  IDiag  1:
 RMSU=  3.07D-04    CP:  3.72D-01  2.87D+00  1.48D+00  7.63D-01  9.16D-01
                    CP:  8.79D-01
 E= -3010.55093934494     Delta-E=       -0.000414422911 Rises=F Damp=F
 DIIS: error= 4.33D-04 at cycle   7 NSaved=   7.
 NSaved= 7 IEnMin= 7 EnMin= -3010.55093934494     IErMin= 7 ErrMin= 4.33D-04
 ErrMax= 4.33D-04  0.00D+00 EMaxC= 1.00D-01 BMatC= 2.61D-05 BMatP= 5.43D-04
 IDIUse=3 WtCom= 9.96D-01 WtEn= 4.33D-03
 Coeff-Com: -0.403D-01 0.538D-01-0.150D-01 0.361D-01 0.701D-01 0.180D+00
 Coeff-Com:  0.715D+00
 Coeff-En:   0.000D+00 0.000D+00 0.000D+00 0.000D+00 0.000D+00 0.000D+00
 Coeff-En:   0.100D+01
 Coeff:     -0.402D-01 0.536D-01-0.150D-01 0.359D-01 0.698D-01 0.180D+00
 Coeff:      0.716D+00
 Gap=     0.231 Goal=   None    Shift=    0.000
 RMSDP=3.98D-04 MaxDP=5.43D-02 DE=-4.14D-04 OVMax= 3.83D-03

 Cycle   8  Pass 1  IDiag  1:
 RMSU=  1.10D-04    CP:  3.70D-01  2.87D+00  1.49D+00  7.64D-01  9.58D-01
                    CP:  9.18D-01  1.16D+00
 E= -3010.55098762295     Delta-E=       -0.000048278014 Rises=F Damp=F
 DIIS: error= 1.86D-04 at cycle   8 NSaved=   8.
 NSaved= 8 IEnMin= 8 EnMin= -3010.55098762295     IErMin= 8 ErrMin= 1.86D-04
 ErrMax= 1.86D-04  0.00D+00 EMaxC= 1.00D-01 BMatC= 5.92D-06 BMatP= 2.61D-05
 IDIUse=3 WtCom= 9.98D-01 WtEn= 1.86D-03
 Coeff-Com:  0.606D-02-0.845D-02-0.531D-02-0.217D-01-0.469D-01-0.437D-01
 Coeff-Com:  0.251D+00 0.869D+00
 Coeff-En:   0.000D+00 0.000D+00 0.000D+00 0.000D+00 0.000D+00 0.000D+00
 Coeff-En:   0.000D+00 0.100D+01
 Coeff:      0.605D-02-0.843D-02-0.530D-02-0.217D-01-0.468D-01-0.436D-01
 Coeff:      0.250D+00 0.870D+00
 Gap=     0.230 Goal=   None    Shift=    0.000
 RMSDP=1.75D-04 MaxDP=1.74D-02 DE=-4.83D-05 OVMax= 3.07D-03

 Cycle   9  Pass 1  IDiag  1:
 RMSU=  4.35D-05    CP:  3.70D-01  2.88D+00  1.49D+00  7.67D-01  9.90D-01
                    CP:  9.90D-01  1.52D+00  1.40D+00
 E= -3010.55101090642     Delta-E=       -0.000023283472 Rises=F Damp=F
 DIIS: error= 4.80D-05 at cycle   9 NSaved=   9.
 NSaved= 9 IEnMin= 9 EnMin= -3010.55101090642     IErMin= 9 ErrMin= 4.80D-05
 ErrMax= 4.80D-05  0.00D+00 EMaxC= 1.00D-01 BMatC= 8.79D-07 BMatP= 5.92D-06
 IDIUse=1 WtCom= 1.00D+00 WtEn= 0.00D+00
 Coeff-Com:  0.806D-02-0.108D-01 0.185D-02-0.109D-01-0.224D-01-0.469D-01
 Coeff-Com: -0.131D+00 0.111D+00 0.110D+01
 Coeff:      0.806D-02-0.108D-01 0.185D-02-0.109D-01-0.224D-01-0.469D-01
 Coeff:     -0.131D+00 0.111D+00 0.110D+01
 Gap=     0.230 Goal=   None    Shift=    0.000
 RMSDP=1.58D-04 MaxDP=1.76D-02 DE=-2.33D-05 OVMax= 2.82D-03

 Cycle  10  Pass 1  IDiag  1:
 RMSU=  4.66D-05    CP:  3.70D-01  2.87D+00  1.49D+00  7.64D-01  1.02D+00
                    CP:  1.01D+00  1.69D+00  1.80D+00  1.73D+00
 E= -3010.55101991537     Delta-E=       -0.000009008944 Rises=F Damp=F
 DIIS: error= 2.23D-05 at cycle  10 NSaved=  10.
 NSaved=10 IEnMin=10 EnMin= -3010.55101991537     IErMin=10 ErrMin= 2.23D-05
 ErrMax= 2.23D-05  0.00D+00 EMaxC= 1.00D-01 BMatC= 2.69D-07 BMatP= 8.79D-07
 IDIUse=1 WtCom= 1.00D+00 WtEn= 0.00D+00
 Coeff-Com: -0.169D-02 0.234D-02 0.761D-03 0.344D-02 0.761D-02 0.728D-02
 Coeff-Com: -0.640D-01-0.163D+00 0.214D+00 0.994D+00
 Coeff:     -0.169D-02 0.234D-02 0.761D-03 0.344D-02 0.761D-02 0.728D-02
 Coeff:     -0.640D-01-0.163D+00 0.214D+00 0.994D+00
 Gap=     0.230 Goal=   None    Shift=    0.000
 RMSDP=5.86D-05 MaxDP=3.72D-03 DE=-9.01D-06 OVMax= 1.41D-03

 Cycle  11  Pass 1  IDiag  1:
 RMSU=  1.42D-05    CP:  3.70D-01  2.87D+00  1.49D+00  7.63D-01  1.02D+00
                    CP:  1.01D+00  1.72D+00  1.93D+00  2.25D+00  1.59D+00
 E= -3010.55102203608     Delta-E=       -0.000002120712 Rises=F Damp=F
 DIIS: error= 1.43D-05 at cycle  11 NSaved=  11.
 NSaved=11 IEnMin=11 EnMin= -3010.55102203608     IErMin=11 ErrMin= 1.43D-05
 ErrMax= 1.43D-05  0.00D+00 EMaxC= 1.00D-01 BMatC= 6.88D-08 BMatP= 2.69D-07
 IDIUse=1 WtCom= 1.00D+00 WtEn= 0.00D+00
 Coeff-Com: -0.160D-02 0.214D-02-0.135D-03 0.295D-02 0.581D-02 0.114D-01
 Coeff-Com:  0.381D-01-0.478D-01-0.344D+00 0.157D+00 0.118D+01
 Coeff:     -0.160D-02 0.214D-02-0.135D-03 0.295D-02 0.581D-02 0.114D-01
 Coeff:      0.381D-01-0.478D-01-0.344D+00 0.157D+00 0.118D+01
 Gap=     0.230 Goal=   None    Shift=    0.000
 RMSDP=4.74D-05 MaxDP=2.77D-03 DE=-2.12D-06 OVMax= 1.07D-03

 Cycle  12  Pass 1  IDiag  1:
 RMSU=  6.17D-06    CP:  3.70D-01  2.87D+00  1.49D+00  7.61D-01  1.03D+00
                    CP:  1.01D+00  1.75D+00  2.01D+00  2.59D+00  2.16D+00
                    CP:  1.47D+00
 E= -3010.55102271477     Delta-E=       -0.000000678688 Rises=F Damp=F
 DIIS: error= 6.48D-06 at cycle  12 NSaved=  12.
 NSaved=12 IEnMin=12 EnMin= -3010.55102271477     IErMin=12 ErrMin= 6.48D-06
 ErrMax= 6.48D-06  0.00D+00 EMaxC= 1.00D-01 BMatC= 1.66D-08 BMatP= 6.88D-08
 IDIUse=1 WtCom= 1.00D+00 WtEn= 0.00D+00
 Coeff-Com: -0.507D-03 0.667D-03-0.157D-03 0.896D-03 0.119D-02 0.317D-02
 Coeff-Com:  0.275D-01-0.184D-02-0.189D+00-0.610D-01 0.517D+00 0.703D+00
 Coeff:     -0.507D-03 0.667D-03-0.157D-03 0.896D-03 0.119D-02 0.317D-02
 Coeff:      0.275D-01-0.184D-02-0.189D+00-0.610D-01 0.517D+00 0.703D+00
 Gap=     0.230 Goal=   None    Shift=    0.000
 RMSDP=1.76D-05 MaxDP=1.42D-03 DE=-6.79D-07 OVMax= 2.93D-04

 Cycle  13  Pass 1  IDiag  1:
 RMSU=  2.29D-06    CP:  3.70D-01  2.87D+00  1.49D+00  7.61D-01  1.03D+00
                    CP:  1.02D+00  1.76D+00  2.02D+00  2.68D+00  2.29D+00
                    CP:  1.62D+00  1.40D+00
 E= -3010.55102277389     Delta-E=       -0.000000059124 Rises=F Damp=F
 DIIS: error= 2.70D-06 at cycle  13 NSaved=  13.
 NSaved=13 IEnMin=13 EnMin= -3010.55102277389     IErMin=13 ErrMin= 2.70D-06
 ErrMax= 2.70D-06  0.00D+00 EMaxC= 1.00D-01 BMatC= 2.39D-09 BMatP= 1.66D-08
 IDIUse=1 WtCom= 1.00D+00 WtEn= 0.00D+00
 Coeff-Com:  0.448D-04-0.603D-04-0.469D-04-0.333D-03-0.116D-02-0.245D-02
 Coeff-Com: -0.420D-02 0.607D-02 0.530D-01-0.368D-01-0.197D+00 0.148D+00
 Coeff-Com:  0.104D+01
 Coeff:      0.448D-04-0.603D-04-0.469D-04-0.333D-03-0.116D-02-0.245D-02
 Coeff:     -0.420D-02 0.607D-02 0.530D-01-0.368D-01-0.197D+00 0.148D+00
 Coeff:      0.104D+01
 Gap=     0.230 Goal=   None    Shift=    0.000
 RMSDP=1.00D-05 MaxDP=9.16D-04 DE=-5.91D-08 OVMax= 1.33D-04

 Cycle  14  Pass 1  IDiag  1:
 RMSU=  9.45D-07    CP:  3.70D-01  2.87D+00  1.49D+00  7.61D-01  1.03D+00
                    CP:  1.02D+00  1.77D+00  2.02D+00  2.70D+00  2.33D+00
                    CP:  1.65D+00  1.83D+00  1.53D+00
 E= -3010.55102278328     Delta-E=       -0.000000009386 Rises=F Damp=F
 DIIS: error= 6.86D-07 at cycle  14 NSaved=  14.
 NSaved=14 IEnMin=14 EnMin= -3010.55102278328     IErMin=14 ErrMin= 6.86D-07
 ErrMax= 6.86D-07  0.00D+00 EMaxC= 1.00D-01 BMatC= 2.47D-10 BMatP= 2.39D-09
 IDIUse=1 WtCom= 1.00D+00 WtEn= 0.00D+00
 Coeff-Com:  0.494D-04-0.652D-04-0.623D-06-0.163D-03-0.345D-03-0.819D-03
 Coeff-Com: -0.340D-02 0.116D-02 0.329D-01-0.214D-02-0.108D+00-0.353D-01
 Coeff-Com:  0.269D+00 0.847D+00
 Coeff:      0.494D-04-0.652D-04-0.623D-06-0.163D-03-0.345D-03-0.819D-03
 Coeff:     -0.340D-02 0.116D-02 0.329D-01-0.214D-02-0.108D+00-0.353D-01
 Coeff:      0.269D+00 0.847D+00
 Gap=     0.230 Goal=   None    Shift=    0.000
 RMSDP=2.72D-06 MaxDP=2.55D-04 DE=-9.39D-09 OVMax= 3.49D-05

 Cycle  15  Pass 1  IDiag  1:
 RMSU=  3.96D-07    CP:  3.70D-01  2.87D+00  1.49D+00  7.61D-01  1.03D+00
                    CP:  1.02D+00  1.77D+00  2.02D+00  2.70D+00  2.34D+00
                    CP:  1.66D+00  1.96D+00  1.71D+00  1.34D+00
 E= -3010.55102278435     Delta-E=       -0.000000001072 Rises=F Damp=F
 DIIS: error= 4.34D-07 at cycle  15 NSaved=  15.
 NSaved=15 IEnMin=15 EnMin= -3010.55102278435     IErMin=15 ErrMin= 4.34D-07
 ErrMax= 4.34D-07  0.00D+00 EMaxC= 1.00D-01 BMatC= 6.06D-11 BMatP= 2.47D-10
 IDIUse=1 WtCom= 1.00D+00 WtEn= 0.00D+00
 Coeff-Com:  0.534D-05-0.688D-05 0.828D-05 0.195D-04 0.140D-03 0.248D-03
 Coeff-Com:  0.122D-03-0.861D-03-0.131D-02 0.702D-02 0.536D-02-0.379D-01
 Coeff-Com: -0.111D+00 0.249D+00 0.889D+00
 Coeff:      0.534D-05-0.688D-05 0.828D-05 0.195D-04 0.140D-03 0.248D-03
 Coeff:      0.122D-03-0.861D-03-0.131D-02 0.702D-02 0.536D-02-0.379D-01
 Coeff:     -0.111D+00 0.249D+00 0.889D+00
 Gap=     0.230 Goal=   None    Shift=    0.000
 RMSDP=1.17D-06 MaxDP=1.08D-04 DE=-1.07D-09 OVMax= 1.70D-05

 Cycle  16  Pass 1  IDiag  1:
 RMSU=  1.50D-07    CP:  3.70D-01  2.87D+00  1.49D+00  7.61D-01  1.03D+00
                    CP:  1.02D+00  1.77D+00  2.02D+00  2.70D+00  2.34D+00
                    CP:  1.65D+00  2.01D+00  1.81D+00  1.55D+00  1.32D+00
 E= -3010.55102278474     Delta-E=       -0.000000000396 Rises=F Damp=F
 DIIS: error= 1.93D-07 at cycle  16 NSaved=  16.
 NSaved=16 IEnMin=16 EnMin= -3010.55102278474     IErMin=16 ErrMin= 1.93D-07
 ErrMax= 1.93D-07  0.00D+00 EMaxC= 1.00D-01 BMatC= 1.30D-11 BMatP= 6.06D-11
 IDIUse=1 WtCom= 1.00D+00 WtEn= 0.00D+00
 Coeff-Com: -0.223D-04 0.298D-04-0.198D-05 0.473D-04 0.860D-04 0.184D-03
 Coeff-Com:  0.790D-03-0.383D-03-0.759D-02 0.235D-02 0.227D-01 0.308D-02
 Coeff-Com: -0.610D-01-0.194D+00 0.335D-01 0.120D+01
 Coeff:     -0.223D-04 0.298D-04-0.198D-05 0.473D-04 0.860D-04 0.184D-03
 Coeff:      0.790D-03-0.383D-03-0.759D-02 0.235D-02 0.227D-01 0.308D-02
 Coeff:     -0.610D-01-0.194D+00 0.335D-01 0.120D+01
 Gap=     0.230 Goal=   None    Shift=    0.000
 RMSDP=6.82D-07 MaxDP=5.65D-05 DE=-3.96D-10 OVMax= 1.31D-05

 Cycle  17  Pass 1  IDiag  1:
 RMSU=  9.92D-08    CP:  3.70D-01  2.87D+00  1.49D+00  7.61D-01  1.03D+00
                    CP:  1.02D+00  1.77D+00  2.02D+00  2.70D+00  2.35D+00
                    CP:  1.65D+00  2.03D+00  1.87D+00  1.66D+00  1.59D+00
                    CP:  1.98D+00
 E= -3010.55102278489     Delta-E=       -0.000000000150 Rises=F Damp=F
 DIIS: error= 9.28D-08 at cycle  17 NSaved=  17.
 NSaved=17 IEnMin=17 EnMin= -3010.55102278489     IErMin=17 ErrMin= 9.28D-08
 ErrMax= 9.28D-08  0.00D+00 EMaxC= 1.00D-01 BMatC= 2.52D-12 BMatP= 1.30D-11
 IDIUse=1 WtCom= 1.00D+00 WtEn= 0.00D+00
 Coeff-Com: -0.582D-05 0.776D-05-0.247D-05-0.873D-06-0.358D-04-0.754D-04
 Coeff-Com: -0.596D-04 0.283D-03 0.352D-03-0.167D-02-0.168D-02 0.829D-02
 Coeff-Com:  0.284D-01-0.459D-01-0.192D+00-0.131D+00 0.134D+01
 Coeff:     -0.582D-05 0.776D-05-0.247D-05-0.873D-06-0.358D-04-0.754D-04
 Coeff:     -0.596D-04 0.283D-03 0.352D-03-0.167D-02-0.168D-02 0.829D-02
 Coeff:      0.284D-01-0.459D-01-0.192D+00-0.131D+00 0.134D+01
 Gap=     0.230 Goal=   None    Shift=    0.000
 RMSDP=3.09D-07 MaxDP=3.29D-05 DE=-1.50D-10 OVMax= 7.84D-06

 Cycle  18  Pass 1  IDiag  1:
 RMSU=  3.89D-08    CP:  3.70D-01  2.87D+00  1.49D+00  7.60D-01  1.03D+00
                    CP:  1.02D+00  1.77D+00  2.02D+00  2.70D+00  2.35D+00
                    CP:  1.65D+00  2.04D+00  1.89D+00  1.68D+00  1.65D+00
                    CP:  2.82D+00  1.85D+00
 E= -3010.55102278497     Delta-E=       -0.000000000077 Rises=F Damp=F
 DIIS: error= 3.58D-08 at cycle  18 NSaved=  18.
 NSaved=18 IEnMin=18 EnMin= -3010.55102278497     IErMin=18 ErrMin= 3.58D-08
 ErrMax= 3.58D-08  0.00D+00 EMaxC= 1.00D-01 BMatC= 5.04D-13 BMatP= 2.52D-12
 IDIUse=1 WtCom= 1.00D+00 WtEn= 0.00D+00
 Coeff-Com:  0.103D-05-0.137D-05-0.517D-06-0.658D-05-0.242D-04-0.524D-04
 Coeff-Com: -0.134D-03 0.160D-03 0.116D-02-0.842D-03-0.362D-02 0.182D-02
 Coeff-Com:  0.172D-01 0.181D-01-0.514D-01-0.221D+00 0.361D+00 0.878D+00
 Coeff:      0.103D-05-0.137D-05-0.517D-06-0.658D-05-0.242D-04-0.524D-04
 Coeff:     -0.134D-03 0.160D-03 0.116D-02-0.842D-03-0.362D-02 0.182D-02
 Coeff:      0.172D-01 0.181D-01-0.514D-01-0.221D+00 0.361D+00 0.878D+00
 Gap=     0.230 Goal=   None    Shift=    0.000
 RMSDP=1.03D-07 MaxDP=1.19D-05 DE=-7.73D-11 OVMax= 2.07D-06

 Cycle  19  Pass 1  IDiag  1:
 RMSU=  1.32D-08    CP:  3.70D-01  2.87D+00  1.49D+00  7.60D-01  1.03D+00
                    CP:  1.02D+00  1.77D+00  2.02D+00  2.71D+00  2.35D+00
                    CP:  1.66D+00  2.04D+00  1.89D+00  1.67D+00  1.63D+00
                    CP:  3.00D+00  2.19D+00  1.42D+00
 E= -3010.55102278491     Delta-E=        0.000000000064 Rises=F Damp=F
 DIIS: error= 1.67D-08 at cycle  19 NSaved=  19.
 NSaved=19 IEnMin=18 EnMin= -3010.55102278497     IErMin=19 ErrMin= 1.67D-08
 ErrMax= 1.67D-08  0.00D+00 EMaxC= 1.00D-01 BMatC= 1.23D-13 BMatP= 5.04D-13
 IDIUse=1 WtCom= 1.00D+00 WtEn= 0.00D+00
 Coeff-Com:  0.528D-07-0.577D-07 0.173D-06 0.689D-06 0.654D-05 0.113D-04
 Coeff-Com: -0.141D-04-0.483D-04 0.115D-03 0.211D-03-0.273D-03-0.177D-02
 Coeff-Com: -0.413D-02 0.150D-01 0.358D-01-0.268D-01-0.259D+00 0.228D+00
 Coeff-Com:  0.101D+01
 Coeff:      0.528D-07-0.577D-07 0.173D-06 0.689D-06 0.654D-05 0.113D-04
 Coeff:     -0.141D-04-0.483D-04 0.115D-03 0.211D-03-0.273D-03-0.177D-02
 Coeff:     -0.413D-02 0.150D-01 0.358D-01-0.268D-01-0.259D+00 0.228D+00
 Coeff:      0.101D+01
 Gap=     0.230 Goal=   None    Shift=    0.000
 RMSDP=6.92D-08 MaxDP=5.52D-06 DE= 6.37D-11 OVMax= 1.44D-06

 Cycle  20  Pass 1  IDiag  1:
 RMSU=  1.53D-08    CP:  3.70D-01  2.87D+00  1.49D+00  7.60D-01  1.03D+00
                    CP:  1.02D+00  1.77D+00  2.02D+00  2.71D+00  2.35D+00
                    CP:  1.66D+00  2.04D+00  1.90D+00  1.67D+00  1.61D+00
                    CP:  3.00D+00  2.38D+00  1.82D+00  2.20D+00
 E= -3010.55102278495     Delta-E=       -0.000000000039 Rises=F Damp=F
 DIIS: error= 7.70D-09 at cycle  20 NSaved=  20.
 NSaved=20 IEnMin=18 EnMin= -3010.55102278497     IErMin=20 ErrMin= 7.70D-09
 ErrMax= 7.70D-09  0.00D+00 EMaxC= 1.00D-01 BMatC= 1.36D-14 BMatP= 1.23D-13
 IDIUse=1 WtCom= 1.00D+00 WtEn= 0.00D+00
 Coeff-Com:  0.504D-07-0.668D-07 0.128D-06 0.829D-06 0.466D-05 0.981D-05
 Coeff-Com:  0.164D-04-0.299D-04-0.144D-03 0.167D-03 0.489D-03-0.607D-03
 Coeff-Com: -0.348D-02 0.169D-02 0.174D-01 0.251D-01-0.113D+00-0.645D-01
 Coeff-Com:  0.254D+00 0.883D+00
 Coeff:      0.504D-07-0.668D-07 0.128D-06 0.829D-06 0.466D-05 0.981D-05
 Coeff:      0.164D-04-0.299D-04-0.144D-03 0.167D-03 0.489D-03-0.607D-03
 Coeff:     -0.348D-02 0.169D-02 0.174D-01 0.251D-01-0.113D+00-0.645D-01
 Coeff:      0.254D+00 0.883D+00
 Gap=     0.230 Goal=   None    Shift=    0.000
 RMSDP=1.24D-08 MaxDP=1.25D-06 DE=-3.91D-11 OVMax= 1.93D-07

 Cycle  21  Pass 1  IDiag  1:
 Restarting incremental Fock formation.
 E= -3010.55102278491     Delta-E=        0.000000000035 Rises=F Damp=F
 DIIS: error= 5.35D-09 at cycle  21 NSaved=  20.
 NSaved=20 IEnMin=17 EnMin= -3010.55102278497     IErMin=20 ErrMin= 5.35D-09
 ErrMax= 5.35D-09  0.00D+00 EMaxC= 1.00D-01 BMatC= 3.17D-15 BMatP= 1.36D-14
 IDIUse=1 WtCom= 1.00D+00 WtEn= 0.00D+00
 Large coefficients: NSaved= 20 BigCof=    0.00 CofMax=   10.00 Det=-7.84D-15
 Inversion failed.  Reducing to 19 matrices.
 Coeff-Com:  0.352D-07 0.245D-06 0.830D-06 0.214D-05 0.867D-05-0.219D-05
 Coeff-Com: -0.690D-04 0.237D-04 0.208D-03 0.322D-04-0.840D-03-0.163D-02
 Coeff-Com:  0.136D-02 0.135D-01-0.696D-02-0.589D-01-0.544D-01 0.320D+00
 Coeff-Com:  0.788D+00
 Coeff:      0.352D-07 0.245D-06 0.830D-06 0.214D-05 0.867D-05-0.219D-05
 Coeff:     -0.690D-04 0.237D-04 0.208D-03 0.322D-04-0.840D-03-0.163D-02
 Coeff:      0.136D-02 0.135D-01-0.696D-02-0.589D-01-0.544D-01 0.320D+00
 Coeff:      0.788D+00
 Gap=     0.230 Goal=   None    Shift=    0.000
 RMSDP=3.91D-09 MaxDP=2.38D-07 DE= 3.46D-11 OVMax= 8.79D-08

 SCF Done:  E(RwB97XD) =  -3010.55102278     A.U. after   21 cycles
            NFock= 21  Conv=0.39D-08     -V/T= 2.0016
 KE= 3.005812745309D+03 PE=-8.696325744771D+03 EE= 1.909474665677D+03
 Leave Link  502 at Thu May  2 14:21:07 2024, MaxMem=   134217728 cpu:            1306.0 elap:            1306.4
 (Enter /software/gaussian/g16-c01/sse4/g16/l601.exe)
 Copying SCF densities to generalized density rwf, IOpCl= 0 IROHF=0.

 **********************************************************************

            Population analysis using the SCF Density.

 **********************************************************************

 Alpha  occ. eigenvalues -- -483.28157 -62.83119 -56.62872 -56.62229 -56.62206
 Alpha  occ. eigenvalues --  -19.45779 -19.45772 -14.85145 -10.58066 -10.56274
 Alpha  occ. eigenvalues --  -10.56071 -10.55521 -10.52281 -10.51702  -8.98881
 Alpha  occ. eigenvalues --   -6.81715  -6.79621  -6.79552  -2.91581  -2.91042
 Alpha  occ. eigenvalues --   -2.90987  -2.89314  -2.89312  -1.49441  -1.32418
 Alpha  occ. eigenvalues --   -1.21113  -1.11704  -1.10821  -1.02642  -0.98796
 Alpha  occ. eigenvalues --   -0.94035  -0.89463  -0.84210  -0.80112  -0.79401
 Alpha  occ. eigenvalues --   -0.79146  -0.76884  -0.75534  -0.74441  -0.70337
 Alpha  occ. eigenvalues --   -0.67352  -0.66419  -0.61415  -0.58191  -0.56908
 Alpha  occ. eigenvalues --   -0.56141  -0.55451  -0.52462  -0.51564
 Alpha virt. eigenvalues --   -0.28531  -0.19668  -0.13956  -0.12634  -0.11250
 Alpha virt. eigenvalues --   -0.08764  -0.08501  -0.06085  -0.04744  -0.04081
 Alpha virt. eigenvalues --   -0.02303  -0.01089   0.00333   0.00852   0.01440
 Alpha virt. eigenvalues --    0.02254   0.02650   0.03953   0.04795   0.05924
 Alpha virt. eigenvalues --    0.06503   0.06596   0.07122   0.07453   0.08089
 Alpha virt. eigenvalues --    0.08831   0.09125   0.09762   0.10269   0.10900
 Alpha virt. eigenvalues --    0.11638   0.12680   0.13147   0.13413   0.13680
 Alpha virt. eigenvalues --    0.14890   0.15069   0.16008   0.16293   0.17647
 Alpha virt. eigenvalues --    0.17757   0.18441   0.18990   0.19229   0.20017
 Alpha virt. eigenvalues --    0.21794   0.22131   0.22625   0.23275   0.25336
 Alpha virt. eigenvalues --    0.26110   0.26439   0.29568   0.31298   0.33303
 Alpha virt. eigenvalues --    0.34081   0.35136   0.36228   0.37011   0.38583
 Alpha virt. eigenvalues --    0.39482   0.40187   0.40838   0.41833   0.43422
 Alpha virt. eigenvalues --    0.44875   0.45327   0.46862   0.48116   0.48730
 Alpha virt. eigenvalues --    0.49966   0.51596   0.52609   0.54114   0.54719
 Alpha virt. eigenvalues --    0.56167   0.57379   0.59109   0.59426   0.61344
 Alpha virt. eigenvalues --    0.62572   0.63694   0.66485   0.69344   0.70215
 Alpha virt. eigenvalues --    0.72396   0.72795   0.73858   0.75194   0.75967
 Alpha virt. eigenvalues --    0.76491   0.78241   0.80581   0.85893   0.86894
 Alpha virt. eigenvalues --    0.88233   0.89383   0.92424   0.95695   0.99604
 Alpha virt. eigenvalues --    1.01171   1.03869   1.04969   1.06850   1.07916
 Alpha virt. eigenvalues --    1.09813   1.13108   1.14013   1.14854   1.18900
 Alpha virt. eigenvalues --    1.21588   1.23521   1.29194   1.34644   1.37411
 Alpha virt. eigenvalues --    1.38072   1.40152   1.44801   1.56239   1.57735
 Alpha virt. eigenvalues --    1.58228   1.60734   1.62361   1.65030   1.67179
 Alpha virt. eigenvalues --    1.69060   1.72775   1.74667   1.76422   1.80713
 Alpha virt. eigenvalues --    1.85085   1.86488   1.88417   1.98165   1.98781
 Alpha virt. eigenvalues --    1.99475   2.04000   2.04825   2.08590   2.10809
 Alpha virt. eigenvalues --    2.14697   2.16181   2.23390   2.24551   2.28454
 Alpha virt. eigenvalues --    2.34652   2.40749   2.42367   2.45305   2.54483
 Alpha virt. eigenvalues --    2.59118   2.64275   2.67176   2.69900   2.72200
 Alpha virt. eigenvalues --    2.74440   2.76971   2.78410   2.81235   2.83427
 Alpha virt. eigenvalues --    2.94623   2.99123   3.02356   3.07111   3.10243
 Alpha virt. eigenvalues --    3.16015   3.17499   3.18641   3.23135   3.27098
 Alpha virt. eigenvalues --    3.28838   3.38753   3.47843   3.51146   3.55349
 Alpha virt. eigenvalues --    3.58606   3.69403   3.74751   3.84935   3.88681
 Alpha virt. eigenvalues --    4.13455   4.14372   4.22567   4.26828   4.45139
 Alpha virt. eigenvalues --    4.47013   4.55960   4.60615   4.94003   4.96765
 Alpha virt. eigenvalues --    5.05705   5.10112   5.62495   6.15579   6.71409
 Alpha virt. eigenvalues --    7.52473   7.54717   7.64694  23.23532  23.62567
 Alpha virt. eigenvalues --   23.73655  23.79480  23.96930  24.03372  35.32021
 Alpha virt. eigenvalues --   47.97278  49.85679  49.94341 289.84859 289.87192
 Alpha virt. eigenvalues --  289.997741020.98371
          Condensed to atoms (all electrons):
               1          2          3          4          5          6
     1  C    7.838288  -1.549055   0.368212   0.087764   0.294249   0.056946
     2  C   -1.549055  20.253731  -2.722738   0.425842   0.001940   0.199042
     3  C    0.368212  -2.722738  23.097330  -1.465540  -0.000437   0.108607
     4  C    0.087764   0.425842  -1.465540   6.473794   0.030258  -0.013163
     5  H    0.294249   0.001940  -0.000437   0.030258   0.333524  -0.001730
     6  H    0.056946   0.199042   0.108607  -0.013163  -0.001730   0.314028
     7  H    0.020058  -0.026816   0.012622   0.315266  -0.002508   0.000003
     8  N   -0.117259  -0.641965  -2.698998   0.027485   0.000034  -0.032393
     9  O    0.034312   0.664681   0.464351  -0.019237  -0.000027  -0.002623
    10  O    0.236424  -0.225424  -0.343799  -0.010697  -0.000015   0.021386
    11  C    0.873985  -0.209580   2.864499  -0.394975  -0.031975   0.008667
    12  H   -0.019137   0.029405  -0.003393   0.029382   0.000075  -0.000025
    13  C   -1.971703 -10.151597 -13.459761   0.893064   0.031983  -0.007344
    14  H    0.012239   0.032847   0.118645  -0.012305  -0.000070   0.000138
    15  Br  -0.003751  -0.322338  -0.310589  -0.028281   0.000721  -0.000650
               7          8          9         10         11         12
     1  C    0.020058  -0.117259   0.034312   0.236424   0.873985  -0.019137
     2  C   -0.026816  -0.641965   0.664681  -0.225424  -0.209580   0.029405
     3  C    0.012622  -2.698998   0.464351  -0.343799   2.864499  -0.003393
     4  C    0.315266   0.027485  -0.019237  -0.010697  -0.394975   0.029382
     5  H   -0.002508   0.000034  -0.000027  -0.000015  -0.031975   0.000075
     6  H    0.000003  -0.032393  -0.002623   0.021386   0.008667  -0.000025
     7  H    0.341847   0.000179  -0.000024   0.000013   0.010792  -0.002209
     8  N    0.000179   7.990923  -0.147029   0.257258  -0.348449   0.000780
     9  O   -0.000024  -0.147029   8.042767  -0.022972   0.278567   0.000186
    10  O    0.000013   0.257258  -0.022972   7.808049  -0.025196  -0.000051
    11  C    0.010792  -0.348449   0.278567  -0.025196   8.535163   0.287552
    12  H   -0.002209   0.000780   0.000186  -0.000051   0.287552   0.333455
    13  C    0.003219   2.832027  -1.332183   0.224689  -5.663833  -0.004967
    14  H   -0.000041  -0.056529   0.024411  -0.001718   0.076465  -0.007791
    15  Br   0.000012   0.216484  -0.073897   0.011617  -0.012719   0.004700
              13         14         15
     1  C   -1.971703   0.012239  -0.003751
     2  C  -10.151597   0.032847  -0.322338
     3  C  -13.459761   0.118645  -0.310589
     4  C    0.893064  -0.012305  -0.028281
     5  H    0.031983  -0.000070   0.000721
     6  H   -0.007344   0.000138  -0.000650
     7  H    0.003219  -0.000041   0.000012
     8  N    2.832027  -0.056529   0.216484
     9  O   -1.332183   0.024411  -0.073897
    10  O    0.224689  -0.001718   0.011617
    11  C   -5.663833   0.076465  -0.012719
    12  H   -0.004967  -0.007791   0.004700
    13  C   34.235223   0.092838   0.713183
    14  H    0.092838   0.428432  -0.056127
    15  Br   0.713183  -0.056127  34.488509
 Mulliken charges:
               1
     1  C   -0.161571
     2  C    0.242027
     3  C   -0.029011
     4  C   -0.338658
     5  H    0.343981
     6  H    0.349110
     7  H    0.327588
     8  N   -0.282547
     9  O    0.088717
    10  O    0.070436
    11  C   -0.248963
    12  H    0.352037
    13  C   -0.434837
    14  H    0.348566
    15  Br   0.373126
 Sum of Mulliken charges =   1.00000
 Mulliken charges with hydrogens summed into heavy atoms:
               1
     1  C    0.182410
     2  C    0.591137
     3  C   -0.029011
     4  C   -0.011070
     8  N   -0.282547
     9  O    0.088717
    10  O    0.070436
    11  C    0.103073
    13  C   -0.086271
    15  Br   0.373126
 Electronic spatial extent (au):  <R**2>=           3942.1465
 Charge=              1.0000 electrons
 Dipole moment (field-independent basis, Debye):
    X=              3.0883    Y=             -1.7135    Z=             -4.2785  Tot=              5.5479
 Quadrupole moment (field-independent basis, Debye-Ang):
   XX=            -67.8916   YY=            -49.9123   ZZ=            -58.0017
   XY=             -4.6190   XZ=             -9.8273   YZ=              5.8863
 Traceless Quadrupole moment (field-independent basis, Debye-Ang):
   XX=             -9.2897   YY=              8.6896   ZZ=              0.6002
   XY=             -4.6190   XZ=             -9.8273   YZ=              5.8863
 Octapole moment (field-independent basis, Debye-Ang**2):
  XXX=           -516.2134  YYY=             86.1129  ZZZ=             65.1197  XYY=           -132.8609
  XXY=             20.7808  XXZ=              2.8297  XZZ=           -122.9359  YZZ=              7.7867
  YYZ=             14.1475  XYZ=             15.7387
 Hexadecapole moment (field-independent basis, Debye-Ang**3):
 XXXX=          -3477.1965 YYYY=           -688.9024 ZZZZ=           -354.4204 XXXY=            171.9576
 XXXZ=            105.0641 YYYX=            171.8342 YYYZ=           -150.3073 ZZZX=            129.7424
 ZZZY=           -116.3489 XXYY=           -615.7084 XXZZ=           -502.9933 YYZZ=           -150.2656
 XXYZ=            -21.2791 YYXZ=             24.4942 ZZXY=              8.2642
 N-N= 7.704873110007D+02 E-N=-8.696325745065D+03  KE= 3.005812745309D+03
 No NMR shielding tensors so no spin-rotation constants.
 Leave Link  601 at Thu May  2 14:21:14 2024, MaxMem=   134217728 cpu:               7.3 elap:               7.3
 (Enter /software/gaussian/g16-c01/sse4/g16/l9999.exe)
 Unable to Open any file for archive entry.
 1\1\GINC-BHX0019\SP\RwB97XD\6-311+G(d)\C6H5Br1N1O2(1+)\BWEIGHT\02-May-
 2024\0\\#P wB97XD/6-311+G* NoSymm #P Field=Z+194\\TitleMe\\1,1\C,0,0.5
 193,1.233,-0.0319\C,0,1.9445,1.2692,-0.0367\C,0,2.6204,0.0928,-0.025\C
 ,0,-0.196,0.0301,0.001\H,0,-0.0207,2.1742,-0.0434\H,0,2.4828,2.2089,-0
 .0361\H,0,-1.2777,0.0399,0.0117\N,0,4.0921,0.0959,0.0366\O,0,4.6393,-1
 .0217,0.1446\O,0,4.6649,1.1984,-0.0233\C,0,0.4943,-1.1671,0.021\H,0,-0
 .0325,-2.1149,0.0545\C,0,1.9629,-1.2165,-0.0211\H,0,2.4436,-1.9631,0.6
 151\Br,0,2.173,-1.9491,-1.9062\\Version=ES64L-G16RevC.01\HF=-3010.5510
 228\RMSD=3.909e-09\Dipole=-3.1141938,0.5539684,-0.4340696\Quadrupole=-
 6.9066983,6.4604943,0.446204,-3.4341491,-7.3063924,4.3763055\PG=C01 [X
 (C6H5Br1N1O2)]\\@
 The archive entry for this job was punched.


 IF YOU PERCEIVE THAT THERE ARE FOUR POSSIBLE WAYS IN
 WHICH A PROCEDURE CAN GO WRONG AND CIRCUMVENT THESE, 
 THEN A FIFTH WAY WILL DEVELOP.

                              -- MURPHY'S TWELFTH LAW
 Job cpu time:       0 days  0 hours 22 minutes 55.9 seconds.
 Elapsed time:       0 days  0 hours 22 minutes 56.3 seconds.
 File lengths (MBytes):  RWF=     40 Int=      0 D2E=      0 Chk=     32 Scr=      1
 Normal termination of Gaussian 16 at Thu May  2 14:21:15 2024.
