 Entering Gaussian System, Link 0=g16
 Initial command:
 /software/gaussian/g16-c01/sse4/g16/l1.exe "/local_scratch/24657546/Gau-10815.inp" -scrdir="/local_scratch/24657546/"
 Entering Link 1 = /software/gaussian/g16-c01/sse4/g16/l1.exe PID=     10816.
  
 Copyright (c) 1988-2019, Gaussian, Inc.  All Rights Reserved.
  
 This is part of the Gaussian(R) 16 program.  It is based on
 the Gaussian(R) 09 system (copyright 2009, Gaussian, Inc.),
 the Gaussian(R) 03 system (copyright 2003, Gaussian, Inc.),
 the Gaussian(R) 98 system (copyright 1998, Gaussian, Inc.),
 the Gaussian(R) 94 system (copyright 1995, Gaussian, Inc.),
 the Gaussian 92(TM) system (copyright 1992, Gaussian, Inc.),
 the Gaussian 90(TM) system (copyright 1990, Gaussian, Inc.),
 the Gaussian 88(TM) system (copyright 1988, Gaussian, Inc.),
 the Gaussian 86(TM) system (copyright 1986, Carnegie Mellon
 University), and the Gaussian 82(TM) system (copyright 1983,
 Carnegie Mellon University). Gaussian is a federally registered
 trademark of Gaussian, Inc.
  
 This software contains proprietary and confidential information,
 including trade secrets, belonging to Gaussian, Inc.
  
 This software is provided under written license and may be
 used, copied, transmitted, or stored only in accord with that
 written license.
  
 The following legend is applicable only to US Government
 contracts under FAR:
  
                    RESTRICTED RIGHTS LEGEND
  
 Use, reproduction and disclosure by the US Government is
 subject to restrictions as set forth in subparagraphs (a)
 and (c) of the Commercial Computer Software - Restricted
 Rights clause in FAR 52.227-19.
  
 Gaussian, Inc.
 340 Quinnipiac St., Bldg. 40, Wallingford CT 06492
  
  
 ---------------------------------------------------------------
 Warning -- This program may not be used in any manner that
 competes with the business of Gaussian, Inc. or will provide
 assistance to any competitor of Gaussian, Inc.  The licensee
 of this program is prohibited from giving any competitor of
 Gaussian, Inc. access to this program.  By using this program,
 the user acknowledges that Gaussian, Inc. is engaged in the
 business of creating and licensing software in the field of
 computational chemistry and represents and warrants to the
 licensee that it is not a competitor of Gaussian, Inc. and that
 it will not use this program in any manner prohibited above.
 ---------------------------------------------------------------
  

 Cite this work as:
 Gaussian 16, Revision C.01,
 M. J. Frisch, G. W. Trucks, H. B. Schlegel, G. E. Scuseria, 
 M. A. Robb, J. R. Cheeseman, G. Scalmani, V. Barone, 
 G. A. Petersson, H. Nakatsuji, X. Li, M. Caricato, A. V. Marenich, 
 J. Bloino, B. G. Janesko, R. Gomperts, B. Mennucci, H. P. Hratchian, 
 J. V. Ortiz, A. F. Izmaylov, J. L. Sonnenberg, D. Williams-Young, 
 F. Ding, F. Lipparini, F. Egidi, J. Goings, B. Peng, A. Petrone, 
 T. Henderson, D. Ranasinghe, V. G. Zakrzewski, J. Gao, N. Rega, 
 G. Zheng, W. Liang, M. Hada, M. Ehara, K. Toyota, R. Fukuda, 
 J. Hasegawa, M. Ishida, T. Nakajima, Y. Honda, O. Kitao, H. Nakai, 
 T. Vreven, K. Throssell, J. A. Montgomery, Jr., J. E. Peralta, 
 F. Ogliaro, M. J. Bearpark, J. J. Heyd, E. N. Brothers, K. N. Kudin, 
 V. N. Staroverov, T. A. Keith, R. Kobayashi, J. Normand, 
 K. Raghavachari, A. P. Rendell, J. C. Burant, S. S. Iyengar, 
 J. Tomasi, M. Cossi, J. M. Millam, M. Klene, C. Adamo, R. Cammi, 
 J. W. Ochterski, R. L. Martin, K. Morokuma, O. Farkas, 
 J. B. Foresman, and D. J. Fox, Gaussian, Inc., Wallingford CT, 2019.
 
 ******************************************
 Gaussian 16:  ES64L-G16RevC.01  3-Jul-2019
                 1-May-2024 
 ******************************************
 %chk=geometry.chk
 %mem=9GB
 %nprocshared=12
 Will use up to   12 processors via shared memory.
 ----------------------------------------
 #P wB97XD/6-311+G* NoSymm #P Field=Z-145
 ----------------------------------------
 1/38=1,172=1/1;
 2/12=2,15=1,17=6,18=5,40=1/2;
 3/5=4,6=6,7=11,11=2,14=3,15=-145,25=1,30=1,74=-58/1,2,3;
 4//1;
 5/5=2,38=5/2;
 6/7=2,8=2,9=2,10=2,28=1/1;
 99/5=1,9=1/99;
 Leave Link    1 at Wed May  1 14:59:48 2024, MaxMem=  1207959552 cpu:               1.0 elap:               1.1
 (Enter /software/gaussian/g16-c01/sse4/g16/l101.exe)
 -------
 TitleMe
 -------
 Symbolic Z-matrix:
 Charge =  1 Multiplicity = 1
 C                     0.0295    1.3397    0.0682 
 C                     1.4348    1.2867    0.0064 
 C                     2.1118    0.0511   -0.0054 
 C                     1.4451   -1.1372    0.0312 
 C                    -0.6879    0.1682    0.11 
 H                    -0.4713    2.2984    0.0781 
 H                     2.0273    2.1965   -0.0322 
 H                     1.9897   -2.0764    0.0232 
 H                    -1.7716    0.1804    0.1582 
 N                     3.5864    0.051    -0.0675 
 O                     4.1471   -1.0597   -0.0881 
 O                     4.145     1.1639   -0.0901 
 C                    -0.0236   -1.1458    0.0835 
 H                    -0.4367   -1.8725    0.7889 
 Br                   -0.5359   -1.8697   -1.7408 
 
 ITRead=  0  0  0  0  0  0  0  0  0  0  0  0  0  0  0
 MicOpt= -1 -1 -1 -1 -1 -1 -1 -1 -1 -1 -1 -1 -1 -1 -1
 NAtoms=     15 NQM=       15 NQMF=       0 NMMI=      0 NMMIF=      0
                NMic=       0 NMicF=      0.
                    Isotopes and Nuclear Properties:
 (Nuclear quadrupole moments (NQMom) in fm**2, nuclear magnetic moments (NMagM)
  in nuclear magnetons)

  Atom         1           2           3           4           5           6           7           8           9          10
 IAtWgt=          12          12          12          12          12           1           1           1           1          14
 AtmWgt=  12.0000000  12.0000000  12.0000000  12.0000000  12.0000000   1.0078250   1.0078250   1.0078250   1.0078250  14.0030740
 NucSpn=           0           0           0           0           0           1           1           1           1           2
 AtZEff=  -0.0000000  -0.0000000  -0.0000000  -0.0000000  -0.0000000  -0.0000000  -0.0000000  -0.0000000  -0.0000000  -0.0000000
 NQMom=    0.0000000   0.0000000   0.0000000   0.0000000   0.0000000   0.0000000   0.0000000   0.0000000   0.0000000   2.0440000
 NMagM=    0.0000000   0.0000000   0.0000000   0.0000000   0.0000000   2.7928460   2.7928460   2.7928460   2.7928460   0.4037610
 AtZNuc=   6.0000000   6.0000000   6.0000000   6.0000000   6.0000000   1.0000000   1.0000000   1.0000000   1.0000000   7.0000000

  Atom        11          12          13          14          15
 IAtWgt=          16          16          12           1          79
 AtmWgt=  15.9949146  15.9949146  12.0000000   1.0078250  78.9183361
 NucSpn=           0           0           0           1           3
 AtZEff=  -0.0000000  -0.0000000  -0.0000000  -0.0000000  -0.0000000
 NQMom=    0.0000000   0.0000000   0.0000000   0.0000000  31.3000000
 NMagM=    0.0000000   0.0000000   0.0000000   2.7928460   2.1063990
 AtZNuc=   8.0000000   8.0000000   6.0000000   1.0000000  35.0000000
 Leave Link  101 at Wed May  1 14:59:50 2024, MaxMem=  1207959552 cpu:               1.4 elap:               1.4
 (Enter /software/gaussian/g16-c01/sse4/g16/l202.exe)
                          Input orientation:                          
 ---------------------------------------------------------------------
 Center     Atomic      Atomic             Coordinates (Angstroms)
 Number     Number       Type             X           Y           Z
 ---------------------------------------------------------------------
      1          6           0        0.029500    1.339700    0.068200
      2          6           0        1.434800    1.286700    0.006400
      3          6           0        2.111800    0.051100   -0.005400
      4          6           0        1.445100   -1.137200    0.031200
      5          6           0       -0.687900    0.168200    0.110000
      6          1           0       -0.471300    2.298400    0.078100
      7          1           0        2.027300    2.196500   -0.032200
      8          1           0        1.989700   -2.076400    0.023200
      9          1           0       -1.771600    0.180400    0.158200
     10          7           0        3.586400    0.051000   -0.067500
     11          8           0        4.147100   -1.059700   -0.088100
     12          8           0        4.145000    1.163900   -0.090100
     13          6           0       -0.023600   -1.145800    0.083500
     14          1           0       -0.436700   -1.872500    0.788900
     15         35           0       -0.535900   -1.869700   -1.740800
 ---------------------------------------------------------------------
                    Distance matrix (angstroms):
                    1          2          3          4          5
     1  C    0.000000
     2  C    1.407656   0.000000
     3  C    2.449874   1.408963   0.000000
     4  C    2.853126   2.424049   1.363043   0.000000
     5  C    1.374344   2.401589   2.804523   2.501993   0.000000
     6  H    1.081667   2.159142   3.424870   3.934226   2.141421
     7  H    2.176095   1.086408   2.147231   3.384750   3.392128
     8  H    3.938800   3.408612   2.131193   1.085702   3.495040
     9  H    2.143837   3.395283   3.888995   3.478413   1.084840
    10  N    3.785591   2.482297   1.475907   2.450862   4.279589
    11  O    4.768247   3.587631   2.320164   2.705743   4.992415
    12  O    4.122294   2.714696   2.319353   3.549540   4.938459
    13  C    2.486114   2.837240   2.449573   1.469656   1.472614
    14  H    3.324903   3.754379   3.290289   2.157764   2.165286
    15  Br   3.727252   4.110867   3.702891   2.756973   2.757100
                    6          7          8          9         10
     6  H    0.000000
     7  H    2.503108   0.000000
     8  H    5.019802   4.273425   0.000000
     9  H    2.486588   4.304945   4.388479   0.000000
    10  N    4.640790   2.652397   2.661486   5.364313   0.000000
    11  O    5.712624   3.885809   2.387560   6.052233   1.244373
    12  O    4.756638   2.356750   3.893289   6.002923   1.245428
    13  C    3.473180   3.923079   2.218790   2.195425   3.806210
    14  H    4.231175   4.827242   2.552506   2.528663   4.540772
    15  Br   4.548146   5.101303   3.087568   3.055498   4.845862
                   11         12         13         14         15
    11  O    0.000000
    12  O    2.223602   0.000000
    13  C    4.175117   4.768865   0.000000
    14  H    4.737193   5.566358   1.093770   0.000000
    15  Br   5.031700   5.817075   2.028436   2.531646   0.000000
 Symmetry turned off by external request.
 Stoichiometry    C6H5BrNO2(1+)
 Framework group  C1[X(C6H5BrNO2)]
 Deg. of freedom    39
 Full point group                 C1      NOp   1
 Rotational constants (GHZ):           1.8252210           0.5518633           0.4576002
 Leave Link  202 at Wed May  1 14:59:51 2024, MaxMem=  1207959552 cpu:               1.2 elap:               1.2
 (Enter /software/gaussian/g16-c01/sse4/g16/l301.exe)
 Standard basis: 6-311+G(d) (5D, 7F)
 Ernie: Thresh=  0.10000D-02 Tol=  0.10000D-05 Strict=F.
 The following finite field(s) will be applied:
 An electric field of              0.0000  0.0000 -0.0145
   261 basis functions,   443 primitive gaussians,   273 cartesian basis functions
    49 alpha electrons       49 beta electrons
       nuclear repulsion energy       739.2122215416 Hartrees.
 IExCor= 4639 DFT=T Ex+Corr=wB97XD ExCW=0 ScaHFX=  1.000000
 ScaDFX=  1.000000  1.000000  1.000000  1.000000 ScalE2=  1.000000  1.000000
 IRadAn=      5 IRanWt=     -1 IRanGd=            0 ICorTp=0 IEmpDi=121
 HFx  wShort=  0.000000 wLong=  0.200000 cFull=  0.222036 cShort=  0.000000 cLong=  0.777964
 DFx  wShort=  0.000000 wLong=  0.200000 cFull=  0.000000 cShort=  0.000000 cLong=  1.000000
 NAtoms=   15 NActive=   15 NUniq=   15 SFac= 1.00D+00 NAtFMM=   60 NAOKFM=F Big=F
 Integral buffers will be    131072 words long.
 Raffenetti 2 integral format.
 Two-electron integral symmetry is turned off.
 R6Disp:  Grimme-D2 Dispersion energy=       -0.0077368520 Hartrees.
 Nuclear repulsion after empirical dispersion term =      739.2044846896 Hartrees.
 Leave Link  301 at Wed May  1 14:59:52 2024, MaxMem=  1207959552 cpu:               1.0 elap:               1.0
 (Enter /software/gaussian/g16-c01/sse4/g16/l302.exe)
 NPDir=0 NMtPBC=     1 NCelOv=     1 NCel=       1 NClECP=     1 NCelD=      1
         NCelK=      1 NCelE2=     1 NClLst=     1 CellRange=     0.0.
 One-electron integrals computed using PRISM.
 NBasis=   261 RedAO= T EigKep=  2.35D-06  NBF=   261
 NBsUse=   261 1.00D-06 EigRej= -1.00D+00 NBFU=   261
 Precomputing XC quadrature grid using
 IXCGrd= 4 IRadAn=           5 IRanWt=          -1 IRanGd=           0 AccXCQ= 0.00D+00.
 Generated NRdTot=       0 NPtTot=           0 NUsed=           0 NTot=          32
 NSgBfM=   273   273   273   273   273 MxSgAt=    15 MxSgA2=    15.
 Leave Link  302 at Wed May  1 15:00:14 2024, MaxMem=  1207959552 cpu:              21.9 elap:              21.9
 (Enter /software/gaussian/g16-c01/sse4/g16/l303.exe)
 DipDrv:  MaxL=1.
 The nuclear repulsion energy is now       740.8498205658 hartrees.
 Leave Link  303 at Wed May  1 15:00:17 2024, MaxMem=  1207959552 cpu:               3.2 elap:               3.2
 (Enter /software/gaussian/g16-c01/sse4/g16/l401.exe)
 ExpMin= 3.50D-02 ExpMax= 4.40D+05 ExpMxC= 1.51D+04 IAcc=3 IRadAn=         5 AccDes= 0.00D+00
 Harris functional with IExCor= 4639 and IRadAn=       5 diagonalized for initial guess.
 HarFok:  IExCor= 4639 AccDes= 0.00D+00 IRadAn=         5 IDoV= 1 UseB2=F ITyADJ=14
 ICtDFT=  3500011 ScaDFX=  1.000000  1.000000  1.000000  1.000000
 FoFCou: FMM=F IPFlag=           0 FMFlag=      100000 FMFlg1=           0
         NFxFlg=           0 DoJE=T BraDBF=F KetDBF=T FulRan=T
         wScrn=  0.000000 ICntrl=       500 IOpCl=  0 I1Cent=   200000004 NGrid=           0
         NMat0=    1 NMatS0=      1 NMatT0=    0 NMatD0=    1 NMtDS0=    0 NMtDT0=    0
 Symmetry not used in FoFCou.
 Harris En= -2970.61951110382    
 JPrj=0 DoOrth=F DoCkMO=F.
 Leave Link  401 at Wed May  1 15:00:47 2024, MaxMem=  1207959552 cpu:              30.3 elap:              30.3
 (Enter /software/gaussian/g16-c01/sse4/g16/l502.exe)
 Two-electron integral symmetry not used.
 Closed shell SCF:
 Using DIIS extrapolation, IDIIS=  1040.
 NGot=  1207959552 LenX=  1207804877 LenY=  1207729907
 Requested convergence on RMS density matrix=1.00D-08 within 128 cycles.
 Requested convergence on MAX density matrix=1.00D-06.
 Requested convergence on             energy=1.00D-06.
 No special actions if energy rises.
 Fock matrices will be formed incrementally for  20 cycles.

 Cycle   1  Pass 1  IDiag  1:
 FoFJK:  IHMeth= 1 ICntrl=       0 DoSepK=T KAlg= 0 I1Cent=           0 FoldK=F
 IRaf=         1 NMat=       1 IRICut=       1 DoRegI=T DoRafI=F ISym2E= 0 IDoP0=0 IntGTp=1.
 FoFCou: FMM=F IPFlag=           0 FMFlag=      100000 FMFlg1=           0
         NFxFlg=           0 DoJE=T BraDBF=F KetDBF=F FulRan=T
         wScrn=  0.000000 ICntrl=       500 IOpCl=  0 I1Cent=           0 NGrid=           0
         NMat0=    1 NMatS0=      1 NMatT0=    0 NMatD0=    1 NMtDS0=    0 NMtDT0=    0
 Symmetry not used in FoFCou.
 E= -3009.71410879649    
 DIIS: error= 3.20D-01 at cycle   1 NSaved=   1.
 NSaved= 1 IEnMin= 1 EnMin= -3009.71410879649     IErMin= 1 ErrMin= 3.20D-01
 ErrMax= 3.20D-01  0.00D+00 EMaxC= 1.00D-01 BMatC= 1.19D+01 BMatP= 1.19D+01
 IDIUse=3 WtCom= 0.00D+00 WtEn= 1.00D+00
 Coeff-Com:  0.100D+01
 Coeff-En:   0.100D+01
 Coeff:      0.100D+01
 Gap=     0.344 Goal=   None    Shift=    0.000
 GapD=    0.344 DampG=1.000 DampE=0.250 DampFc=0.2500 IDamp=-1.
 Damping current iteration by 2.50D-01
 RMSDP=5.01D-02 MaxDP=4.96D+00              OVMax= 2.58D-01

 Cycle   2  Pass 1  IDiag  1:
 RMSU=  4.91D-03    CP:  8.84D-01
 E= -3010.00110895714     Delta-E=       -0.287000160655 Rises=F Damp=T
 DIIS: error= 2.25D-01 at cycle   2 NSaved=   2.
 NSaved= 2 IEnMin= 2 EnMin= -3010.00110895714     IErMin= 2 ErrMin= 2.25D-01
 ErrMax= 2.25D-01  0.00D+00 EMaxC= 1.00D-01 BMatC= 5.46D+00 BMatP= 1.19D+01
 IDIUse=3 WtCom= 0.00D+00 WtEn= 1.00D+00
 Coeff-Com: -0.186D+01 0.286D+01
 Coeff-En:   0.000D+00 0.100D+01
 Coeff:      0.000D+00 0.100D+01
 Gap=     0.292 Goal=   None    Shift=    0.000
 RMSDP=3.81D-02 MaxDP=3.82D+00 DE=-2.87D-01 OVMax= 7.64D-02

 Cycle   3  Pass 1  IDiag  1:
 RMSU=  4.33D-03    CP:  5.21D-01  3.00D+00
 E= -3010.39516273909     Delta-E=       -0.394053781942 Rises=F Damp=F
 DIIS: error= 6.50D-02 at cycle   3 NSaved=   3.
 NSaved= 3 IEnMin= 3 EnMin= -3010.39516273909     IErMin= 3 ErrMin= 6.50D-02
 ErrMax= 6.50D-02  0.00D+00 EMaxC= 1.00D-01 BMatC= 7.17D-01 BMatP= 5.46D+00
 IDIUse=3 WtCom= 3.50D-01 WtEn= 6.50D-01
 Coeff-Com:  0.279D+01-0.368D+01 0.188D+01
 Coeff-En:   0.615D-02 0.000D+00 0.994D+00
 Coeff:      0.983D+00-0.129D+01 0.130D+01
 Gap=     0.265 Goal=   None    Shift=    0.000
 RMSDP=8.52D-03 MaxDP=4.32D-01 DE=-3.94D-01 OVMax= 6.50D-02

 Cycle   4  Pass 1  IDiag  1:
 RMSU=  5.64D-03    CP:  5.55D-01  2.46D+00  1.73D+00
 E= -3010.49403628210     Delta-E=       -0.098873543011 Rises=F Damp=F
 DIIS: error= 3.94D-02 at cycle   4 NSaved=   4.
 NSaved= 4 IEnMin= 4 EnMin= -3010.49403628210     IErMin= 4 ErrMin= 3.94D-02
 ErrMax= 3.94D-02  0.00D+00 EMaxC= 1.00D-01 BMatC= 2.43D-01 BMatP= 7.17D-01
 IDIUse=3 WtCom= 6.06D-01 WtEn= 3.94D-01
 Coeff-Com: -0.148D+00 0.211D+00 0.299D+00 0.639D+00
 Coeff-En:   0.000D+00 0.000D+00 0.206D+00 0.794D+00
 Coeff:     -0.899D-01 0.128D+00 0.262D+00 0.700D+00
 Gap=     0.259 Goal=   None    Shift=    0.000
 RMSDP=3.82D-03 MaxDP=3.00D-01 DE=-9.89D-02 OVMax= 2.72D-02

 Cycle   5  Pass 1  IDiag  1:
 RMSU=  1.67D-03    CP:  5.24D-01  2.72D+00  1.58D+00  8.57D-01
 E= -3010.54046116509     Delta-E=       -0.046424882989 Rises=F Damp=F
 DIIS: error= 6.91D-03 at cycle   5 NSaved=   5.
 NSaved= 5 IEnMin= 5 EnMin= -3010.54046116509     IErMin= 5 ErrMin= 6.91D-03
 ErrMax= 6.91D-03  0.00D+00 EMaxC= 1.00D-01 BMatC= 7.82D-03 BMatP= 2.43D-01
 IDIUse=3 WtCom= 9.31D-01 WtEn= 6.91D-02
 Coeff-Com: -0.136D+00 0.186D+00 0.668D-01 0.342D+00 0.542D+00
 Coeff-En:   0.000D+00 0.000D+00 0.000D+00 0.000D+00 0.100D+01
 Coeff:     -0.127D+00 0.173D+00 0.621D-01 0.318D+00 0.574D+00
 Gap=     0.259 Goal=   None    Shift=    0.000
 RMSDP=6.96D-04 MaxDP=4.09D-02 DE=-4.64D-02 OVMax= 1.35D-02

 Cycle   6  Pass 1  IDiag  1:
 RMSU=  4.74D-04    CP:  5.25D-01  2.72D+00  1.59D+00  8.75D-01  7.05D-01
 E= -3010.54208562520     Delta-E=       -0.001624460115 Rises=F Damp=F
 DIIS: error= 2.02D-03 at cycle   6 NSaved=   6.
 NSaved= 6 IEnMin= 6 EnMin= -3010.54208562520     IErMin= 6 ErrMin= 2.02D-03
 ErrMax= 2.02D-03  0.00D+00 EMaxC= 1.00D-01 BMatC= 3.69D-04 BMatP= 7.82D-03
 IDIUse=3 WtCom= 9.80D-01 WtEn= 2.02D-02
 Coeff-Com: -0.966D-01 0.130D+00 0.105D-02 0.163D+00 0.377D+00 0.425D+00
 Coeff-En:   0.000D+00 0.000D+00 0.000D+00 0.000D+00 0.760D-02 0.992D+00
 Coeff:     -0.946D-01 0.127D+00 0.103D-02 0.160D+00 0.370D+00 0.437D+00
 Gap=     0.256 Goal=   None    Shift=    0.000
 RMSDP=2.18D-04 MaxDP=1.46D-02 DE=-1.62D-03 OVMax= 6.88D-03

 Cycle   7  Pass 1  IDiag  1:
 RMSU=  1.54D-04    CP:  5.25D-01  2.72D+00  1.60D+00  8.77D-01  7.79D-01
                    CP:  8.32D-01
 E= -3010.54234961588     Delta-E=       -0.000263990683 Rises=F Damp=F
 DIIS: error= 4.28D-04 at cycle   7 NSaved=   7.
 NSaved= 7 IEnMin= 7 EnMin= -3010.54234961588     IErMin= 7 ErrMin= 4.28D-04
 ErrMax= 4.28D-04  0.00D+00 EMaxC= 1.00D-01 BMatC= 2.03D-05 BMatP= 3.69D-04
 IDIUse=3 WtCom= 9.96D-01 WtEn= 4.28D-03
 Coeff-Com: -0.333D-01 0.443D-01-0.141D-01 0.270D-01 0.846D-01 0.203D+00
 Coeff-Com:  0.688D+00
 Coeff-En:   0.000D+00 0.000D+00 0.000D+00 0.000D+00 0.000D+00 0.000D+00
 Coeff-En:   0.100D+01
 Coeff:     -0.332D-01 0.441D-01-0.140D-01 0.269D-01 0.843D-01 0.202D+00
 Coeff:      0.690D+00
 Gap=     0.255 Goal=   None    Shift=    0.000
 RMSDP=1.30D-04 MaxDP=1.03D-02 DE=-2.64D-04 OVMax= 3.11D-03

 Cycle   8  Pass 1  IDiag  1:
 RMSU=  6.78D-05    CP:  5.25D-01  2.70D+00  1.61D+00  8.83D-01  8.21D-01
                    CP:  8.61D-01  1.01D+00
 E= -3010.54237559890     Delta-E=       -0.000025983019 Rises=F Damp=F
 DIIS: error= 1.08D-04 at cycle   8 NSaved=   8.
 NSaved= 8 IEnMin= 8 EnMin= -3010.54237559890     IErMin= 8 ErrMin= 1.08D-04
 ErrMax= 1.08D-04  0.00D+00 EMaxC= 1.00D-01 BMatC= 2.35D-06 BMatP= 2.03D-05
 IDIUse=3 WtCom= 9.99D-01 WtEn= 1.08D-03
 Coeff-Com:  0.837D-02-0.114D-01-0.313D-02-0.184D-01-0.426D-01-0.393D-01
 Coeff-Com:  0.159D+00 0.947D+00
 Coeff-En:   0.000D+00 0.000D+00 0.000D+00 0.000D+00 0.000D+00 0.000D+00
 Coeff-En:   0.000D+00 0.100D+01
 Coeff:      0.836D-02-0.114D-01-0.313D-02-0.184D-01-0.426D-01-0.393D-01
 Coeff:      0.159D+00 0.948D+00
 Gap=     0.255 Goal=   None    Shift=    0.000
 RMSDP=6.12D-05 MaxDP=3.92D-03 DE=-2.60D-05 OVMax= 2.41D-03

 Cycle   9  Pass 1  IDiag  1:
 RMSU=  2.73D-05    CP:  5.25D-01  2.70D+00  1.61D+00  8.84D-01  8.21D-01
                    CP:  9.19D-01  1.20D+00  1.21D+00
 E= -3010.54238258579     Delta-E=       -0.000006986882 Rises=F Damp=F
 DIIS: error= 4.97D-05 at cycle   9 NSaved=   9.
 NSaved= 9 IEnMin= 9 EnMin= -3010.54238258579     IErMin= 9 ErrMin= 4.97D-05
 ErrMax= 4.97D-05  0.00D+00 EMaxC= 1.00D-01 BMatC= 3.27D-07 BMatP= 2.35D-06
 IDIUse=1 WtCom= 1.00D+00 WtEn= 0.00D+00
 Coeff-Com:  0.690D-02-0.925D-02 0.880D-03-0.930D-02-0.222D-01-0.409D-01
 Coeff-Com: -0.611D-01 0.287D+00 0.848D+00
 Coeff:      0.690D-02-0.925D-02 0.880D-03-0.930D-02-0.222D-01-0.409D-01
 Coeff:     -0.611D-01 0.287D+00 0.848D+00
 Gap=     0.255 Goal=   None    Shift=    0.000
 RMSDP=1.96D-05 MaxDP=1.16D-03 DE=-6.99D-06 OVMax= 1.08D-03

 Cycle  10  Pass 1  IDiag  1:
 RMSU=  9.78D-06    CP:  5.25D-01  2.70D+00  1.61D+00  8.84D-01  8.25D-01
                    CP:  9.26D-01  1.24D+00  1.32D+00  1.23D+00
 E= -3010.54238378367     Delta-E=       -0.000001197888 Rises=F Damp=F
 DIIS: error= 1.75D-05 at cycle  10 NSaved=  10.
 NSaved=10 IEnMin=10 EnMin= -3010.54238378367     IErMin=10 ErrMin= 1.75D-05
 ErrMax= 1.75D-05  0.00D+00 EMaxC= 1.00D-01 BMatC= 7.51D-08 BMatP= 3.27D-07
 IDIUse=1 WtCom= 1.00D+00 WtEn= 0.00D+00
 Coeff-Com:  0.362D-03-0.455D-03 0.456D-03-0.217D-04 0.156D-02-0.390D-02
 Coeff-Com: -0.441D-01-0.570D-01 0.271D+00 0.832D+00
 Coeff:      0.362D-03-0.455D-03 0.456D-03-0.217D-04 0.156D-02-0.390D-02
 Coeff:     -0.441D-01-0.570D-01 0.271D+00 0.832D+00
 Gap=     0.255 Goal=   None    Shift=    0.000
 RMSDP=1.17D-05 MaxDP=7.55D-04 DE=-1.20D-06 OVMax= 4.37D-04

 Cycle  11  Pass 1  IDiag  1:
 RMSU=  5.98D-06    CP:  5.25D-01  2.70D+00  1.61D+00  8.84D-01  8.23D-01
                    CP:  9.32D-01  1.24D+00  1.32D+00  1.49D+00  1.26D+00
 E= -3010.54238397605     Delta-E=       -0.000000192375 Rises=F Damp=F
 DIIS: error= 6.97D-06 at cycle  11 NSaved=  11.
 NSaved=11 IEnMin=11 EnMin= -3010.54238397605     IErMin=11 ErrMin= 6.97D-06
 ErrMax= 6.97D-06  0.00D+00 EMaxC= 1.00D-01 BMatC= 6.50D-09 BMatP= 7.51D-08
 IDIUse=1 WtCom= 1.00D+00 WtEn= 0.00D+00
 Coeff-Com: -0.382D-03 0.518D-03 0.972D-04 0.931D-03 0.291D-02 0.420D-02
 Coeff-Com:  0.804D-03-0.446D-01-0.724D-01 0.134D+00 0.974D+00
 Coeff:     -0.382D-03 0.518D-03 0.972D-04 0.931D-03 0.291D-02 0.420D-02
 Coeff:      0.804D-03-0.446D-01-0.724D-01 0.134D+00 0.974D+00
 Gap=     0.255 Goal=   None    Shift=    0.000
 RMSDP=5.06D-06 MaxDP=3.66D-04 DE=-1.92D-07 OVMax= 1.85D-04

 Cycle  12  Pass 1  IDiag  1:
 RMSU=  1.44D-06    CP:  5.25D-01  2.70D+00  1.61D+00  8.83D-01  8.22D-01
                    CP:  9.33D-01  1.23D+00  1.31D+00  1.60D+00  1.48D+00
                    CP:  1.31D+00
 E= -3010.54238400702     Delta-E=       -0.000000030975 Rises=F Damp=F
 DIIS: error= 2.91D-06 at cycle  12 NSaved=  12.
 NSaved=12 IEnMin=12 EnMin= -3010.54238400702     IErMin=12 ErrMin= 2.91D-06
 ErrMax= 2.91D-06  0.00D+00 EMaxC= 1.00D-01 BMatC= 2.27D-09 BMatP= 6.50D-09
 IDIUse=1 WtCom= 1.00D+00 WtEn= 0.00D+00
 Coeff-Com: -0.200D-03 0.265D-03-0.948D-05 0.439D-03 0.920D-03 0.245D-02
 Coeff-Com:  0.921D-02-0.982D-02-0.885D-01-0.106D+00 0.474D+00 0.718D+00
 Coeff:     -0.200D-03 0.265D-03-0.948D-05 0.439D-03 0.920D-03 0.245D-02
 Coeff:      0.921D-02-0.982D-02-0.885D-01-0.106D+00 0.474D+00 0.718D+00
 Gap=     0.255 Goal=   None    Shift=    0.000
 RMSDP=2.20D-06 MaxDP=1.92D-04 DE=-3.10D-08 OVMax= 7.04D-05

 Cycle  13  Pass 1  IDiag  1:
 RMSU=  5.49D-07    CP:  5.25D-01  2.70D+00  1.61D+00  8.83D-01  8.22D-01
                    CP:  9.34D-01  1.23D+00  1.31D+00  1.64D+00  1.56D+00
                    CP:  1.50D+00  1.03D+00
 E= -3010.54238401219     Delta-E=       -0.000000005164 Rises=F Damp=F
 DIIS: error= 7.59D-07 at cycle  13 NSaved=  13.
 NSaved=13 IEnMin=13 EnMin= -3010.54238401219     IErMin=13 ErrMin= 7.59D-07
 ErrMax= 7.59D-07  0.00D+00 EMaxC= 1.00D-01 BMatC= 1.44D-10 BMatP= 2.27D-09
 IDIUse=1 WtCom= 1.00D+00 WtEn= 0.00D+00
 Coeff-Com: -0.370D-04 0.493D-04-0.119D-04 0.319D-05-0.245D-03-0.371D-03
 Coeff-Com:  0.502D-03 0.233D-02-0.172D-02-0.212D-01-0.268D-01 0.121D+00
 Coeff-Com:  0.927D+00
 Coeff:     -0.370D-04 0.493D-04-0.119D-04 0.319D-05-0.245D-03-0.371D-03
 Coeff:      0.502D-03 0.233D-02-0.172D-02-0.212D-01-0.268D-01 0.121D+00
 Coeff:      0.927D+00
 Gap=     0.255 Goal=   None    Shift=    0.000
 RMSDP=6.14D-07 MaxDP=4.11D-05 DE=-5.16D-09 OVMax= 1.23D-05

 Cycle  14  Pass 1  IDiag  1:
 RMSU=  2.59D-07    CP:  5.25D-01  2.70D+00  1.61D+00  8.83D-01  8.22D-01
                    CP:  9.34D-01  1.23D+00  1.31D+00  1.64D+00  1.56D+00
                    CP:  1.54D+00  1.20D+00  1.19D+00
 E= -3010.54238401246     Delta-E=       -0.000000000276 Rises=F Damp=F
 DIIS: error= 2.92D-07 at cycle  14 NSaved=  14.
 NSaved=14 IEnMin=14 EnMin= -3010.54238401246     IErMin=14 ErrMin= 2.92D-07
 ErrMax= 2.92D-07  0.00D+00 EMaxC= 1.00D-01 BMatC= 2.20D-11 BMatP= 1.44D-10
 IDIUse=1 WtCom= 1.00D+00 WtEn= 0.00D+00
 Coeff-Com: -0.204D-06 0.555D-06-0.620D-05-0.466D-04-0.201D-03-0.463D-03
 Coeff-Com: -0.992D-03 0.236D-02 0.112D-01 0.551D-02-0.788D-01-0.484D-01
 Coeff-Com:  0.332D+00 0.777D+00
 Coeff:     -0.204D-06 0.555D-06-0.620D-05-0.466D-04-0.201D-03-0.463D-03
 Coeff:     -0.992D-03 0.236D-02 0.112D-01 0.551D-02-0.788D-01-0.484D-01
 Coeff:      0.332D+00 0.777D+00
 Gap=     0.255 Goal=   None    Shift=    0.000
 RMSDP=2.29D-07 MaxDP=1.48D-05 DE=-2.76D-10 OVMax= 5.86D-06

 Cycle  15  Pass 1  IDiag  1:
 RMSU=  6.29D-08    CP:  5.25D-01  2.70D+00  1.61D+00  8.83D-01  8.22D-01
                    CP:  9.34D-01  1.23D+00  1.31D+00  1.65D+00  1.56D+00
                    CP:  1.55D+00  1.27D+00  1.33D+00  1.12D+00
 E= -3010.54238401255     Delta-E=       -0.000000000084 Rises=F Damp=F
 DIIS: error= 8.37D-08 at cycle  15 NSaved=  15.
 NSaved=15 IEnMin=15 EnMin= -3010.54238401255     IErMin=15 ErrMin= 8.37D-08
 ErrMax= 8.37D-08  0.00D+00 EMaxC= 1.00D-01 BMatC= 2.52D-12 BMatP= 2.20D-11
 IDIUse=1 WtCom= 1.00D+00 WtEn= 0.00D+00
 Coeff-Com:  0.461D-05-0.611D-05 0.129D-06-0.680D-05 0.144D-04-0.186D-04
 Coeff-Com: -0.253D-03 0.466D-04 0.219D-02 0.456D-02-0.120D-01-0.255D-01
 Coeff-Com: -0.785D-01 0.144D+00 0.966D+00
 Coeff:      0.461D-05-0.611D-05 0.129D-06-0.680D-05 0.144D-04-0.186D-04
 Coeff:     -0.253D-03 0.466D-04 0.219D-02 0.456D-02-0.120D-01-0.255D-01
 Coeff:     -0.785D-01 0.144D+00 0.966D+00
 Gap=     0.255 Goal=   None    Shift=    0.000
 RMSDP=9.58D-08 MaxDP=6.70D-06 DE=-8.41D-11 OVMax= 3.54D-06

 Cycle  16  Pass 1  IDiag  1:
 RMSU=  3.72D-08    CP:  5.25D-01  2.70D+00  1.61D+00  8.83D-01  8.22D-01
                    CP:  9.34D-01  1.23D+00  1.31D+00  1.65D+00  1.56D+00
                    CP:  1.55D+00  1.29D+00  1.40D+00  1.26D+00  1.23D+00
 E= -3010.54238401256     Delta-E=       -0.000000000014 Rises=F Damp=F
 DIIS: error= 3.32D-08 at cycle  16 NSaved=  16.
 NSaved=16 IEnMin=16 EnMin= -3010.54238401256     IErMin=16 ErrMin= 3.32D-08
 ErrMax= 3.32D-08  0.00D+00 EMaxC= 1.00D-01 BMatC= 5.45D-13 BMatP= 2.52D-12
 IDIUse=1 WtCom= 1.00D+00 WtEn= 0.00D+00
 Coeff-Com:  0.133D-05-0.179D-05 0.109D-05 0.529D-05 0.345D-04 0.627D-04
 Coeff-Com:  0.543D-04-0.370D-03-0.993D-03 0.955D-03 0.773D-02 0.885D-03
 Coeff-Com: -0.667D-01-0.906D-01 0.253D+00 0.896D+00
 Coeff:      0.133D-05-0.179D-05 0.109D-05 0.529D-05 0.345D-04 0.627D-04
 Coeff:      0.543D-04-0.370D-03-0.993D-03 0.955D-03 0.773D-02 0.885D-03
 Coeff:     -0.667D-01-0.906D-01 0.253D+00 0.896D+00
 Gap=     0.255 Goal=   None    Shift=    0.000
 RMSDP=4.08D-08 MaxDP=2.78D-06 DE=-1.36D-11 OVMax= 1.72D-06

 Cycle  17  Pass 1  IDiag  1:
 RMSU=  9.85D-09    CP:  5.25D-01  2.70D+00  1.61D+00  8.83D-01  8.22D-01
                    CP:  9.34D-01  1.23D+00  1.31D+00  1.65D+00  1.56D+00
                    CP:  1.56D+00  1.30D+00  1.42D+00  1.31D+00  1.51D+00
                    CP:  1.20D+00
 E= -3010.54238401254     Delta-E=        0.000000000018 Rises=F Damp=F
 DIIS: error= 1.58D-08 at cycle  17 NSaved=  17.
 NSaved=17 IEnMin=16 EnMin= -3010.54238401256     IErMin=17 ErrMin= 1.58D-08
 ErrMax= 1.58D-08  0.00D+00 EMaxC= 1.00D-01 BMatC= 9.84D-14 BMatP= 5.45D-13
 IDIUse=1 WtCom= 1.00D+00 WtEn= 0.00D+00
 Coeff-Com:  0.748D-07-0.106D-06 0.304D-06 0.143D-05 0.367D-05 0.130D-04
 Coeff-Com:  0.386D-04-0.605D-04-0.483D-03-0.326D-03 0.288D-02 0.365D-02
 Coeff-Com: -0.962D-03-0.492D-01-0.115D+00 0.231D+00 0.929D+00
 Coeff:      0.748D-07-0.106D-06 0.304D-06 0.143D-05 0.367D-05 0.130D-04
 Coeff:      0.386D-04-0.605D-04-0.483D-03-0.326D-03 0.288D-02 0.365D-02
 Coeff:     -0.962D-03-0.492D-01-0.115D+00 0.231D+00 0.929D+00
 Gap=     0.255 Goal=   None    Shift=    0.000
 RMSDP=1.65D-08 MaxDP=8.22D-07 DE= 1.77D-11 OVMax= 8.28D-07

 Cycle  18  Pass 1  IDiag  1:
 RMSU=  4.61D-09    CP:  5.25D-01  2.70D+00  1.61D+00  8.83D-01  8.22D-01
                    CP:  9.34D-01  1.23D+00  1.31D+00  1.65D+00  1.56D+00
                    CP:  1.56D+00  1.30D+00  1.43D+00  1.33D+00  1.57D+00
                    CP:  1.44D+00  1.27D+00
 E= -3010.54238401253     Delta-E=        0.000000000018 Rises=F Damp=F
 DIIS: error= 5.96D-09 at cycle  18 NSaved=  18.
 NSaved=18 IEnMin=16 EnMin= -3010.54238401256     IErMin=18 ErrMin= 5.96D-09
 ErrMax= 5.96D-09  0.00D+00 EMaxC= 1.00D-01 BMatC= 1.95D-14 BMatP= 9.84D-14
 IDIUse=1 WtCom= 1.00D+00 WtEn= 0.00D+00
 Coeff-Com:  0.255D-07-0.330D-07-0.119D-06-0.114D-05-0.705D-05-0.105D-04
 Coeff-Com: -0.315D-05 0.787D-04 0.831D-04-0.324D-03-0.107D-02 0.753D-03
 Coeff-Com:  0.166D-01 0.761D-02-0.896D-01-0.133D+00 0.239D+00 0.960D+00
 Coeff:      0.255D-07-0.330D-07-0.119D-06-0.114D-05-0.705D-05-0.105D-04
 Coeff:     -0.315D-05 0.787D-04 0.831D-04-0.324D-03-0.107D-02 0.753D-03
 Coeff:      0.166D-01 0.761D-02-0.896D-01-0.133D+00 0.239D+00 0.960D+00
 Gap=     0.255 Goal=   None    Shift=    0.000
 RMSDP=7.62D-09 MaxDP=5.54D-07 DE= 1.82D-11 OVMax= 3.28D-07

 SCF Done:  E(RwB97XD) =  -3010.54238401     A.U. after   18 cycles
            NFock= 18  Conv=0.76D-08     -V/T= 2.0016
 KE= 3.005860057183D+03 PE=-8.634130711434D+03 EE= 1.876878449673D+03
 Leave Link  502 at Wed May  1 15:18:06 2024, MaxMem=  1207959552 cpu:            1038.2 elap:            1038.4
 (Enter /software/gaussian/g16-c01/sse4/g16/l601.exe)
 Copying SCF densities to generalized density rwf, IOpCl= 0 IROHF=0.

 **********************************************************************

            Population analysis using the SCF Density.

 **********************************************************************

 Alpha  occ. eigenvalues -- -483.33458 -62.88516 -56.68163 -56.67654 -56.67653
 Alpha  occ. eigenvalues --  -19.46303 -19.46217 -14.85798 -10.59327 -10.58161
 Alpha  occ. eigenvalues --  -10.57722 -10.57541 -10.57242 -10.53394  -9.04345
 Alpha  occ. eigenvalues --   -6.86899  -6.85219  -6.85207  -2.96833  -2.96384
 Alpha  occ. eigenvalues --   -2.96372  -2.95028  -2.95027  -1.50049  -1.33022
 Alpha  occ. eigenvalues --   -1.23294  -1.15046  -1.12340  -1.06087  -1.01507
 Alpha  occ. eigenvalues --   -0.96100  -0.91464  -0.85689  -0.81235  -0.81088
 Alpha  occ. eigenvalues --   -0.80419  -0.78722  -0.76534  -0.76403  -0.73352
 Alpha  occ. eigenvalues --   -0.69879  -0.68077  -0.64678  -0.61537  -0.59081
 Alpha  occ. eigenvalues --   -0.57489  -0.56971  -0.56465  -0.56004
 Alpha virt. eigenvalues --   -0.30513  -0.21748  -0.17292  -0.14152  -0.13076
 Alpha virt. eigenvalues --   -0.09539  -0.08630  -0.07529  -0.05986  -0.05108
 Alpha virt. eigenvalues --   -0.04047  -0.03416  -0.02822  -0.02267  -0.01742
 Alpha virt. eigenvalues --   -0.00306   0.00197   0.01195   0.01809   0.03091
 Alpha virt. eigenvalues --    0.04475   0.04821   0.05478   0.05863   0.06338
 Alpha virt. eigenvalues --    0.06733   0.07851   0.08168   0.08637   0.08824
 Alpha virt. eigenvalues --    0.10429   0.10998   0.11582   0.11860   0.12514
 Alpha virt. eigenvalues --    0.12694   0.13324   0.13993   0.14919   0.15920
 Alpha virt. eigenvalues --    0.16474   0.17210   0.17956   0.18895   0.19080
 Alpha virt. eigenvalues --    0.19677   0.20643   0.21247   0.21773   0.24409
 Alpha virt. eigenvalues --    0.25269   0.26589   0.27372   0.27923   0.28142
 Alpha virt. eigenvalues --    0.30524   0.32406   0.33608   0.34433   0.35922
 Alpha virt. eigenvalues --    0.37096   0.37673   0.38122   0.39988   0.40572
 Alpha virt. eigenvalues --    0.42371   0.43361   0.44248   0.46356   0.46930
 Alpha virt. eigenvalues --    0.47738   0.48842   0.49681   0.51544   0.53180
 Alpha virt. eigenvalues --    0.53633   0.54586   0.55928   0.56814   0.59014
 Alpha virt. eigenvalues --    0.60613   0.61727   0.63216   0.65681   0.68108
 Alpha virt. eigenvalues --    0.69867   0.71231   0.72418   0.72660   0.73670
 Alpha virt. eigenvalues --    0.74001   0.79018   0.79273   0.81562   0.84368
 Alpha virt. eigenvalues --    0.85493   0.87461   0.91430   0.92287   0.97937
 Alpha virt. eigenvalues --    0.99186   1.00503   1.03969   1.04931   1.06002
 Alpha virt. eigenvalues --    1.08316   1.10693   1.11477   1.12001   1.13823
 Alpha virt. eigenvalues --    1.21637   1.24103   1.26326   1.32403   1.35972
 Alpha virt. eigenvalues --    1.36372   1.37357   1.44341   1.53842   1.56597
 Alpha virt. eigenvalues --    1.57967   1.58211   1.60117   1.61860   1.65667
 Alpha virt. eigenvalues --    1.68623   1.69013   1.72994   1.74840   1.78483
 Alpha virt. eigenvalues --    1.80574   1.84979   1.86679   1.91000   1.93201
 Alpha virt. eigenvalues --    1.96919   2.02375   2.03100   2.05443   2.07270
 Alpha virt. eigenvalues --    2.08853   2.14097   2.19907   2.22207   2.28971
 Alpha virt. eigenvalues --    2.37206   2.40674   2.42252   2.43052   2.51950
 Alpha virt. eigenvalues --    2.56246   2.62536   2.65553   2.67693   2.71264
 Alpha virt. eigenvalues --    2.72912   2.76032   2.76868   2.80499   2.81108
 Alpha virt. eigenvalues --    2.92760   2.95687   3.00218   3.04921   3.08329
 Alpha virt. eigenvalues --    3.12511   3.14397   3.18579   3.23201   3.23816
 Alpha virt. eigenvalues --    3.26921   3.38642   3.47140   3.50718   3.53952
 Alpha virt. eigenvalues --    3.56343   3.69484   3.73679   3.81578   3.86528
 Alpha virt. eigenvalues --    4.06389   4.06637   4.14364   4.19539   4.40431
 Alpha virt. eigenvalues --    4.43924   4.56773   4.59406   4.92772   4.95442
 Alpha virt. eigenvalues --    5.04085   5.08252   5.62389   6.15339   6.62225
 Alpha virt. eigenvalues --    7.45034   7.46630   7.56555  23.20636  23.60697
 Alpha virt. eigenvalues --   23.68580  23.78790  23.95470  24.00800  35.32160
 Alpha virt. eigenvalues --   47.88896  49.85130  49.93941 289.78252 289.79922
 Alpha virt. eigenvalues --  289.923971020.89362
          Condensed to atoms (all electrons):
               1          2          3          4          5          6
     1  C    8.983715  -2.735571   0.551765  -1.836942  -0.762177   0.322056
     2  C   -2.735571  13.839394  -2.490442  -2.236587   1.182072  -0.021944
     3  C    0.551765  -2.490442  13.248785  -2.937288  -1.576006   0.024459
     4  C   -1.836942  -2.236587  -2.937288  14.536018   1.479848   0.016106
     5  C   -0.762177   1.182072  -1.576006   1.479848   7.716520   0.006326
     6  H    0.322056  -0.021944   0.024459   0.016106   0.006326   0.330326
     7  H    0.066491   0.224453   0.082998  -0.029390  -0.018637  -0.001719
     8  H    0.004690  -0.013199   0.074089   0.249872  -0.019811  -0.000002
     9  H    0.026658  -0.015044   0.007137  -0.009258   0.312975  -0.002121
    10  N   -0.167721   0.363893  -1.026976   0.418287   0.038577  -0.000655
    11  O    0.011737  -0.026436  -0.233627  -0.053075  -0.050479  -0.000037
    12  O    0.330560  -0.059201  -0.243345  -0.102068  -0.045588   0.000017
    13  C    1.747582  -2.498826   1.183307  -3.822869  -2.329307  -0.012325
    14  H   -0.007130   0.002002   0.000335  -0.076814  -0.028976  -0.000030
    15  Br   0.070984  -0.076700   0.063953   0.100514   0.046791  -0.000566
               7          8          9         10         11         12
     1  C    0.066491   0.004690   0.026658  -0.167721   0.011737   0.330560
     2  C    0.224453  -0.013199  -0.015044   0.363893  -0.026436  -0.059201
     3  C    0.082998   0.074089   0.007137  -1.026976  -0.233627  -0.243345
     4  C   -0.029390   0.249872  -0.009258   0.418287  -0.053075  -0.102068
     5  C   -0.018637  -0.019811   0.312975   0.038577  -0.050479  -0.045588
     6  H   -0.001719  -0.000002  -0.002121  -0.000655  -0.000037   0.000017
     7  H    0.299930  -0.000013   0.000010  -0.027345  -0.001497   0.022720
     8  H   -0.000013   0.288110   0.000064  -0.024881   0.021397  -0.000593
     9  H    0.000010   0.000064   0.315778   0.000268   0.000016   0.000008
    10  N   -0.027345  -0.024881   0.000268   7.428360   0.154888   0.136812
    11  O   -0.001497   0.021397   0.000016   0.154888   7.859066  -0.000039
    12  O    0.022720  -0.000593   0.000008   0.136812  -0.000039   7.883945
    13  C    0.013565   0.044768   0.011993  -0.191767   0.287014   0.045396
    14  H   -0.000009  -0.002367  -0.003803   0.000717  -0.000406  -0.000119
    15  Br  -0.000144  -0.000960  -0.002206   0.004488  -0.001618   0.002339
              13         14         15
     1  C    1.747582  -0.007130   0.070984
     2  C   -2.498826   0.002002  -0.076700
     3  C    1.183307   0.000335   0.063953
     4  C   -3.822869  -0.076814   0.100514
     5  C   -2.329307  -0.028976   0.046791
     6  H   -0.012325  -0.000030  -0.000566
     7  H    0.013565  -0.000009  -0.000144
     8  H    0.044768  -0.002367  -0.000960
     9  H    0.011993  -0.003803  -0.002206
    10  N   -0.191767   0.000717   0.004488
    11  O    0.287014  -0.000406  -0.001618
    12  O    0.045396  -0.000119   0.002339
    13  C   11.674173   0.410838  -0.091232
    14  H    0.410838   0.278233  -0.026465
    15  Br  -0.091232  -0.026465  34.870680
 Mulliken charges:
               1
     1  C   -0.606698
     2  C    0.562135
     3  C   -0.729143
     4  C    0.303645
     5  C    0.047873
     6  H    0.340108
     7  H    0.368587
     8  H    0.378835
     9  H    0.357526
    10  N   -0.106944
    11  O    0.033096
    12  O    0.029157
    13  C   -0.472311
    14  H    0.453993
    15  Br   0.040143
 Sum of Mulliken charges =   1.00000
 Mulliken charges with hydrogens summed into heavy atoms:
               1
     1  C   -0.266590
     2  C    0.930722
     3  C   -0.729143
     4  C    0.682480
     5  C    0.405398
    10  N   -0.106944
    11  O    0.033096
    12  O    0.029157
    13  C   -0.018318
    15  Br   0.040143
 Electronic spatial extent (au):  <R**2>=           2800.7358
 Charge=              1.0000 electrons
 Dipole moment (field-independent basis, Debye):
    X=             -0.4767    Y=             -0.0496    Z=              2.4899  Tot=              2.5356
 Quadrupole moment (field-independent basis, Debye-Ang):
   XX=            -70.7698   YY=            -52.7546   ZZ=            -65.5077
   XY=              0.9112   XZ=              2.2629   YZ=             -0.4857
 Traceless Quadrupole moment (field-independent basis, Debye-Ang):
   XX=             -7.7591   YY=             10.2561   ZZ=             -2.4970
   XY=              0.9112   XZ=              2.2629   YZ=             -0.4857
 Octapole moment (field-independent basis, Debye-Ang**2):
  XXX=           -296.7054  YYY=             91.4893  ZZZ=             89.1836  XYY=            -74.7309
  XXY=             30.7564  XXZ=             40.6657  XZZ=            -76.5740  YZZ=             22.0384
  YYZ=             33.0327  XYZ=             -1.9288
 Hexadecapole moment (field-independent basis, Debye-Ang**3):
 XXXX=          -2270.0262 YYYY=           -685.0649 ZZZZ=           -374.8965 XXXY=            -69.9648
 XXXZ=              1.4403 YYYX=            -62.1659 YYYZ=           -168.5415 ZZZX=            -20.1140
 ZZZY=           -152.5233 XXYY=           -456.2339 XXZZ=           -374.2716 YYZZ=           -176.3529
 XXYZ=            -56.5976 YYXZ=             -2.2477 ZZXY=            -11.8698
 N-N= 7.408498205658D+02 E-N=-8.634130713043D+03  KE= 3.005860057183D+03
 No NMR shielding tensors so no spin-rotation constants.
 Leave Link  601 at Wed May  1 15:18:13 2024, MaxMem=  1207959552 cpu:               7.5 elap:               7.4
 (Enter /software/gaussian/g16-c01/sse4/g16/l9999.exe)
 Unable to Open any file for archive entry.
 1\1\GINC-BHX0002\SP\RwB97XD\6-311+G(d)\C6H5Br1N1O2(1+)\BWEIGHT\01-May-
 2024\0\\#P wB97XD/6-311+G* NoSymm #P Field=Z-145\\TitleMe\\1,1\C,0,0.0
 295,1.3397,0.0682\C,0,1.4348,1.2867,0.0064\C,0,2.1118,0.0511,-0.0054\C
 ,0,1.4451,-1.1372,0.0312\C,0,-0.6879,0.1682,0.11\H,0,-0.4713,2.2984,0.
 0781\H,0,2.0273,2.1965,-0.0322\H,0,1.9897,-2.0764,0.0232\H,0,-1.7716,0
 .1804,0.1582\N,0,3.5864,0.051,-0.0675\O,0,4.1471,-1.0597,-0.0881\O,0,4
 .145,1.1639,-0.0901\C,0,-0.0236,-1.1458,0.0835\H,0,-0.4367,-1.8725,0.7
 889\Br,0,-0.5359,-1.8697,-1.7408\\Version=ES64L-G16RevC.01\HF=-3010.54
 2384\RMSD=7.621e-09\Dipole=-2.0940752,1.1285498,2.1257831\Quadrupole=-
 5.768681,7.6251603,-1.8564793,0.677448,1.6824351,-0.3611083\PG=C01 [X(
 C6H5Br1N1O2)]\\@
 The archive entry for this job was punched.


 IT IS BY EATING THE LIGHT OF A STAR THAT WE EXIST, 
 IN THE FINAL ANALYSIS, 
 JUST AS IT IS BY PERCEIVING THE LIGHT OF STARS
 THAT WE DEFINE THE WORLD AROUND US.

                                    -- GILBERT GROSVENOR
 Job cpu time:       0 days  0 hours 18 minutes 26.5 seconds.
 Elapsed time:       0 days  0 hours 18 minutes 26.7 seconds.
 File lengths (MBytes):  RWF=     40 Int=      0 D2E=      0 Chk=     32 Scr=      1
 Normal termination of Gaussian 16 at Wed May  1 15:18:14 2024.
