
Running Job 1 of 1 QCHEM.in
qchem QCHEM.in_348.0 /local_scratch/16807766/QCLOCALSCR/save/ 0
/gpfs/fs2/scratch/phuo_lab/Program/Qchem/exe/qcprog.exe_s QCHEM.in_348.0 /local_scratch/16807766/QCLOCALSCR/save/
                  Welcome to Q-Chem
     A Quantum Leap Into The Future Of Chemistry


 Q-Chem 6.0, Q-Chem, Inc., Pleasanton, CA (2022)

 License issued to: SRG Frank Huo, University of Rochester

 E. Epifanovsky,  A. T. B. Gilbert,  Xintian Feng,  Joonho Lee,  Yuezhi Mao,  
 N. Mardirossian,  P. Pokhilko,  A. White,  M. Wormit,  M. P. Coons,  
 A. L. Dempwolff,  Zhengting Gan,  D. Hait,  P. R. Horn,  L. D. Jacobson,  
 I. Kaliman,  J. Kussmann,  A. W. Lange,  Ka Un Lao,  D. S. Levine,  Jie Liu,  
 S. C. McKenzie,  A. F. Morrison,  K. Nanda,  F. Plasser,  D. R. Rehn,  
 M. L. Vidal,  Zhi-Qiang You,  Ying Zhu,  B. Alam,  B. Albrecht,  
 A. Aldossary,  E. Alguire,  J. H. Andersen,  V. Athavale,  D. Barton,  
 K. Begam,  A. Behn,  N. Bellonzi,  Y. A. Bernard,  E. J. Berquist,  
 H. Burton,  A. Carreras,  K. Carter-Fenk,  Romit Chakraborty,  
 Chandrima Chakravarty,  Junhan Chen,  A. D. Chien,  K. D. Closser,  
 V. Cofer-Shabica,  L. Cunha,  S. Dasgupta,  Jia Deng,  M. de Wergifosse,  
 M. Diedenhofen,  Hainam Do,  S. Ehlert,  Po-Tung Fang,  S. Fatehi,  
 Qingguo Feng,  T. Friedhoff,  B. Ganoe,  J. Gayvert,  Qinghui Ge,  
 G. Gidofalvi,  M. Goldey,  J. Gomes,  C. Gonzalez-Espinoza,  S. Gulania,  
 A. Gunina,  J. A. Gyamfi,  M. W. D. Hanson-Heine,  P. H. P. Harbach,  
 A. W. Hauser,  M. F. Herbst,  M. Hernandez Vera,  M. Hodecker,  
 Z. C. Holden,  S. Houck,  Xunkun Huang,  Kerwin Hui,  B. C. Huynh,  
 K. Ikeda,  M. Ivanov,  Hyunjun Ji,  Zuxin Jin,  Hanjie Jiang,  B. Kaduk,  
 S. Kaehler,  R. Kang,  K. Khistyaev,  Jaehoon Kim,  Yongbin Kim,  
 P. Klunzinger,  Z. Koczor-Benda,  Joong Hoon Koh,  D. Kosenkov,  
 Saikiran Kotaru,  L. Koulias,  T. Kowalczyk,  C. M. Krauter,  K. Kue,  
 A. Kunitsa,  T. Kus,  A. Landau,  K. V. Lawler,  D. Lefrancois,  S. Lehtola,  
 Rain Li,  Shaozhi Li,  Yi-Pei Li,  Jiashu Liang,  M. Liebenthal,  
 Hung-Hsuan Lin,  You-Sheng Lin,  Fenglai Liu,  Kuan-Yu Liu,  
 M. Loipersberger,  A. Luenser,  C. Malbon,  A. Manjanath,  P. Manohar,  
 E. Mansoor,  S. F. Manzer,  Shan-Ping Mao,  A. V. Marenich,  T. Markovich,  
 S. Mason,  F. Matz,  S. A. Maurer,  P. F. McLaughlin,  M. F. S. J. Menger,  
 J.-M. Mewes,  S. A. Mewes,  P. Morgante,  Mohammad Mostafanejad,  
 J. W. Mullinax,  K. J. Oosterbaan,  G. Paran,  V. Parravicini,  
 Alexander C. Paul,  Suranjan K. Paul,  F. Pavosevic,  Zheng Pei,  S. Prager,  
 E. I. Proynov,  E. Ramos,  B. Rana,  A. E. Rask,  A. Rettig,  R. M. Richard,  
 F. Rob,  E. Rossomme,  T. Scheele,  M. Scheurer,  M. Schneider,  
 P. E. Schneider,  N. Sergueev,  S. M. Sharada,  Hengyuan Shen,  
 W. Skomorowski,  D. W. Small,  C. J. Stein,  Yingli Su,  Yu-Chuan Su,  
 E. J. Sundstrom,  Zhen Tao,  J. Thirman,  Hung-Yi Tsai,  T. Tsuchimochi,  
 N. M. Tubman,  C. Utku,  S. P. Veccham,  O. Vydrov,  J. Wenzel,  
 Jonathan Wong,  J. Witte,  A. Yamada,  Chou-Hsun Yang,  Kun Yao,  
 S. Yeganeh,  S. R. Yost,  A. Zech,  F. Zeller,  Igor Ying Zhang,  
 Xing Zhang,  Yu Zhang,  D. Zuev,  A. Aspuru-Guzik,  A. T. Bell,  
 N. A. Besley,  K. B. Bravaya,  B. R. Brooks,  D. Casanova,  Jeng-Da Chai,  
 Hsing-Ta Chen,  S. Coriani,  C. J. Cramer,  A. E. DePrince, III,  
 R. A. DiStasio Jr.,  A. Dreuw,  B. D. Dunietz,  T. R. Furlani,  
 W. A. Goddard III,  S. Grimme,  S. Hammes-Schiffer,  T. Head-Gordon,  
 W. J. Hehre,  Chao-Ping Hsu,  T.-C. Jagau,  Yousung Jung,  A. Klamt,  
 Jing Kong,  D. S. Lambrecht,  Xiangyuan Li,  WanZhen Liang,  N. J. Mayhall,  
 C. W. McCurdy,  J. B. Neaton,  T. Neudecker,  C. Ochsenfeld,  
 J. A. Parkhill,  R. Peverati,  V. A. Rassolov,  Haisheng Ren,  Yihan Shao,  
 L. V. Slipchenko,  R. P. Steele,  J. E. Subotnik,  A. J. W. Thom,  
 A. Tkatchenko,  D. G. Truhlar,  T. Van Voorhis,  Fan Wang,  
 T. A. Wesolowski,  K. B. Whaley,  H. L. Woodcock III,  P. M. Zimmerman,  
 S. Faraji,  P. M. W. Gill,  M. Head-Gordon,  J. M. Herbert,  A. I. Krylov

 Contributors to earlier versions of Q-Chem not listed above: 
 R. D. Adamson,  B. Austin,  R. Baer,  J. Baker,  G. J. O. Beran,  
 K. Brandhorst,  S. T. Brown,  E. F. C. Byrd,  Arup K. Chakraborty,  
 G. K. L. Chan,  Chun-Min Chang,  Yunqing Chen,  C.-L. Cheng,  
 Siu Hung Chien,  D. M. Chipman,  D. L. Crittenden,  H. Dachsel,  
 R. J. Doerksen,  A. D. Dutoi,  R. G. Edgar,  J. Fosso-Tande,  
 L. Fusti-Molnar,  D. Ghosh,  A. Ghysels,  A. Golubeva-Zadorozhnaya,  
 J. Gonthier,  M. S. Gordon,  S. R. Gwaltney,  G. Hawkins,  J. E. Herr,  
 A. Heyden,  S. Hirata,  E. G. Hohenstein,  G. Kedziora,  F. J. Keil,  
 C. Kelley,  Jihan Kim,  R. A. King,  R. Z. Khaliullin,  P. P. Korambath,  
 W. Kurlancheek,  A. Laurent,  A. M. Lee,  M. S. Lee,  S. V. Levchenko,  
 Ching Yeh Lin,  D. Liotard,  E. Livshits,  R. C. Lochan,  I. Lotan,  
 L. A. Martinez-Martinez,  P. E. Maslen,  N. Nair,  D. P. O'Neill,  
 D. Neuhauser,  E. Neuscamman,  C. M. Oana,  R. Olivares-Amaya,  R. Olson,  
 T. M. Perrine,  B. Peters,  P. A. Pieniazek,  A. Prociuk,  Y. M. Rhee,  
 J. Ritchie,  M. A. Rohrdanz,  E. Rosta,  N. J. Russ,  H. F. Schaefer III,  
 M. W. Schmidt,  N. E. Schultz,  S. Sharma,  N. Shenvi,  C. D. Sherrill,  
 A. C. Simmonett,  A. Sodt,  T. Stein,  D. Stuck,  K. S. Thanthiriwatte,  
 V. Vanovschi,  L. Vogt,  Tao Wang,  A. Warshel,  M. A. Watson,  
 C. F. Williams,  Q. Wu,  X. Xu,  Jun Yang,  W. Zhang,  Yan Zhao

   Please cite Q-Chem as follows:
  "Software for the frontiers of quantum chemistry:
   An overview of developments in the Q-Chem 5 package"
   J. Chem. Phys. 155, 084801 (2021)
   https://doi.org/10.1063/5.0055522 (open access)

 Q-Chem 6.0.2 for Intel X86 EM64T Linux

 Parts of Q-Chem use Armadillo 9.900.5 (Nocturnal Misbehaviour).
 http://arma.sourceforge.net/

 Q-Chem begins on Mon May 22 12:28:09 2023  

 Host: 
0

     Scratch files written to /local_scratch/16807766/QCLOCALSCR/save//
 Dec722 |scratch|qcdevops|jenkins|workspace|build_RNUM 9024   
 Processing $rem in /gpfs/fs2/scratch/phuo_lab/Program/Qchem/config/preferences:
 Processing $rem in /home/bweight/.qchemrc:

 Checking the input file for inconsistencies... 	...done.

--------------------------------------------------------------
User input:
--------------------------------------------------------------
$molecule
0 1
C                  0.78808821    1.24068913    0.02492945
C                  2.17658059    1.20482783    0.01961732
C                  2.84604848   -0.01987894   -0.00618268
C                  0.06874473    0.04470619    0.01965705
H                  0.27342680    2.19328085    0.03465240
H                  2.76334949    2.11354885    0.03637404
H                 -1.01469187    0.05821664    0.02642497
N                  4.30685693    0.04595834   -0.03962592
O                  4.93785288   -0.87773037   -0.59362170
O                  4.84651823    1.05363205    0.47829467
C                  0.74008238   -1.17504363    0.01238440
H                  0.18852059   -2.10639187    0.02395406
C                  2.13307197   -1.21959994   -0.00494717
Br                 2.92645518   -2.95940256    0.03206369
$end

$rem
!SCF_GUESS         read
!SKIP_CIS_RPA      TRUE
METHOD             wB97XD
RPA                TRUE
BASIS              6-311+G*
CIS_N_ROOTS        100
CIS_SINGLETS       TRUE
CIS_TRIPLETS       FALSE
MAKE_CUBE_FILES    TRUE
PLOTS              TRUE
STS_MOM            TRUE
SYM_IGNORE         TRUE
SYMMETRY           FALSE
NTO_PAIRS          1
$end

$plots
grid_points                    75 75 75
total_density                  0-100
transition_density             1-100
natural_transition_orbital     1-100
$end
































--------------------------------------------------------------
 ----------------------------------------------------------------
             Standard Nuclear Orientation (Angstroms)
    I     Atom           X                Y                Z
 ----------------------------------------------------------------
    1      C       0.7880882100     1.2406891300     0.0249294500
    2      C       2.1765805900     1.2048278300     0.0196173200
    3      C       2.8460484800    -0.0198789400    -0.0061826800
    4      C       0.0687447300     0.0447061900     0.0196570500
    5      H       0.2734268000     2.1932808500     0.0346524000
    6      H       2.7633494900     2.1135488500     0.0363740400
    7      H      -1.0146918700     0.0582166400     0.0264249700
    8      N       4.3068569300     0.0459583400    -0.0396259200
    9      O       4.9378528800    -0.8777303700    -0.5936217000
   10      O       4.8465182300     1.0536320500     0.4782946700
   11      C       0.7400823800    -1.1750436300     0.0123844000
   12      H       0.1885205900    -2.1063918700     0.0239540600
   13      C       2.1330719700    -1.2195999400    -0.0049471700
   14      Br      2.9264551800    -2.9594025600     0.0320636900
 ----------------------------------------------------------------
 Nuclear Repulsion Energy =         748.36173563 hartrees
 There are       49 alpha and       49 beta electrons
 Requested basis set is 6-311+G(d)
 There are 85 shells and 258 basis functions

 Total QAlloc Memory Limit   2000 MB
 Mega-Array Size       188 MB
 MEM_STATIC part       192 MB


                       Distance Matrix (Angstroms)
             C (  1)   C (  2)   C (  3)   C (  4)   H (  5)   H (  6)
   C (  2)  1.388966
   C (  3)  2.413545  1.395980
   C (  4)  1.395657  2.406004  2.778175
   H (  5)  1.082775  2.144588  3.393836  2.158354
   H (  6)  2.159554  1.081828  2.135454  3.397247  2.491200
   H (  7)  2.155982  3.391015  3.861668  1.083542  2.493555  4.300940
   N (  8)  3.716622  2.425812  1.462674  4.238527  4.570019  2.581302
   O (  9)  4.700091  3.512511  2.335945  4.993517  5.619850  3.751415
   O ( 10)  4.087956  2.713266  2.321427  4.904630  4.733792  2.378720
   C ( 11)  2.416242  2.779814  2.402050  1.392313  3.400570  3.861221
   H ( 12)  3.400358  3.862199  3.378890  2.154434  4.300524  4.943460
   C ( 13)  2.804086  2.424943  1.395589  2.420852  3.886850  3.392468
   Br( 14)  4.713113  4.231227  2.940872  4.146243  5.795577  5.075575
             H (  7)   N (  8)   O (  9)   O ( 10)   C ( 11)   H ( 12)
   N (  8)  5.321973
   O (  9)  6.057495  1.248306
   O ( 10)  5.962283  1.254943  2.210771
   C ( 11)  2.144845  3.770336  4.251696  4.695411
   H ( 12)  2.476541  4.647295  4.944408  5.647045  1.082480
   C ( 13)  3.397384  2.515588  2.886210  3.572660  1.393810  2.137409
   Br( 14)  4.963738  3.307997  2.961513  4.471041  2.822153  2.867748
             C ( 13)
   Br( 14)  1.912522
 
 A cutoff of  1.0D-12 yielded   3103 shell pairs
 There are     30205 function pairs (     33002 Cartesian)
 Smallest overlap matrix eigenvalue = 1.71E-06

 Scale SEOQF with 1.000000e-01/1.000000e-01/1.000000e-01

 Standard Electronic Orientation quadrupole field applied
 Nucleus-field energy     =     0.0000000593 hartrees
 Guess from superposition of atomic densities
 Warning:  Energy on first SCF cycle will be non-variational
 SAD guess density has 98.000000 electrons

 -----------------------------------------------------------------------
  General SCF calculation program by
  Eric Jon Sundstrom, Paul Horn, Yuezhi Mao, Dmitri Zuev, Alec White,
  David Stuck, Shaama M.S., Shane Yost, Joonho Lee, David Small,
  Daniel Levine, Susi Lehtola, Hugh Burton, Evgeny Epifanovsky,
  Bang C. Huynh
 -----------------------------------------------------------------------
 Exchange:     0.2220 Hartree-Fock + 1.0000 wB97X-D + LR-HF
 Correlation:  1.0000 wB97X-D
 Using SG-2 standard quadrature grid
 Dispersion:   Grimme D
 using 12 threads for integral computing
 -------------------------------------------------------
 OpenMP Integral computing Module                
 Release: version 1.0, May 2013, Q-Chem Inc. Pittsburgh 
 -------------------------------------------------------
 A restricted SCF calculation will be
 performed using DIIS
 SCF converges when DIIS error is below 1.0e-08
 ---------------------------------------
  Cycle       Energy         DIIS error
 ---------------------------------------
    1   -3012.9341299163      4.06e-02  
    2   -3010.0033087385      6.29e-03  
    3   -3009.7479138806      9.66e-03  
    4   -3010.2556782988      5.28e-04  
    5   -3010.2569609549      3.61e-04  
    6   -3010.2577818104      1.04e-04  
    7   -3010.2578284238      7.00e-05  
    8   -3010.2578613231      1.33e-05  
    9   -3010.2578635544      5.52e-06  
   10   -3010.2578639646      1.73e-06  
   11   -3010.2578640245      7.34e-07  
   12   -3010.2578640347      1.93e-07  
   13   -3010.2578640359      1.33e-07  
   14   -3010.2578640362      3.88e-08  
   15   -3010.2578640362      1.10e-08  
   16   -3010.2578640362      5.49e-09  Convergence criterion met
 ---------------------------------------
 SCF time:   CPU 255.77s  wall 23.00s 
 SCF   energy in the final basis set =    -3010.2578640362
 Total energy in the final basis set =    -3010.2578640362
 
 MAX_CIS_SUBSPACE fits in available memory
 Direct TDDFT/TDA calculation will be performed
 Exchange:     0.2220 Hartree-Fock + 1.0000 wB97X-D + LR-HF
 Correlation:  1.0000 wB97X-D
 Using SG-2 standard quadrature grid
 Dispersion:   Grimme D
 Singlet excitation energies requested
 CIS energy converged when residual is below 10e- 6
 ---------------------------------------------------
 Iter    Rts Conv    Rts Left    Ttl Dev     Max Dev
 ---------------------------------------------------
   1         0         100      0.042660    0.001778
   2         0         100      0.012243    0.000229
   3         0         100      0.010049    0.000475
   4         1          99      0.005971    0.000339
   5        17          83      0.002107    0.000116
   6        52          48      0.000539    0.000032
   7        62          38      0.000135    0.000008
   8        91           9      0.000039    0.000002
   9       100           0      0.000023    0.000001    Roots Converged
 ---------------------------------------------------
 
 ---------------------------------------------------
         TDDFT/TDA Excitation Energies              
 ---------------------------------------------------

 Excited state   1: excitation energy (eV) =    3.5369
 Total energy for state  1:                 -3010.12788569 au
    Multiplicity: Singlet
    Trans. Mom.: -0.2633 X  -0.0169 Y  -0.0089 Z
    Strength   :     0.0060402971
    D(   45) --> V(    1) amplitude = -0.2991
    D(   46) --> V(    1) amplitude = -0.4755
    D(   48) --> V(    1) amplitude =  0.7336

 Excited state   2: excitation energy (eV) =    4.1645
 Total energy for state  2:                 -3010.10482245 au
    Multiplicity: Singlet
    Trans. Mom.:  0.1417 X   0.0625 Y  -0.0482 Z
    Strength   :     0.0026839596
    D(   43) --> V(    1) amplitude = -0.3346
    D(   44) --> V(    1) amplitude = -0.3772
    D(   45) --> V(    1) amplitude =  0.6586
    D(   47) --> V(    1) amplitude =  0.4378

 Excited state   3: excitation energy (eV) =    4.4486
 Total energy for state  3:                 -3010.09438008 au
    Multiplicity: Singlet
    Trans. Mom.: -0.2804 X  -0.7097 Y   0.0237 Z
    Strength   :     0.0635236037
    D(   49) --> V(    1) amplitude =  0.9526

 Excited state   4: excitation energy (eV) =    5.1521
 Total energy for state  4:                 -3010.06852678 au
    Multiplicity: Singlet
    Trans. Mom.:  0.8972 X  -0.0033 Y  -0.0214 Z
    Strength   :     0.1016691743
    D(   43) --> V(    1) amplitude =  0.2405
    D(   45) --> V(    1) amplitude = -0.2823
    D(   47) --> V(    1) amplitude =  0.7961
    D(   49) --> V(    2) amplitude = -0.2689

 Excited state   5: excitation energy (eV) =    5.4574
 Total energy for state  5:                 -3010.05730882 au
    Multiplicity: Singlet
    Trans. Mom.: -0.4865 X  -0.3281 Y  -0.0559 Z
    Strength   :     0.0464503131
    D(   43) --> V(    1) amplitude =  0.2158
    D(   44) --> V(    1) amplitude =  0.4891
    D(   46) --> V(    1) amplitude =  0.4816
    D(   48) --> V(    1) amplitude =  0.5753

 Excited state   6: excitation energy (eV) =    5.7349
 Total energy for state  6:                 -3010.04711168 au
    Multiplicity: Singlet
    Trans. Mom.: -0.1663 X   0.0276 Y   0.0189 Z
    Strength   :     0.0040434944
    D(   49) --> V(    3) amplitude =  0.8391
    D(   49) --> V(    4) amplitude =  0.3084
    D(   49) --> V(    5) amplitude = -0.2429

 Excited state   7: excitation energy (eV) =    5.9768
 Total energy for state  7:                 -3010.03822017 au
    Multiplicity: Singlet
    Trans. Mom.: -0.6225 X   0.4316 Y  -0.0595 Z
    Strength   :     0.0845490203
    D(   43) --> V(    1) amplitude =  0.2634
    D(   47) --> V(    1) amplitude = -0.2275
    D(   47) --> V(    2) amplitude =  0.4217
    D(   48) --> V(    2) amplitude = -0.3779
    D(   49) --> V(    2) amplitude = -0.3075
    D(   49) --> V(    3) amplitude = -0.2323
    D(   49) --> V(    4) amplitude =  0.4452

 Excited state   8: excitation energy (eV) =    6.1458
 Total energy for state  8:                 -3010.03200825 au
    Multiplicity: Singlet
    Trans. Mom.:  0.0541 X   0.1112 Y   0.0533 Z
    Strength   :     0.0027298380
    D(   47) --> V(    3) amplitude =  0.4655
    D(   48) --> V(    3) amplitude =  0.6646
    D(   48) --> V(    5) amplitude = -0.2182

 Excited state   9: excitation energy (eV) =    6.2953
 Total energy for state  9:                 -3010.02651527 au
    Multiplicity: Singlet
    Trans. Mom.:  0.9675 X  -0.5091 Y   0.0270 Z
    Strength   :     0.1844555737
    D(   43) --> V(    1) amplitude =  0.2907
    D(   48) --> V(    2) amplitude = -0.2336
    D(   49) --> V(    2) amplitude =  0.7965
    D(   49) --> V(    4) amplitude =  0.2125

 Excited state  10: excitation energy (eV) =    6.4772
 Total energy for state 10:                 -3010.01983088 au
    Multiplicity: Singlet
    Trans. Mom.: -0.3638 X   0.3309 Y   0.1756 Z
    Strength   :     0.0432753395
    D(   43) --> V(    1) amplitude =  0.4777
    D(   45) --> V(    1) amplitude =  0.3014
    D(   46) --> V(    1) amplitude = -0.3747
    D(   47) --> V(    2) amplitude =  0.3044
    D(   48) --> V(    2) amplitude =  0.5884

 Excited state  11: excitation energy (eV) =    6.5611
 Total energy for state 11:                 -3010.01674887 au
    Multiplicity: Singlet
    Trans. Mom.: -0.5406 X   0.1491 Y  -0.1189 Z
    Strength   :     0.0528321094
    D(   43) --> V(    1) amplitude =  0.5079
    D(   44) --> V(    1) amplitude = -0.4210
    D(   47) --> V(    2) amplitude = -0.3455
    D(   48) --> V(    2) amplitude = -0.3159
    D(   49) --> V(    4) amplitude = -0.4693

 Excited state  12: excitation energy (eV) =    6.6883
 Total energy for state 12:                 -3010.01207179 au
    Multiplicity: Singlet
    Trans. Mom.: -0.2861 X   0.4120 Y   0.3452 Z
    Strength   :     0.0607465057
    D(   44) --> V(    1) amplitude =  0.4995
    D(   45) --> V(    1) amplitude =  0.3764
    D(   46) --> V(    1) amplitude = -0.3931
    D(   47) --> V(    2) amplitude = -0.3715
    D(   48) --> V(    2) amplitude = -0.3392

 Excited state  13: excitation energy (eV) =    6.9699
 Total energy for state 13:                 -3010.00172507 au
    Multiplicity: Singlet
    Trans. Mom.: -0.1102 X  -0.0642 Y  -0.0145 Z
    Strength   :     0.0028142683
    D(   47) --> V(    3) amplitude =  0.7021
    D(   47) --> V(    4) amplitude =  0.2740
    D(   48) --> V(    3) amplitude = -0.5330

 Excited state  14: excitation energy (eV) =    7.1024
 Total energy for state 14:                 -3009.99685672 au
    Multiplicity: Singlet
    Trans. Mom.: -0.3688 X   0.3308 Y   0.1485 Z
    Strength   :     0.0465348528
    D(   42) --> V(    1) amplitude = -0.3441
    D(   48) --> V(    3) amplitude = -0.2244
    D(   48) --> V(    4) amplitude =  0.7730

 Excited state  15: excitation energy (eV) =    7.2187
 Total energy for state 15:                 -3009.99258124 au
    Multiplicity: Singlet
    Trans. Mom.: -0.4431 X  -0.0257 Y  -0.0248 Z
    Strength   :     0.0349408546
    D(   42) --> V(    1) amplitude =  0.8709
    D(   48) --> V(    4) amplitude =  0.3089

 Excited state  16: excitation energy (eV) =    7.2675
 Total energy for state 16:                 -3009.99078951 au
    Multiplicity: Singlet
    Trans. Mom.: -0.0260 X  -0.2139 Y   0.3786 Z
    Strength   :     0.0337884682
    D(   49) --> V(    5) amplitude =  0.8244
    D(   49) --> V(    7) amplitude = -0.2699

 Excited state  17: excitation energy (eV) =    7.3290
 Total energy for state 17:                 -3009.98852989 au
    Multiplicity: Singlet
    Trans. Mom.:  0.0758 X   1.3825 Y   0.0346 Z
    Strength   :     0.3444307323
    D(   45) --> V(    2) amplitude =  0.3115
    D(   46) --> V(    2) amplitude =  0.2144
    D(   47) --> V(    2) amplitude =  0.4774
    D(   47) --> V(    4) amplitude = -0.2406
    D(   48) --> V(    2) amplitude = -0.3464
    D(   49) --> V(    4) amplitude = -0.4044

 Excited state  18: excitation energy (eV) =    7.3608
 Total energy for state 18:                 -3009.98735935 au
    Multiplicity: Singlet
    Trans. Mom.:  0.5016 X   0.1313 Y   0.0763 Z
    Strength   :     0.0495324247
    D(   43) --> V(    2) amplitude = -0.2356
    D(   44) --> V(    2) amplitude =  0.2334
    D(   46) --> V(    2) amplitude =  0.2447
    D(   47) --> V(    3) amplitude = -0.2470
    D(   47) --> V(    4) amplitude =  0.6949

 Excited state  19: excitation energy (eV) =    7.6102
 Total energy for state 19:                 -3009.97819458 au
    Multiplicity: Singlet
    Trans. Mom.: -0.2599 X  -0.3544 Y  -0.0349 Z
    Strength   :     0.0362423434
    D(   44) --> V(    3) amplitude = -0.2805
    D(   46) --> V(    2) amplitude =  0.7251
    D(   46) --> V(    3) amplitude = -0.2833

 Excited state  20: excitation energy (eV) =    7.6916
 Total energy for state 20:                 -3009.97520223 au
    Multiplicity: Singlet
    Trans. Mom.: -0.1681 X  -0.6071 Y   0.0779 Z
    Strength   :     0.0759147956
    D(   43) --> V(    3) amplitude = -0.3245
    D(   44) --> V(    3) amplitude =  0.3739
    D(   45) --> V(    2) amplitude =  0.2169
    D(   46) --> V(    2) amplitude =  0.4185
    D(   46) --> V(    3) amplitude =  0.3654
    D(   49) --> V(    6) amplitude = -0.2154

 Excited state  21: excitation energy (eV) =    7.7172
 Total energy for state 21:                 -3009.97426390 au
    Multiplicity: Singlet
    Trans. Mom.:  0.1609 X  -0.4444 Y   0.0286 Z
    Strength   :     0.0423883599
    D(   41) --> V(    1) amplitude =  0.4420
    D(   45) --> V(    2) amplitude =  0.5197
    D(   45) --> V(    3) amplitude = -0.2224
    D(   45) --> V(    4) amplitude =  0.4589

 Excited state  22: excitation energy (eV) =    7.7801
 Total energy for state 22:                 -3009.97194951 au
    Multiplicity: Singlet
    Trans. Mom.:  0.4409 X  -0.2742 Y   0.0236 Z
    Strength   :     0.0514916545
    D(   41) --> V(    1) amplitude = -0.3439
    D(   43) --> V(    2) amplitude = -0.3039
    D(   45) --> V(    2) amplitude =  0.6635
    D(   45) --> V(    4) amplitude = -0.2681
    D(   46) --> V(    2) amplitude = -0.3015
    D(   47) --> V(    4) amplitude =  0.2365

 Excited state  23: excitation energy (eV) =    7.8306
 Total energy for state 23:                 -3009.97009559 au
    Multiplicity: Singlet
    Trans. Mom.:  0.1390 X   0.0990 Y   0.1659 Z
    Strength   :     0.0108696642
    D(   46) --> V(    3) amplitude =  0.2462
    D(   48) --> V(    5) amplitude =  0.6243
    D(   48) --> V(    7) amplitude = -0.2359
    D(   49) --> V(    6) amplitude =  0.4232

 Excited state  24: excitation energy (eV) =    7.9008
 Total energy for state 24:                 -3009.96751624 au
    Multiplicity: Singlet
    Trans. Mom.: -0.3112 X  -0.6783 Y  -0.2324 Z
    Strength   :     0.1182631976
    D(   43) --> V(    2) amplitude = -0.2490
    D(   46) --> V(    3) amplitude =  0.2560
    D(   46) --> V(    4) amplitude = -0.3524
    D(   47) --> V(    5) amplitude =  0.3499
    D(   48) --> V(    5) amplitude = -0.3442
    D(   49) --> V(    6) amplitude =  0.3807

 Excited state  25: excitation energy (eV) =    7.9107
 Total energy for state 25:                 -3009.96715068 au
    Multiplicity: Singlet
    Trans. Mom.:  0.2335 X   0.4739 Y   0.0902 Z
    Strength   :     0.0556709565
    D(   46) --> V(    4) amplitude =  0.5274
    D(   49) --> V(    6) amplitude =  0.4617

 Excited state  26: excitation energy (eV) =    7.9351
 Total energy for state 26:                 -3009.96625431 au
    Multiplicity: Singlet
    Trans. Mom.:  0.3267 X   0.5583 Y  -0.1677 Z
    Strength   :     0.0868211340
    D(   44) --> V(    2) amplitude =  0.3122
    D(   47) --> V(    5) amplitude =  0.6653
    D(   48) --> V(    6) amplitude = -0.2526
    D(   48) --> V(    7) amplitude = -0.2599

 Excited state  27: excitation energy (eV) =    7.9865
 Total energy for state 27:                 -3009.96436615 au
    Multiplicity: Singlet
    Trans. Mom.: -0.0367 X   0.0644 Y   0.0761 Z
    Strength   :     0.0022073129
    D(   41) --> V(    1) amplitude =  0.5994
    D(   44) --> V(    2) amplitude =  0.3798
    D(   45) --> V(    4) amplitude = -0.4222
    D(   46) --> V(    4) amplitude =  0.2878

 Excited state  28: excitation energy (eV) =    8.0045
 Total energy for state 28:                 -3009.96370576 au
    Multiplicity: Singlet
    Trans. Mom.: -0.3963 X  -0.3353 Y  -0.0780 Z
    Strength   :     0.0540444443
    D(   41) --> V(    1) amplitude = -0.2389
    D(   43) --> V(    2) amplitude =  0.3578
    D(   44) --> V(    2) amplitude =  0.6524

 Excited state  29: excitation energy (eV) =    8.1233
 Total energy for state 29:                 -3009.95933741 au
    Multiplicity: Singlet
    Trans. Mom.: -0.1166 X  -0.0908 Y  -0.1470 Z
    Strength   :     0.0086459925
    D(   46) --> V(    3) amplitude =  0.2580
    D(   49) --> V(    5) amplitude =  0.2154
    D(   49) --> V(    6) amplitude = -0.2792
    D(   49) --> V(    7) amplitude =  0.6104
    D(   49) --> V(    8) amplitude =  0.4396

 Excited state  30: excitation energy (eV) =    8.1803
 Total energy for state 30:                 -3009.95724190 au
    Multiplicity: Singlet
    Trans. Mom.: -0.3068 X   0.0680 Y   0.1145 Z
    Strength   :     0.0224132307
    D(   43) --> V(    3) amplitude =  0.5064
    D(   45) --> V(    3) amplitude =  0.2817
    D(   46) --> V(    3) amplitude =  0.2682
    D(   46) --> V(    4) amplitude =  0.2539
    D(   49) --> V(    7) amplitude = -0.3625

 Excited state  31: excitation energy (eV) =    8.2543
 Total energy for state 31:                 -3009.95452442 au
    Multiplicity: Singlet
    Trans. Mom.:  1.1248 X  -0.6200 Y  -0.1812 Z
    Strength   :     0.3402384664
    D(   42) --> V(    2) amplitude =  0.5831
    D(   43) --> V(    2) amplitude =  0.4410
    D(   44) --> V(    2) amplitude = -0.2903

 Excited state  32: excitation energy (eV) =    8.3019
 Total energy for state 32:                 -3009.95277562 au
    Multiplicity: Singlet
    Trans. Mom.: -0.8517 X   0.4753 Y  -0.0916 Z
    Strength   :     0.1952130726
    D(   42) --> V(    2) amplitude =  0.6930
    D(   43) --> V(    2) amplitude = -0.4185
    D(   46) --> V(    3) amplitude = -0.2388

 Excited state  33: excitation energy (eV) =    8.3228
 Total energy for state 33:                 -3009.95200600 au
    Multiplicity: Singlet
    Trans. Mom.:  0.2102 X  -0.0898 Y   0.0408 Z
    Strength   :     0.0109951600
    D(   44) --> V(    3) amplitude =  0.4728
    D(   45) --> V(    3) amplitude =  0.5193
    D(   46) --> V(    3) amplitude = -0.4032

 Excited state  34: excitation energy (eV) =    8.4574
 Total energy for state 34:                 -3009.94705903 au
    Multiplicity: Singlet
    Trans. Mom.: -0.2500 X  -0.1163 Y  -0.1400 Z
    Strength   :     0.0198185135
    D(   44) --> V(    4) amplitude =  0.6282
    D(   47) --> V(    7) amplitude =  0.2718
    D(   48) --> V(    7) amplitude = -0.3584

 Excited state  35: excitation energy (eV) =    8.4690
 Total energy for state 35:                 -3009.94663446 au
    Multiplicity: Singlet
    Trans. Mom.:  0.4863 X   0.0124 Y   0.2371 Z
    Strength   :     0.0607668880
    D(   43) --> V(    4) amplitude = -0.2189
    D(   47) --> V(    7) amplitude = -0.2278
    D(   49) --> V(    8) amplitude =  0.4821
    D(   49) --> V(    9) amplitude =  0.3690

 Excited state  36: excitation energy (eV) =    8.5033
 Total energy for state 36:                 -3009.94537514 au
    Multiplicity: Singlet
    Trans. Mom.: -0.2638 X   0.0021 Y   0.2261 Z
    Strength   :     0.0251513204
    D(   40) --> V(    1) amplitude =  0.2664
    D(   44) --> V(    4) amplitude = -0.2775
    D(   49) --> V(    7) amplitude = -0.2624
    D(   49) --> V(    8) amplitude =  0.4489
    D(   49) --> V(    9) amplitude = -0.4103
    D(   49) --> V(   10) amplitude =  0.2565
    D(   49) --> V(   11) amplitude =  0.2213

 Excited state  37: excitation energy (eV) =    8.5143
 Total energy for state 37:                 -3009.94496906 au
    Multiplicity: Singlet
    Trans. Mom.:  0.0869 X  -0.0000 Y   0.1120 Z
    Strength   :     0.0041926445
    D(   43) --> V(    3) amplitude =  0.2982
    D(   43) --> V(    4) amplitude = -0.3001
    D(   44) --> V(    3) amplitude =  0.2514
    D(   44) --> V(    4) amplitude = -0.3391
    D(   45) --> V(    4) amplitude = -0.2580
    D(   47) --> V(    7) amplitude =  0.2722
    D(   48) --> V(    7) amplitude = -0.2311
    D(   49) --> V(    9) amplitude =  0.4098

 Excited state  38: excitation energy (eV) =    8.5968
 Total energy for state 38:                 -3009.94193612 au
    Multiplicity: Singlet
    Trans. Mom.: -0.1631 X  -0.3686 Y   0.0437 Z
    Strength   :     0.0346300733
    D(   40) --> V(    1) amplitude =  0.4042
    D(   44) --> V(    3) amplitude =  0.2634
    D(   45) --> V(    3) amplitude = -0.2848
    D(   47) --> V(    6) amplitude = -0.2662
    D(   47) --> V(    7) amplitude = -0.2680
    D(   48) --> V(    7) amplitude =  0.2528

 Excited state  39: excitation energy (eV) =    8.6483
 Total energy for state 39:                 -3009.94004615 au
    Multiplicity: Singlet
    Trans. Mom.: -0.0109 X  -0.1131 Y  -0.0672 Z
    Strength   :     0.0036933163
    D(   40) --> V(    1) amplitude =  0.6376
    D(   43) --> V(    3) amplitude = -0.2298
    D(   45) --> V(    3) amplitude =  0.2178
    D(   49) --> V(    9) amplitude =  0.4038

 Excited state  40: excitation energy (eV) =    8.6710
 Total energy for state 40:                 -3009.93921231 au
    Multiplicity: Singlet
    Trans. Mom.: -0.0848 X  -0.3497 Y   0.0986 Z
    Strength   :     0.0295765010
    D(   45) --> V(    3) amplitude = -0.2845
    D(   47) --> V(    6) amplitude =  0.6074
    D(   48) --> V(    6) amplitude = -0.5105

 Excited state  41: excitation energy (eV) =    8.7587
 Total energy for state 41:                 -3009.93598603 au
    Multiplicity: Singlet
    Trans. Mom.: -0.1734 X  -0.5829 Y   0.0584 Z
    Strength   :     0.0801030710
    D(   39) --> V(    1) amplitude = -0.2616
    D(   40) --> V(    1) amplitude = -0.2330
    D(   41) --> V(    2) amplitude =  0.6342
    D(   42) --> V(    4) amplitude =  0.2349
    D(   43) --> V(    4) amplitude =  0.3325

 Excited state  42: excitation energy (eV) =    8.7733
 Total energy for state 42:                 -3009.93545016 au
    Multiplicity: Singlet
    Trans. Mom.:  0.2423 X   0.4480 Y  -0.1046 Z
    Strength   :     0.0581212557
    D(   40) --> V(    1) amplitude =  0.2187
    D(   41) --> V(    2) amplitude =  0.5226
    D(   43) --> V(    4) amplitude = -0.3181
    D(   44) --> V(    4) amplitude =  0.2196
    D(   47) --> V(    7) amplitude =  0.2483
    D(   47) --> V(    8) amplitude =  0.2385

 Excited state  43: excitation energy (eV) =    8.8043
 Total energy for state 43:                 -3009.93431226 au
    Multiplicity: Singlet
    Trans. Mom.: -0.0674 X  -0.6698 Y  -0.0991 Z
    Strength   :     0.0998809060
    D(   40) --> V(    1) amplitude = -0.3171
    D(   43) --> V(    4) amplitude =  0.4366
    D(   47) --> V(    7) amplitude =  0.3646
    D(   47) --> V(    8) amplitude =  0.2796
    D(   48) --> V(    8) amplitude =  0.3155

 Excited state  44: excitation energy (eV) =    8.8935
 Total energy for state 44:                 -3009.93103347 au
    Multiplicity: Singlet
    Trans. Mom.:  0.0310 X   0.0333 Y   0.2304 Z
    Strength   :     0.0120135615
    D(   46) --> V(    7) amplitude = -0.2527
    D(   49) --> V(    7) amplitude =  0.2589
    D(   49) --> V(    8) amplitude = -0.2501
    D(   49) --> V(    9) amplitude =  0.2463
    D(   49) --> V(   10) amplitude =  0.5899
    D(   49) --> V(   11) amplitude =  0.2866

 Excited state  45: excitation energy (eV) =    8.9237
 Total energy for state 45:                 -3009.92992555 au
    Multiplicity: Singlet
    Trans. Mom.: -0.0367 X   0.3780 Y   0.1169 Z
    Strength   :     0.0345208972
    D(   46) --> V(    5) amplitude = -0.4744
    D(   46) --> V(    7) amplitude =  0.5110
    D(   46) --> V(    8) amplitude =  0.2984
    D(   49) --> V(   10) amplitude =  0.3076

 Excited state  46: excitation energy (eV) =    9.0104
 Total energy for state 46:                 -3009.92673620 au
    Multiplicity: Singlet
    Trans. Mom.:  0.0436 X   0.3331 Y   0.0332 Z
    Strength   :     0.0251576206
    D(   39) --> V(    1) amplitude = -0.5111
    D(   41) --> V(    2) amplitude = -0.3628
    D(   42) --> V(    3) amplitude = -0.2713
    D(   42) --> V(    4) amplitude =  0.5265

 Excited state  47: excitation energy (eV) =    9.0414
 Total energy for state 47:                 -3009.92560028 au
    Multiplicity: Singlet
    Trans. Mom.:  0.3293 X  -0.0721 Y  -0.0395 Z
    Strength   :     0.0255193941
    D(   45) --> V(    5) amplitude =  0.2654
    D(   45) --> V(    7) amplitude = -0.3301
    D(   48) --> V(    5) amplitude = -0.2555
    D(   48) --> V(    9) amplitude =  0.4982

 Excited state  48: excitation energy (eV) =    9.0521
 Total energy for state 48:                 -3009.92520559 au
    Multiplicity: Singlet
    Trans. Mom.:  0.1530 X   0.2813 Y   0.0440 Z
    Strength   :     0.0231640599
    D(   45) --> V(    5) amplitude = -0.3103
    D(   45) --> V(    7) amplitude =  0.3106
    D(   45) --> V(    8) amplitude =  0.2165
    D(   48) --> V(    8) amplitude =  0.3638
    D(   48) --> V(    9) amplitude =  0.2895
    D(   48) --> V(   11) amplitude =  0.3772

 Excited state  49: excitation energy (eV) =    9.1051
 Total energy for state 49:                 -3009.92325750 au
    Multiplicity: Singlet
    Trans. Mom.: -0.0630 X  -0.0186 Y  -0.0923 Z
    Strength   :     0.0028641121
    D(   48) --> V(    9) amplitude =  0.2803
    D(   48) --> V(   10) amplitude = -0.2456
    D(   49) --> V(   10) amplitude = -0.3267
    D(   49) --> V(   11) amplitude =  0.5751
    D(   49) --> V(   13) amplitude =  0.2367

 Excited state  50: excitation energy (eV) =    9.1491
 Total energy for state 50:                 -3009.92164164 au
    Multiplicity: Singlet
    Trans. Mom.:  0.2029 X   0.0917 Y   0.0194 Z
    Strength   :     0.0111946278
    D(   47) --> V(   10) amplitude =  0.2247
    D(   48) --> V(    9) amplitude = -0.3370
    D(   48) --> V(   10) amplitude =  0.3135
    D(   48) --> V(   11) amplitude =  0.2919
    D(   49) --> V(   11) amplitude =  0.4418

 Excited state  51: excitation energy (eV) =    9.2373
 Total energy for state 51:                 -3009.91840092 au
    Multiplicity: Singlet
    Trans. Mom.: -0.3213 X  -0.2694 Y  -0.0266 Z
    Strength   :     0.0399458858
    D(   47) --> V(    9) amplitude =  0.6373
    D(   47) --> V(   12) amplitude =  0.2170
    D(   48) --> V(    9) amplitude = -0.3634
    D(   48) --> V(   12) amplitude = -0.2479
    D(   49) --> V(   12) amplitude =  0.2928

 Excited state  52: excitation energy (eV) =    9.2624
 Total energy for state 52:                 -3009.91747729 au
    Multiplicity: Singlet
    Trans. Mom.: -0.0868 X   0.2282 Y   0.0860 Z
    Strength   :     0.0152097120
    D(   45) --> V(    5) amplitude = -0.2533
    D(   45) --> V(    7) amplitude =  0.3375
    D(   47) --> V(    7) amplitude = -0.2746
    D(   47) --> V(    8) amplitude =  0.3816
    D(   48) --> V(    8) amplitude = -0.3639
    D(   48) --> V(   10) amplitude =  0.2894

 Excited state  53: excitation energy (eV) =    9.3026
 Total energy for state 53:                 -3009.91600151 au
    Multiplicity: Singlet
    Trans. Mom.:  0.1075 X  -0.0205 Y   0.0125 Z
    Strength   :     0.0027642317
    D(   47) --> V(    8) amplitude =  0.2277
    D(   47) --> V(    9) amplitude = -0.2582
    D(   49) --> V(   12) amplitude =  0.6502

 Excited state  54: excitation energy (eV) =    9.3285
 Total energy for state 54:                 -3009.91504964 au
    Multiplicity: Singlet
    Trans. Mom.:  0.2054 X   0.1116 Y  -0.0132 Z
    Strength   :     0.0125263851
    D(   37) --> V(    1) amplitude =  0.4849
    D(   39) --> V(    1) amplitude =  0.5994
    D(   42) --> V(    4) amplitude =  0.3573

 Excited state  55: excitation energy (eV) =    9.3368
 Total energy for state 55:                 -3009.91474255 au
    Multiplicity: Singlet
    Trans. Mom.:  0.0150 X   0.1167 Y  -0.0265 Z
    Strength   :     0.0033295555
    D(   44) --> V(    5) amplitude =  0.2562
    D(   44) --> V(    7) amplitude = -0.2380
    D(   47) --> V(    8) amplitude = -0.3171
    D(   47) --> V(   10) amplitude =  0.2472
    D(   48) --> V(   11) amplitude = -0.2859
    D(   49) --> V(   12) amplitude =  0.4500

 Excited state  56: excitation energy (eV) =    9.4442
 Total energy for state 56:                 -3009.91079624 au
    Multiplicity: Singlet
    Trans. Mom.:  0.0644 X  -0.1914 Y   0.0971 Z
    Strength   :     0.0116145346
    D(   44) --> V(    5) amplitude =  0.3222
    D(   44) --> V(    7) amplitude = -0.2819
    D(   44) --> V(    8) amplitude = -0.2429
    D(   47) --> V(    6) amplitude =  0.2627
    D(   48) --> V(    6) amplitude =  0.3665
    D(   49) --> V(   15) amplitude = -0.3098

 Excited state  57: excitation energy (eV) =    9.4918
 Total energy for state 57:                 -3009.90904730 au
    Multiplicity: Singlet
    Trans. Mom.: -0.0093 X  -0.0992 Y   0.0501 Z
    Strength   :     0.0028904515
    D(   43) --> V(    5) amplitude =  0.3059
    D(   43) --> V(    7) amplitude = -0.2244
    D(   43) --> V(    8) amplitude = -0.2636
    D(   48) --> V(    6) amplitude =  0.2356
    D(   49) --> V(   13) amplitude = -0.2617
    D(   49) --> V(   15) amplitude =  0.3039

 Excited state  58: excitation energy (eV) =    9.5425
 Total energy for state 58:                 -3009.90718504 au
    Multiplicity: Singlet
    Trans. Mom.:  0.0850 X   0.2037 Y  -0.1064 Z
    Strength   :     0.0140413842
    D(   47) --> V(    8) amplitude =  0.2622
    D(   47) --> V(   10) amplitude =  0.3075
    D(   48) --> V(   10) amplitude = -0.3490
    D(   48) --> V(   13) amplitude = -0.2402
    D(   49) --> V(   13) amplitude =  0.4098

 Excited state  59: excitation energy (eV) =    9.6262
 Total energy for state 59:                 -3009.90410690 au
    Multiplicity: Singlet
    Trans. Mom.:  0.0089 X  -0.2083 Y  -0.1160 Z
    Strength   :     0.0134233352
    D(   43) --> V(    5) amplitude =  0.2908
    D(   48) --> V(   10) amplitude =  0.2568
    D(   49) --> V(   13) amplitude =  0.5640
    D(   49) --> V(   14) amplitude =  0.2340

 Excited state  60: excitation energy (eV) =    9.6657
 Total energy for state 60:                 -3009.90265513 au
    Multiplicity: Singlet
    Trans. Mom.: -0.0052 X  -0.2362 Y  -0.1101 Z
    Strength   :     0.0160833501
    D(   43) --> V(    5) amplitude =  0.2174
    D(   47) --> V(   10) amplitude =  0.2817
    D(   48) --> V(    8) amplitude = -0.3040
    D(   48) --> V(   11) amplitude =  0.3362
    D(   48) --> V(   13) amplitude =  0.2683
    D(   49) --> V(   15) amplitude = -0.2512

 Excited state  61: excitation energy (eV) =    9.7102
 Total energy for state 61:                 -3009.90101955 au
    Multiplicity: Singlet
    Trans. Mom.: -0.0529 X   0.1805 Y   0.1638 Z
    Strength   :     0.0147997932
    D(   36) --> V(    1) amplitude =  0.2495
    D(   41) --> V(    3) amplitude = -0.2908
    D(   41) --> V(    4) amplitude =  0.6728

 Excited state  62: excitation energy (eV) =    9.7416
 Total energy for state 62:                 -3009.89986631 au
    Multiplicity: Singlet
    Trans. Mom.:  0.0036 X  -0.0574 Y   0.0727 Z
    Strength   :     0.0020522902
    D(   40) --> V(    2) amplitude =  0.2250
    D(   43) --> V(    5) amplitude = -0.2371
    D(   48) --> V(   11) amplitude =  0.2581
    D(   49) --> V(   14) amplitude =  0.4372
    D(   49) --> V(   15) amplitude =  0.2940
    D(   49) --> V(   16) amplitude =  0.2764

 Excited state  63: excitation energy (eV) =    9.7528
 Total energy for state 63:                 -3009.89945560 au
    Multiplicity: Singlet
    Trans. Mom.: -0.0806 X  -0.0942 Y   0.0941 Z
    Strength   :     0.0057842714
    D(   40) --> V(    2) amplitude = -0.2296
    D(   49) --> V(   13) amplitude =  0.3219
    D(   49) --> V(   14) amplitude = -0.4785
    D(   49) --> V(   15) amplitude =  0.4999

 Excited state  64: excitation energy (eV) =    9.7781
 Total energy for state 64:                 -3009.89852540 au
    Multiplicity: Singlet
    Trans. Mom.: -0.3058 X   0.3238 Y  -0.0917 Z
    Strength   :     0.0495381001
    D(   40) --> V(    2) amplitude =  0.3019
    D(   41) --> V(    4) amplitude = -0.2414
    D(   42) --> V(    3) amplitude = -0.3330
    D(   46) --> V(    6) amplitude =  0.3787
    D(   46) --> V(   10) amplitude = -0.2245
    D(   49) --> V(   14) amplitude = -0.2759

 Excited state  65: excitation energy (eV) =    9.8131
 Total energy for state 65:                 -3009.89724030 au
    Multiplicity: Singlet
    Trans. Mom.: -0.0021 X   0.1286 Y  -0.0012 Z
    Strength   :     0.0039788631
    D(   35) --> V(    1) amplitude = -0.3547
    D(   36) --> V(    1) amplitude = -0.2301
    D(   37) --> V(    1) amplitude = -0.5318
    D(   38) --> V(    1) amplitude =  0.2421
    D(   39) --> V(    1) amplitude =  0.2776
    D(   42) --> V(    3) amplitude = -0.2431
    D(   42) --> V(    4) amplitude =  0.4060

 Excited state  66: excitation energy (eV) =    9.8287
 Total energy for state 66:                 -3009.89666774 au
    Multiplicity: Singlet
    Trans. Mom.:  0.3525 X  -0.3918 Y   0.0181 Z
    Strength   :     0.0669617264
    D(   40) --> V(    2) amplitude = -0.4432
    D(   42) --> V(    3) amplitude =  0.2576
    D(   42) --> V(    4) amplitude =  0.2335
    D(   46) --> V(    6) amplitude =  0.3583
    D(   46) --> V(   10) amplitude = -0.2218
    D(   49) --> V(   14) amplitude =  0.2250

 Excited state  67: excitation energy (eV) =    9.8683
 Total energy for state 67:                 -3009.89520907 au
    Multiplicity: Singlet
    Trans. Mom.: -0.1060 X   0.1210 Y   0.0820 Z
    Strength   :     0.0078862672
    D(   45) --> V(    5) amplitude = -0.2781
    D(   47) --> V(   10) amplitude =  0.2488
    D(   47) --> V(   11) amplitude =  0.3972
    D(   47) --> V(   15) amplitude = -0.2123
    D(   48) --> V(   15) amplitude =  0.2697

 Excited state  68: excitation energy (eV) =    9.8960
 Total energy for state 68:                 -3009.89419374 au
    Multiplicity: Singlet
    Trans. Mom.:  0.0119 X  -0.0671 Y  -0.0948 Z
    Strength   :     0.0033025530
    D(   38) --> V(    1) amplitude = -0.3194
    D(   45) --> V(    6) amplitude =  0.4935
    D(   45) --> V(    8) amplitude =  0.2540
    D(   45) --> V(   10) amplitude = -0.3150
    D(   46) --> V(    6) amplitude = -0.2474
    D(   47) --> V(   10) amplitude =  0.2182

 Excited state  69: excitation energy (eV) =    9.9304
 Total energy for state 69:                 -3009.89292950 au
    Multiplicity: Singlet
    Trans. Mom.: -0.0773 X   0.3035 Y   0.0237 Z
    Strength   :     0.0239975448
    D(   38) --> V(    1) amplitude =  0.7258
    D(   39) --> V(    2) amplitude = -0.2495
    D(   45) --> V(    6) amplitude =  0.2356

 Excited state  70: excitation energy (eV) =    9.9626
 Total energy for state 70:                 -3009.89174376 au
    Multiplicity: Singlet
    Trans. Mom.:  0.0932 X  -0.2766 Y  -0.0881 Z
    Strength   :     0.0226900185
    D(   40) --> V(    2) amplitude =  0.3749
    D(   41) --> V(    3) amplitude =  0.2370
    D(   42) --> V(    3) amplitude =  0.4962
    D(   42) --> V(    4) amplitude =  0.2547

 Excited state  71: excitation energy (eV) =   10.0061
 Total energy for state 71:                 -3009.89014636 au
    Multiplicity: Singlet
    Trans. Mom.:  0.1006 X  -0.1187 Y   0.1681 Z
    Strength   :     0.0128593949
    D(   40) --> V(    2) amplitude =  0.2148
    D(   47) --> V(   10) amplitude = -0.2469
    D(   47) --> V(   11) amplitude =  0.3045
    D(   48) --> V(   10) amplitude = -0.2301

 Excited state  72: excitation energy (eV) =   10.0298
 Total energy for state 72:                 -3009.88927710 au
    Multiplicity: Singlet
    Trans. Mom.:  0.0713 X  -0.0567 Y   0.1434 Z
    Strength   :     0.0070888336
    D(   45) --> V(    9) amplitude = -0.2705
    D(   47) --> V(   14) amplitude = -0.2565
    D(   48) --> V(   12) amplitude =  0.2271
    D(   48) --> V(   14) amplitude =  0.4148
    D(   48) --> V(   17) amplitude =  0.2169

 Excited state  73: excitation energy (eV) =   10.0888
 Total energy for state 73:                 -3009.88710778 au
    Multiplicity: Singlet
    Trans. Mom.: -0.0138 X  -0.0530 Y  -0.0012 Z
    Strength   :     0.0007406097
    D(   39) --> V(    2) amplitude = -0.4260
    D(   46) --> V(    5) amplitude =  0.2491
    D(   47) --> V(   12) amplitude = -0.3006
    D(   48) --> V(   12) amplitude =  0.2257
    D(   49) --> V(   15) amplitude = -0.2254
    D(   49) --> V(   16) amplitude =  0.3558

 Excited state  74: excitation energy (eV) =   10.0904
 Total energy for state 74:                 -3009.88704731 au
    Multiplicity: Singlet
    Trans. Mom.:  0.1674 X  -0.0094 Y  -0.0395 Z
    Strength   :     0.0073324313
    D(   39) --> V(    2) amplitude = -0.4733
    D(   47) --> V(    9) amplitude = -0.2292
    D(   47) --> V(   12) amplitude =  0.3502
    D(   48) --> V(   12) amplitude = -0.3097
    D(   49) --> V(   14) amplitude = -0.2234

 Excited state  75: excitation energy (eV) =   10.1145
 Total energy for state 75:                 -3009.88616157 au
    Multiplicity: Singlet
    Trans. Mom.: -0.1076 X  -0.0583 Y   0.0622 Z
    Strength   :     0.0046741666
    D(   39) --> V(    2) amplitude = -0.4990
    D(   46) --> V(    5) amplitude = -0.2306
    D(   49) --> V(   14) amplitude =  0.2767
    D(   49) --> V(   16) amplitude = -0.2710

 Excited state  76: excitation energy (eV) =   10.1425
 Total energy for state 76:                 -3009.88513361 au
    Multiplicity: Singlet
    Trans. Mom.: -0.0932 X   0.1573 Y   0.1670 Z
    Strength   :     0.0152318947
    D(   46) --> V(    5) amplitude =  0.3924
    D(   46) --> V(    7) amplitude =  0.2390
    D(   47) --> V(   12) amplitude =  0.2795
    D(   49) --> V(   17) amplitude = -0.3819

 Excited state  77: excitation energy (eV) =   10.1676
 Total energy for state 77:                 -3009.88421040 au
    Multiplicity: Singlet
    Trans. Mom.: -0.0581 X  -0.0277 Y  -0.0086 Z
    Strength   :     0.0010508468
    D(   46) --> V(   11) amplitude =  0.3637
    D(   47) --> V(   14) amplitude = -0.2489
    D(   49) --> V(   16) amplitude =  0.3427
    D(   49) --> V(   17) amplitude = -0.3491

 Excited state  78: excitation energy (eV) =   10.2131
 Total energy for state 78:                 -3009.88253855 au
    Multiplicity: Singlet
    Trans. Mom.: -0.1505 X   0.1962 Y   0.0272 Z
    Strength   :     0.0154848242
    D(   49) --> V(   17) amplitude =  0.5637

 Excited state  79: excitation energy (eV) =   10.2433
 Total energy for state 79:                 -3009.88143068 au
    Multiplicity: Singlet
    Trans. Mom.: -0.0533 X  -0.0163 Y   0.1640 Z
    Strength   :     0.0075280542
    D(   45) --> V(    5) amplitude =  0.2139
    D(   45) --> V(   11) amplitude = -0.2142
    D(   47) --> V(   12) amplitude =  0.2193
    D(   47) --> V(   14) amplitude =  0.3080
    D(   48) --> V(   12) amplitude =  0.3473

 Excited state  80: excitation energy (eV) =   10.2885
 Total energy for state 80:                 -3009.87976761 au
    Multiplicity: Singlet
    Trans. Mom.: -0.1825 X   0.0884 Y   0.1847 Z
    Strength   :     0.0189669058
    D(   45) --> V(    5) amplitude =  0.3087
    D(   45) --> V(    7) amplitude =  0.2416
    D(   46) --> V(    5) amplitude = -0.2213
    D(   46) --> V(    8) amplitude = -0.2623
    D(   46) --> V(   11) amplitude = -0.2588
    D(   48) --> V(   12) amplitude = -0.2624

 Excited state  81: excitation energy (eV) =   10.3276
 Total energy for state 81:                 -3009.87833048 au
    Multiplicity: Singlet
    Trans. Mom.:  0.2100 X  -0.0822 Y   0.1874 Z
    Strength   :     0.0217493625
    D(   40) --> V(    3) amplitude =  0.2892
    D(   43) --> V(    6) amplitude =  0.3441
    D(   44) --> V(    6) amplitude = -0.2831
    D(   49) --> V(   16) amplitude =  0.2328

 Excited state  82: excitation energy (eV) =   10.3569
 Total energy for state 82:                 -3009.87725474 au
    Multiplicity: Singlet
    Trans. Mom.:  0.0611 X   0.0114 Y   0.2746 Z
    Strength   :     0.0201085569
    D(   45) --> V(   11) amplitude = -0.2620
    D(   46) --> V(    9) amplitude =  0.3227
    D(   48) --> V(   13) amplitude =  0.2787

 Excited state  83: excitation energy (eV) =   10.3660
 Total energy for state 83:                 -3009.87691946 au
    Multiplicity: Singlet
    Trans. Mom.:  0.0810 X  -0.0737 Y  -0.1438 Z
    Strength   :     0.0082945565
    D(   43) --> V(    6) amplitude = -0.2125
    D(   43) --> V(    7) amplitude =  0.2140
    D(   44) --> V(    5) amplitude = -0.2662
    D(   46) --> V(    9) amplitude =  0.3102

 Excited state  84: excitation energy (eV) =   10.3897
 Total energy for state 84:                 -3009.87605060 au
    Multiplicity: Singlet
    Trans. Mom.: -0.0555 X   0.0991 Y  -0.2964 Z
    Strength   :     0.0256484339
    D(   41) --> V(    3) amplitude =  0.4542

 Excited state  85: excitation energy (eV) =   10.4048
 Total energy for state 85:                 -3009.87549460 au
    Multiplicity: Singlet
    Trans. Mom.: -0.2280 X  -0.1813 Y   0.1417 Z
    Strength   :     0.0267502734
    D(   45) --> V(    6) amplitude =  0.2409
    D(   48) --> V(   15) amplitude =  0.3289

 Excited state  86: excitation energy (eV) =   10.4164
 Total energy for state 86:                 -3009.87506899 au
    Multiplicity: Singlet
    Trans. Mom.: -0.1084 X   0.2880 Y   0.0676 Z
    Strength   :     0.0253353554
    D(   35) --> V(    1) amplitude = -0.2167
    D(   46) --> V(    9) amplitude =  0.3285
    D(   46) --> V(   10) amplitude = -0.2626
    D(   46) --> V(   14) amplitude =  0.2150
    D(   47) --> V(   13) amplitude = -0.2419

 Excited state  87: excitation energy (eV) =   10.4565
 Total energy for state 87:                 -3009.87359503 au
    Multiplicity: Singlet
    Trans. Mom.: -0.0534 X   0.2830 Y   0.1681 Z
    Strength   :     0.0284821966
    D(   49) --> V(   18) amplitude =  0.5312
    D(   49) --> V(   21) amplitude = -0.4552
    D(   49) --> V(   25) amplitude = -0.2671

 Excited state  88: excitation energy (eV) =   10.4730
 Total energy for state 88:                 -3009.87298813 au
    Multiplicity: Singlet
    Trans. Mom.: -0.0630 X   0.0803 Y   0.0945 Z
    Strength   :     0.0049654324
    D(   35) --> V(    1) amplitude = -0.3651
    D(   37) --> V(    1) amplitude =  0.2563
    D(   47) --> V(   14) amplitude =  0.2802
    D(   48) --> V(   14) amplitude =  0.2272
    D(   48) --> V(   15) amplitude = -0.2239

 Excited state  89: excitation energy (eV) =   10.4980
 Total energy for state 89:                 -3009.87206845 au
    Multiplicity: Singlet
    Trans. Mom.:  0.1093 X  -0.1642 Y  -0.0565 Z
    Strength   :     0.0108280197
    D(   44) --> V(    9) amplitude = -0.2155
    D(   45) --> V(    8) amplitude =  0.2147
    D(   45) --> V(    9) amplitude =  0.4060
    D(   45) --> V(   14) amplitude =  0.2824

 Excited state  90: excitation energy (eV) =   10.5068
 Total energy for state 90:                 -3009.87174744 au
    Multiplicity: Singlet
    Trans. Mom.:  0.0570 X  -0.0341 Y   0.0221 Z
    Strength   :     0.0012625733
    D(   35) --> V(    1) amplitude = -0.4086
    D(   36) --> V(    1) amplitude = -0.2257
    D(   37) --> V(    1) amplitude =  0.2893
    D(   37) --> V(    4) amplitude =  0.2250
    D(   41) --> V(    3) amplitude = -0.2218
    D(   42) --> V(    5) amplitude =  0.2854

 Excited state  91: excitation energy (eV) =   10.5306
 Total energy for state 91:                 -3009.87087290 au
    Multiplicity: Singlet
    Trans. Mom.:  0.1685 X   0.0405 Y  -0.1697 Z
    Strength   :     0.0151805952
    D(   42) --> V(    5) amplitude = -0.2846
    D(   45) --> V(    9) amplitude =  0.3319
    D(   47) --> V(   14) amplitude = -0.2971
    D(   48) --> V(   15) amplitude = -0.3010

 Excited state  92: excitation energy (eV) =   10.5621
 Total energy for state 92:                 -3009.86971541 au
    Multiplicity: Singlet
    Trans. Mom.: -0.5600 X   0.6543 Y   0.0126 Z
    Strength   :     0.1919660402
    D(   41) --> V(    3) amplitude =  0.4633
    D(   42) --> V(    5) amplitude =  0.2470
    D(   44) --> V(    6) amplitude =  0.2395

 Excited state  93: excitation energy (eV) =   10.5837
 Total energy for state 93:                 -3009.86891941 au
    Multiplicity: Singlet
    Trans. Mom.: -0.0143 X  -0.1633 Y  -0.3203 Z
    Strength   :     0.0335729356
    D(   40) --> V(    3) amplitude =  0.3652
    D(   44) --> V(    5) amplitude =  0.2200
    D(   44) --> V(    6) amplitude =  0.2630
    D(   44) --> V(   10) amplitude = -0.2555

 Excited state  94: excitation energy (eV) =   10.5952
 Total energy for state 94:                 -3009.86849774 au
    Multiplicity: Singlet
    Trans. Mom.:  0.0098 X   0.2530 Y  -0.2737 Z
    Strength   :     0.0360848378
    D(   42) --> V(    5) amplitude =  0.3619
    D(   43) --> V(    7) amplitude = -0.2265
    D(   43) --> V(    9) amplitude =  0.2211
    D(   47) --> V(   16) amplitude = -0.2607
    D(   48) --> V(   15) amplitude = -0.2213
    D(   49) --> V(   19) amplitude =  0.2223

 Excited state  95: excitation energy (eV) =   10.6076
 Total energy for state 95:                 -3009.86804353 au
    Multiplicity: Singlet
    Trans. Mom.:  0.0629 X   0.4603 Y   0.0995 Z
    Strength   :     0.0586615726
    D(   40) --> V(    3) amplitude = -0.2984
    D(   42) --> V(    5) amplitude =  0.4099
    D(   49) --> V(   19) amplitude = -0.2509
    D(   49) --> V(   20) amplitude =  0.2554

 Excited state  96: excitation energy (eV) =   10.6508
 Total energy for state 96:                 -3009.86645351 au
    Multiplicity: Singlet
    Trans. Mom.: -0.1778 X   0.1951 Y  -0.0234 Z
    Strength   :     0.0183253623
    D(   40) --> V(    3) amplitude =  0.3346
    D(   40) --> V(    4) amplitude = -0.2848
    D(   42) --> V(    5) amplitude =  0.4102
    D(   47) --> V(   13) amplitude = -0.2189

 Excited state  97: excitation energy (eV) =   10.6576
 Total energy for state 97:                 -3009.86620397 au
    Multiplicity: Singlet
    Trans. Mom.: -0.1296 X  -0.0582 Y   0.1076 Z
    Strength   :     0.0082930836
    D(   40) --> V(    3) amplitude = -0.2750
    D(   47) --> V(   16) amplitude = -0.2149
    D(   48) --> V(   16) amplitude =  0.3784

 Excited state  98: excitation energy (eV) =   10.7131
 Total energy for state 98:                 -3009.86416443 au
    Multiplicity: Singlet
    Trans. Mom.:  0.0549 X  -0.0528 Y  -0.1515 Z
    Strength   :     0.0075437590
    D(   40) --> V(    4) amplitude =  0.4638
    D(   44) --> V(    8) amplitude = -0.2277
    D(   47) --> V(   15) amplitude =  0.3061
    D(   48) --> V(   16) amplitude =  0.2666

 Excited state  99: excitation energy (eV) =   10.7339
 Total energy for state 99:                 -3009.86340025 au
    Multiplicity: Singlet
    Trans. Mom.:  0.1094 X   0.1243 Y   0.0630 Z
    Strength   :     0.0082520896
    D(   40) --> V(    4) amplitude =  0.3482
    D(   44) --> V(    8) amplitude =  0.2286
    D(   49) --> V(   19) amplitude = -0.3489
    D(   49) --> V(   21) amplitude = -0.3049

 Excited state 100: excitation energy (eV) =   10.7462
 Total energy for state100:                 -3009.86294794 au
    Multiplicity: Singlet
    Trans. Mom.:  0.0838 X  -0.1090 Y  -0.0083 Z
    Strength   :     0.0049958491
    D(   43) --> V(    6) amplitude =  0.3471
    D(   43) --> V(    7) amplitude = -0.2628
    D(   48) --> V(   17) amplitude =  0.2134
 
 ---------------------------------------------------

 Direct TDDFT calculation will be performed
 Exchange:     0.2220 Hartree-Fock + 1.0000 wB97X-D + LR-HF
 Correlation:  1.0000 wB97X-D
 Using SG-2 standard quadrature grid
 Dispersion:   Grimme D
 ---------------------------------------------------
 Iter    Rts Conv    Rts Left    Ttl Dev     Max Dev
 ---------------------------------------------------
   1         0         100      0.025508    0.000718
   2         0         100      0.006480    0.000125
   3         0         100      0.002197    0.000053
   4         0         100      0.001119    0.000039
   5         3          97      0.000530    0.000026
   6        34          66      0.000234    0.000021
   7        72          28      0.000104    0.000013
   8        92           8      0.000060    0.000007
   9        98           2      0.000047    0.000003
  10        99           1      0.000043    0.000001
  11       100           0      0.000042    0.000001    Roots Converged
 ---------------------------------------------------
 
 ---------------------------------------------------
             TDDFT Excitation Energies              
 ---------------------------------------------------

 Excited state   1: excitation energy (eV) =    3.5057
 Total energy for state  1:                 -3010.12903224 au
    Multiplicity: Singlet 
    Trans. Mom.: -0.2484 X  -0.0211 Y  -0.0112 Z
    Strength   :     0.0053494101
    X: D(   45) --> V(    1) amplitude = -0.2993
    X: D(   46) --> V(    1) amplitude = -0.4677
    X: D(   48) --> V(    1) amplitude =  0.7404

 Excited state   2: excitation energy (eV) =    4.1348
 Total energy for state  2:                 -3010.10591465 au
    Multiplicity: Singlet 
    Trans. Mom.:  0.1402 X   0.0626 Y  -0.0552 Z
    Strength   :     0.0026956821
    X: D(   43) --> V(    1) amplitude = -0.3372
    X: D(   44) --> V(    1) amplitude = -0.3820
    X: D(   45) --> V(    1) amplitude =  0.6498
    X: D(   47) --> V(    1) amplitude =  0.4470

 Excited state   3: excitation energy (eV) =    4.3717
 Total energy for state  3:                 -3010.09720879 au
    Multiplicity: Singlet 
    Trans. Mom.: -0.2641 X  -0.6613 Y   0.0224 Z
    Strength   :     0.0543664621
    X: D(   49) --> V(    1) amplitude =  0.9624

 Excited state   4: excitation energy (eV) =    5.0520
 Total energy for state  4:                 -3010.07220624 au
    Multiplicity: Singlet 
    Trans. Mom.:  0.8815 X  -0.0243 Y  -0.0179 Z
    Strength   :     0.0962993187
    X: D(   45) --> V(    1) amplitude = -0.3195
    X: D(   46) --> V(    1) amplitude = -0.2397
    X: D(   47) --> V(    1) amplitude =  0.7883
    X: D(   48) --> V(    1) amplitude = -0.2271
    X: D(   49) --> V(    2) amplitude = -0.2523

 Excited state   5: excitation energy (eV) =    5.3869
 Total energy for state  5:                 -3010.05989850 au
    Multiplicity: Singlet 
    Trans. Mom.: -0.3747 X  -0.3573 Y  -0.1103 Z
    Strength   :     0.0369899842
    X: D(   43) --> V(    1) amplitude =  0.2270
    X: D(   44) --> V(    1) amplitude =  0.3936
    X: D(   46) --> V(    1) amplitude =  0.5705
    X: D(   47) --> V(    1) amplitude =  0.2825
    X: D(   48) --> V(    1) amplitude =  0.5650

 Excited state   6: excitation energy (eV) =    5.6860
 Total energy for state  6:                 -3010.04890581 au
    Multiplicity: Singlet 
    Trans. Mom.: -0.1844 X   0.0574 Y  -0.0212 Z
    Strength   :     0.0052554489
    X: D(   49) --> V(    3) amplitude =  0.8257
    X: D(   49) --> V(    4) amplitude =  0.3160
    X: D(   49) --> V(    5) amplitude = -0.2441

 Excited state   7: excitation energy (eV) =    5.8892
 Total energy for state  7:                 -3010.04144008 au
    Multiplicity: Singlet 
    Trans. Mom.: -0.6450 X   0.4376 Y  -0.1150 Z
    Strength   :     0.0895568124
    X: D(   44) --> V(    1) amplitude = -0.2656
    X: D(   46) --> V(    1) amplitude =  0.2124
    X: D(   47) --> V(    1) amplitude = -0.2211
    X: D(   47) --> V(    2) amplitude =  0.3839
    X: D(   48) --> V(    2) amplitude = -0.3875
    X: D(   49) --> V(    2) amplitude = -0.4566
    X: D(   49) --> V(    3) amplitude = -0.2659
    X: D(   49) --> V(    4) amplitude =  0.3414

 Excited state   8: excitation energy (eV) =    6.0785
 Total energy for state  8:                 -3010.03448323 au
    Multiplicity: Singlet 
    Trans. Mom.: -0.1360 X   0.3319 Y   0.1827 Z
    Strength   :     0.0241333019
    X: D(   44) --> V(    1) amplitude =  0.2679
    X: D(   45) --> V(    1) amplitude =  0.2660
    X: D(   46) --> V(    1) amplitude = -0.2523
    X: D(   47) --> V(    3) amplitude =  0.4002
    X: D(   48) --> V(    3) amplitude =  0.5771

 Excited state   9: excitation energy (eV) =    6.1137
 Total energy for state  9:                 -3010.03319076 au
    Multiplicity: Singlet 
    Trans. Mom.:  0.7705 X  -0.2391 Y   0.0766 Z
    Strength   :     0.0983508662
    X: D(   43) --> V(    1) amplitude =  0.3008
    X: D(   47) --> V(    2) amplitude =  0.3187
    X: D(   49) --> V(    2) amplitude =  0.7011
    X: D(   49) --> V(    4) amplitude =  0.3331

 Excited state  10: excitation energy (eV) =    6.1482
 Total energy for state 10:                 -3010.03192222 au
    Multiplicity: Singlet 
    Trans. Mom.: -0.6009 X   0.5845 Y   0.2915 Z
    Strength   :     0.1186409969
    X: D(   44) --> V(    1) amplitude =  0.4144
    X: D(   45) --> V(    1) amplitude =  0.4135
    X: D(   46) --> V(    1) amplitude = -0.4081
    X: D(   47) --> V(    3) amplitude = -0.2476
    X: D(   48) --> V(    2) amplitude =  0.2823
    X: D(   48) --> V(    3) amplitude = -0.2731
    X: D(   49) --> V(    2) amplitude = -0.3300

 Excited state  11: excitation energy (eV) =    6.4975
 Total energy for state 11:                 -3010.01908360 au
    Multiplicity: Singlet 
    Trans. Mom.: -0.4395 X   0.0202 Y  -0.0772 Z
    Strength   :     0.0317554933
    X: D(   43) --> V(    1) amplitude =  0.6650
    X: D(   44) --> V(    1) amplitude = -0.5176
    X: D(   48) --> V(    2) amplitude =  0.2405
    X: D(   49) --> V(    4) amplitude = -0.3887

 Excited state  12: excitation energy (eV) =    6.5802
 Total energy for state 12:                 -3010.01604702 au
    Multiplicity: Singlet 
    Trans. Mom.: -0.2778 X   0.2358 Y   0.0984 Z
    Strength   :     0.0229670049
    X: D(   47) --> V(    2) amplitude = -0.5622
    X: D(   48) --> V(    2) amplitude = -0.6951

 Excited state  13: excitation energy (eV) =    6.9459
 Total energy for state 13:                 -3010.00260607 au
    Multiplicity: Singlet 
    Trans. Mom.: -0.2901 X  -0.4836 Y  -0.0106 Z
    Strength   :     0.0541330701
    X: D(   47) --> V(    2) amplitude = -0.2882
    X: D(   47) --> V(    3) amplitude =  0.6234
    X: D(   48) --> V(    3) amplitude = -0.5137
    X: D(   49) --> V(    4) amplitude =  0.3184

 Excited state  14: excitation energy (eV) =    7.0351
 Total energy for state 14:                 -3009.99932945 au
    Multiplicity: Singlet 
    Trans. Mom.: -0.4984 X  -0.3449 Y   0.0725 Z
    Strength   :     0.0642142953
    X: D(   47) --> V(    2) amplitude = -0.2534
    X: D(   47) --> V(    3) amplitude = -0.2980
    X: D(   47) --> V(    4) amplitude = -0.2168
    X: D(   48) --> V(    4) amplitude =  0.7480
    X: D(   49) --> V(    4) amplitude =  0.2660

 Excited state  15: excitation energy (eV) =    7.0418
 Total energy for state 15:                 -3009.99908357 au
    Multiplicity: Singlet 
    Trans. Mom.:  0.0133 X   1.3828 Y   0.0282 Z
    Strength   :     0.3300561245
    X: D(   42) --> V(    1) amplitude = -0.2128
    X: D(   43) --> V(    1) amplitude = -0.2319
    X: D(   47) --> V(    2) amplitude =  0.4257
    X: D(   48) --> V(    2) amplitude = -0.2903
    X: D(   48) --> V(    3) amplitude = -0.2939
    X: D(   48) --> V(    4) amplitude =  0.3744
    X: D(   49) --> V(    4) amplitude = -0.4721

 Excited state  16: excitation energy (eV) =    7.1810
 Total energy for state 16:                 -3009.99396781 au
    Multiplicity: Singlet 
    Trans. Mom.: -0.4228 X   0.3123 Y  -0.0592 Z
    Strength   :     0.0492191086
    X: D(   42) --> V(    1) amplitude =  0.8064
    X: D(   47) --> V(    4) amplitude = -0.4178

 Excited state  17: excitation energy (eV) =    7.2658
 Total energy for state 17:                 -3009.99085233 au
    Multiplicity: Singlet 
    Trans. Mom.:  0.0139 X   0.0177 Y   0.3798 Z
    Strength   :     0.0257638794
    X: D(   49) --> V(    5) amplitude =  0.8336
    X: D(   49) --> V(    7) amplitude = -0.2705

 Excited state  18: excitation energy (eV) =    7.2749
 Total energy for state 18:                 -3009.99051583 au
    Multiplicity: Singlet 
    Trans. Mom.:  0.2515 X  -0.1622 Y   0.0375 Z
    Strength   :     0.0162157160
    X: D(   42) --> V(    1) amplitude =  0.4374
    X: D(   47) --> V(    3) amplitude = -0.2604
    X: D(   47) --> V(    4) amplitude =  0.6966
    X: D(   48) --> V(    4) amplitude =  0.2358

 Excited state  19: excitation energy (eV) =    7.5663
 Total energy for state 19:                 -3009.97980910 au
    Multiplicity: Singlet 
    Trans. Mom.: -0.2166 X  -0.2451 Y  -0.0355 Z
    Strength   :     0.0200699934
    X: D(   45) --> V(    2) amplitude =  0.2438
    X: D(   46) --> V(    2) amplitude =  0.8509

 Excited state  20: excitation energy (eV) =    7.6436
 Total energy for state 20:                 -3009.97696595 au
    Multiplicity: Singlet 
    Trans. Mom.:  0.0476 X  -0.4457 Y   0.0576 Z
    Strength   :     0.0382520171
    X: D(   43) --> V(    3) amplitude = -0.2708
    X: D(   44) --> V(    3) amplitude =  0.3639
    X: D(   45) --> V(    2) amplitude =  0.4904
    X: D(   46) --> V(    3) amplitude =  0.3851

 Excited state  21: excitation energy (eV) =    7.6913
 Total energy for state 21:                 -3009.97521485 au
    Multiplicity: Singlet 
    Trans. Mom.:  0.2678 X  -0.1236 Y  -0.0029 Z
    Strength   :     0.0163934089
    X: D(   41) --> V(    1) amplitude =  0.3955
    X: D(   43) --> V(    3) amplitude =  0.2575
    X: D(   44) --> V(    3) amplitude = -0.2376
    X: D(   45) --> V(    2) amplitude =  0.4320
    X: D(   45) --> V(    4) amplitude =  0.4378
    X: D(   46) --> V(    3) amplitude = -0.2599

 Excited state  22: excitation energy (eV) =    7.7353
 Total energy for state 22:                 -3009.97359672 au
    Multiplicity: Singlet 
    Trans. Mom.:  0.4655 X  -0.1795 Y  -0.0048 Z
    Strength   :     0.0471718583
    X: D(   41) --> V(    1) amplitude = -0.4104
    X: D(   45) --> V(    2) amplitude =  0.6189
    X: D(   45) --> V(    4) amplitude = -0.3678
    X: D(   46) --> V(    2) amplitude = -0.3029

 Excited state  23: excitation energy (eV) =    7.8146
 Total energy for state 23:                 -3009.97068367 au
    Multiplicity: Singlet 
    Trans. Mom.: -0.0493 X  -0.2745 Y   0.0093 Z
    Strength   :     0.0149081498
    X: D(   43) --> V(    2) amplitude = -0.2825
    X: D(   46) --> V(    3) amplitude =  0.3704
    X: D(   46) --> V(    4) amplitude = -0.5083
    X: D(   48) --> V(    5) amplitude =  0.3595
    X: D(   49) --> V(    6) amplitude =  0.3104

 Excited state  24: excitation energy (eV) =    7.8372
 Total energy for state 24:                 -3009.96985271 au
    Multiplicity: Singlet 
    Trans. Mom.:  0.3363 X   0.4974 Y   0.2585 Z
    Strength   :     0.0820618423
    X: D(   46) --> V(    4) amplitude =  0.4960
    X: D(   48) --> V(    5) amplitude =  0.5598
    X: D(   48) --> V(    7) amplitude = -0.2288
    X: D(   49) --> V(    6) amplitude =  0.2628

 Excited state  25: excitation energy (eV) =    7.9005
 Total energy for state 25:                 -3009.96752474 au
    Multiplicity: Singlet 
    Trans. Mom.: -0.0557 X  -0.1160 Y  -0.0853 Z
    Strength   :     0.0046150393
    X: D(   47) --> V(    5) amplitude =  0.3099
    X: D(   48) --> V(    5) amplitude = -0.3219
    X: D(   49) --> V(    6) amplitude =  0.6206

 Excited state  26: excitation energy (eV) =    7.9220
 Total energy for state 26:                 -3009.96673572 au
    Multiplicity: Singlet 
    Trans. Mom.:  0.1511 X   0.3939 Y  -0.1740 Z
    Strength   :     0.0404197562
    X: D(   44) --> V(    2) amplitude =  0.3826
    X: D(   47) --> V(    5) amplitude =  0.6799
    X: D(   48) --> V(    6) amplitude = -0.2364
    X: D(   48) --> V(    7) amplitude = -0.2177

 Excited state  27: excitation energy (eV) =    7.9744
 Total energy for state 27:                 -3009.96481185 au
    Multiplicity: Singlet 
    Trans. Mom.: -0.3484 X   0.0358 Y   0.0919 Z
    Strength   :     0.0256189175
    X: D(   41) --> V(    1) amplitude =  0.5067
    X: D(   44) --> V(    2) amplitude =  0.5250
    X: D(   45) --> V(    4) amplitude = -0.3163
    X: D(   46) --> V(    4) amplitude =  0.3272

 Excited state  28: excitation energy (eV) =    7.9828
 Total energy for state 28:                 -3009.96450109 au
    Multiplicity: Singlet 
    Trans. Mom.: -0.5307 X  -0.0862 Y  -0.0391 Z
    Strength   :     0.0568336630
    X: D(   41) --> V(    1) amplitude = -0.4159
    X: D(   44) --> V(    2) amplitude =  0.5759
    X: D(   45) --> V(    3) amplitude = -0.2234
    X: D(   45) --> V(    4) amplitude =  0.3679
    X: D(   47) --> V(    5) amplitude = -0.2128

 Excited state  29: excitation energy (eV) =    8.0451
 Total energy for state 29:                 -3009.96221076 au
    Multiplicity: Singlet 
    Trans. Mom.:  0.8456 X  -0.3719 Y  -0.1131 Z
    Strength   :     0.1707088996
    X: D(   43) --> V(    2) amplitude =  0.8099
    X: D(   46) --> V(    4) amplitude = -0.2870

 Excited state  30: excitation energy (eV) =    8.1178
 Total energy for state 30:                 -3009.95953909 au
    Multiplicity: Singlet 
    Trans. Mom.: -0.0491 X  -0.0757 Y  -0.1408 Z
    Strength   :     0.0055646472
    X: D(   43) --> V(    3) amplitude =  0.2230
    X: D(   46) --> V(    3) amplitude =  0.2727
    X: D(   49) --> V(    6) amplitude = -0.2858
    X: D(   49) --> V(    7) amplitude =  0.5867
    X: D(   49) --> V(    8) amplitude =  0.4356

 Excited state  31: excitation energy (eV) =    8.1758
 Total energy for state 31:                 -3009.95741056 au
    Multiplicity: Singlet 
    Trans. Mom.:  0.1018 X  -0.1148 Y   0.0756 Z
    Strength   :     0.0058569841
    X: D(   43) --> V(    3) amplitude =  0.4941
    X: D(   45) --> V(    3) amplitude =  0.3314
    X: D(   46) --> V(    3) amplitude =  0.2803
    X: D(   49) --> V(    7) amplitude = -0.3985

 Excited state  32: excitation energy (eV) =    8.2711
 Total energy for state 32:                 -3009.95390513 au
    Multiplicity: Singlet 
    Trans. Mom.: -0.1403 X   0.0847 Y  -0.1727 Z
    Strength   :     0.0114889959
    X: D(   42) --> V(    2) amplitude =  0.8972

 Excited state  33: excitation energy (eV) =    8.3121
 Total energy for state 33:                 -3009.95240018 au
    Multiplicity: Singlet 
    Trans. Mom.: -0.0037 X   0.0248 Y   0.0248 Z
    Strength   :     0.0002529906
    X: D(   44) --> V(    3) amplitude =  0.5247
    X: D(   45) --> V(    3) amplitude =  0.4865
    X: D(   46) --> V(    3) amplitude = -0.4274

 Excited state  34: excitation energy (eV) =    8.4085
 Total energy for state 34:                 -3009.94885792 au
    Multiplicity: Singlet 
    Trans. Mom.:  0.0338 X  -0.0538 Y  -0.0929 Z
    Strength   :     0.0026088378
    X: D(   44) --> V(    4) amplitude =  0.8035
    X: D(   45) --> V(    4) amplitude =  0.2769

 Excited state  35: excitation energy (eV) =    8.4419
 Total energy for state 35:                 -3009.94762990 au
    Multiplicity: Singlet 
    Trans. Mom.:  0.2825 X   0.1932 Y   0.1743 Z
    Strength   :     0.0305112698
    X: D(   40) --> V(    1) amplitude = -0.4447
    X: D(   43) --> V(    4) amplitude = -0.4614
    X: D(   48) --> V(    7) amplitude =  0.2259
    X: D(   49) --> V(    8) amplitude =  0.2485
    X: D(   49) --> V(    9) amplitude =  0.4500

 Excited state  36: excitation energy (eV) =    8.4718
 Total energy for state 36:                 -3009.94653094 au
    Multiplicity: Singlet 
    Trans. Mom.: -0.1604 X  -0.0446 Y  -0.1185 Z
    Strength   :     0.0086684685
    X: D(   40) --> V(    1) amplitude = -0.2347
    X: D(   43) --> V(    3) amplitude =  0.3387
    X: D(   43) --> V(    4) amplitude = -0.2249
    X: D(   47) --> V(    7) amplitude =  0.3734
    X: D(   48) --> V(    7) amplitude = -0.4034
    X: D(   49) --> V(    9) amplitude =  0.2618

 Excited state  37: excitation energy (eV) =    8.4862
 Total energy for state 37:                 -3009.94600109 au
    Multiplicity: Singlet 
    Trans. Mom.: -0.0620 X  -0.0729 Y   0.2598 Z
    Strength   :     0.0159351739
    X: D(   49) --> V(    6) amplitude =  0.2538
    X: D(   49) --> V(    7) amplitude = -0.3299
    X: D(   49) --> V(    8) amplitude =  0.6134
    X: D(   49) --> V(   11) amplitude =  0.2853

 Excited state  38: excitation energy (eV) =    8.5623
 Total energy for state 38:                 -3009.94320635 au
    Multiplicity: Singlet 
    Trans. Mom.: -0.0650 X  -0.3069 Y   0.0220 Z
    Strength   :     0.0207413953
    X: D(   40) --> V(    1) amplitude =  0.4975
    X: D(   49) --> V(    9) amplitude =  0.5629

 Excited state  39: excitation energy (eV) =    8.6051
 Total energy for state 39:                 -3009.94163115 au
    Multiplicity: Singlet 
    Trans. Mom.:  0.1762 X   0.0583 Y  -0.0810 Z
    Strength   :     0.0086443860
    X: D(   40) --> V(    1) amplitude =  0.2203
    X: D(   43) --> V(    3) amplitude = -0.2977
    X: D(   44) --> V(    3) amplitude = -0.2548
    X: D(   44) --> V(    4) amplitude = -0.2123
    X: D(   45) --> V(    3) amplitude =  0.3498
    X: D(   47) --> V(    7) amplitude =  0.2559
    X: D(   49) --> V(    9) amplitude =  0.3666

 Excited state  40: excitation energy (eV) =    8.6637
 Total energy for state 40:                 -3009.93948010 au
    Multiplicity: Singlet 
    Trans. Mom.: -0.1449 X  -0.3171 Y   0.0967 Z
    Strength   :     0.0277832308
    X: D(   43) --> V(    4) amplitude =  0.2182
    X: D(   45) --> V(    3) amplitude = -0.2768
    X: D(   47) --> V(    6) amplitude =  0.6094
    X: D(   48) --> V(    6) amplitude = -0.5160

 Excited state  41: excitation energy (eV) =    8.7165
 Total energy for state 41:                 -3009.93753864 au
    Multiplicity: Singlet 
    Trans. Mom.: -0.2441 X  -0.5864 Y   0.0353 Z
    Strength   :     0.0864091415
    X: D(   40) --> V(    1) amplitude = -0.5107
    X: D(   41) --> V(    2) amplitude =  0.2439
    X: D(   43) --> V(    4) amplitude =  0.5547
    X: D(   44) --> V(    4) amplitude = -0.2376

 Excited state  42: excitation energy (eV) =    8.7561
 Total energy for state 42:                 -3009.93608193 au
    Multiplicity: Singlet 
    Trans. Mom.:  0.0656 X   0.1187 Y  -0.0413 Z
    Strength   :     0.0043137627
    X: D(   39) --> V(    1) amplitude = -0.2990
    X: D(   41) --> V(    2) amplitude =  0.7966

 Excited state  43: excitation energy (eV) =    8.7690
 Total energy for state 43:                 -3009.93560779 au
    Multiplicity: Singlet 
    Trans. Mom.: -0.0559 X  -0.1228 Y  -0.1251 Z
    Strength   :     0.0072769955
    X: D(   43) --> V(    4) amplitude =  0.2190
    X: D(   47) --> V(    6) amplitude = -0.2402
    X: D(   47) --> V(    7) amplitude =  0.4764
    X: D(   47) --> V(    8) amplitude =  0.3774
    X: D(   48) --> V(    8) amplitude =  0.3470

 Excited state  44: excitation energy (eV) =    8.8879
 Total energy for state 44:                 -3009.93123931 au
    Multiplicity: Singlet 
    Trans. Mom.:  0.0069 X   0.0197 Y   0.2196 Z
    Strength   :     0.0105929064
    X: D(   46) --> V(    7) amplitude = -0.2171
    X: D(   49) --> V(    7) amplitude =  0.2694
    X: D(   49) --> V(    8) amplitude = -0.2574
    X: D(   49) --> V(    9) amplitude =  0.2544
    X: D(   49) --> V(   10) amplitude =  0.6092
    X: D(   49) --> V(   11) amplitude =  0.2973

 Excited state  45: excitation energy (eV) =    8.9139
 Total energy for state 45:                 -3009.93028372 au
    Multiplicity: Singlet 
    Trans. Mom.: -0.0377 X   0.2679 Y   0.0768 Z
    Strength   :     0.0172708399
    X: D(   46) --> V(    5) amplitude = -0.4771
    X: D(   46) --> V(    7) amplitude =  0.5272
    X: D(   46) --> V(    8) amplitude =  0.3084
    X: D(   49) --> V(   10) amplitude =  0.2536

 Excited state  46: excitation energy (eV) =    8.9946
 Total energy for state 46:                 -3009.92731798 au
    Multiplicity: Singlet 
    Trans. Mom.:  0.0296 X   0.2554 Y   0.0102 Z
    Strength   :     0.0145936540
    X: D(   39) --> V(    1) amplitude = -0.4971
    X: D(   41) --> V(    2) amplitude = -0.3523
    X: D(   42) --> V(    3) amplitude = -0.2782
    X: D(   42) --> V(    4) amplitude =  0.5403

 Excited state  47: excitation energy (eV) =    9.0333
 Total energy for state 47:                 -3009.92589699 au
    Multiplicity: Singlet 
    Trans. Mom.:  0.2747 X  -0.0599 Y  -0.0225 Z
    Strength   :     0.0176044582
    X: D(   45) --> V(    5) amplitude =  0.3381
    X: D(   45) --> V(    7) amplitude = -0.4040
    X: D(   45) --> V(    8) amplitude = -0.2155
    X: D(   48) --> V(    5) amplitude = -0.2227
    X: D(   48) --> V(    9) amplitude =  0.3565
    X: D(   48) --> V(   10) amplitude =  0.2276

 Excited state  48: excitation energy (eV) =    9.0425
 Total energy for state 48:                 -3009.92555869 au
    Multiplicity: Singlet 
    Trans. Mom.:  0.1544 X   0.1771 Y   0.0187 Z
    Strength   :     0.0123044629
    X: D(   45) --> V(    5) amplitude = -0.2152
    X: D(   48) --> V(    8) amplitude =  0.3287
    X: D(   48) --> V(    9) amplitude =  0.4749
    X: D(   48) --> V(   11) amplitude =  0.3827

 Excited state  49: excitation energy (eV) =    9.0988
 Total energy for state 49:                 -3009.92349071 au
    Multiplicity: Singlet 
    Trans. Mom.: -0.0953 X  -0.0634 Y  -0.0884 Z
    Strength   :     0.0046625559
    X: D(   48) --> V(    9) amplitude =  0.3420
    X: D(   48) --> V(   10) amplitude = -0.2582
    X: D(   49) --> V(   10) amplitude = -0.3101
    X: D(   49) --> V(   11) amplitude =  0.5550
    X: D(   49) --> V(   13) amplitude =  0.2308

 Excited state  50: excitation energy (eV) =    9.1370
 Total energy for state 50:                 -3009.92208666 au
    Multiplicity: Singlet 
    Trans. Mom.:  0.2683 X  -0.0671 Y   0.0092 Z
    Strength   :     0.0171420808
    X: D(   48) --> V(    9) amplitude = -0.3316
    X: D(   48) --> V(   10) amplitude =  0.3075
    X: D(   48) --> V(   11) amplitude =  0.2965
    X: D(   49) --> V(   11) amplitude =  0.4607
    X: D(   49) --> V(   12) amplitude = -0.2156

 Excited state  51: excitation energy (eV) =    9.1720
 Total energy for state 51:                 -3009.92079750 au
    Multiplicity: Singlet 
    Trans. Mom.: -0.1068 X   0.0223 Y  -0.0315 Z
    Strength   :     0.0028998074
    X: D(   47) --> V(    9) amplitude =  0.7044
[...]
    e-/hole pair  1:  ampl =  0.5804   (34.1 %)
    e-/hole pair  2:  ampl =  0.5293   (28.4 %)
    e-/hole pair  3:  ampl =  0.4599   (21.4 %)
    e-/hole pair  4:  ampl =  0.2424   ( 6.0 %)
    e-/hole pair  5:  ampl =  0.1802   ( 3.3 %)
  These amplitudes account for 93.2 % of total amplitude

  Excited state 70:   9.9235 eV (singlet)
    e-/hole pair  1:  ampl =  0.7488   (56.5 %)
    e-/hole pair  2:  ampl =  0.3254   (10.7 %)
    e-/hole pair  3:  ampl =  0.3101   ( 9.7 %)
    e-/hole pair  4:  ampl =  0.2581   ( 6.7 %)
    e-/hole pair  5:  ampl =  0.2509   ( 6.3 %)
    e-/hole pair  6:  ampl =  0.1943   ( 3.8 %)
    e-/hole pair  7:  ampl =  0.1543   ( 2.4 %)
  These amplitudes account for 96.2 % of total amplitude

  Excited state 71:   9.9919 eV (singlet)
    e-/hole pair  1:  ampl =  0.6722   (45.3 %)
    e-/hole pair  2:  ampl =  0.4065   (16.6 %)
    e-/hole pair  3:  ampl =  0.3784   (14.3 %)
    e-/hole pair  4:  ampl =  0.3123   ( 9.8 %)
    e-/hole pair  5:  ampl =  0.2348   ( 5.5 %)
    e-/hole pair  6:  ampl =  0.1904   ( 3.6 %)
  These amplitudes account for 95.1 % of total amplitude

  Excited state 72:  10.0144 eV (singlet)
    e-/hole pair  1:  ampl =  0.7109   (50.6 %)
    e-/hole pair  2:  ampl =  0.4619   (21.3 %)
    e-/hole pair  3:  ampl =  0.3733   (13.9 %)
    e-/hole pair  4:  ampl =  0.2909   ( 8.5 %)
    e-/hole pair  5:  ampl =  0.1573   ( 2.5 %)
  These amplitudes account for 96.8 % of total amplitude

  Excited state 73:  10.0778 eV (singlet)
    e-/hole pair  1:  ampl =  0.7131   (50.9 %)
    e-/hole pair  2:  ampl =  0.4111   (16.9 %)
    e-/hole pair  3:  ampl =  0.4019   (16.2 %)
    e-/hole pair  4:  ampl =  0.2263   ( 5.1 %)
    e-/hole pair  5:  ampl =  0.2016   ( 4.1 %)
    e-/hole pair  6:  ampl =  0.1755   ( 3.1 %)
  These amplitudes account for 96.3 % of total amplitude

  Excited state 74:  10.0802 eV (singlet)
    e-/hole pair  1:  ampl =  0.6885   (47.6 %)
    e-/hole pair  2:  ampl =  0.4168   (17.5 %)
    e-/hole pair  3:  ampl =  0.2919   ( 8.6 %)
    e-/hole pair  4:  ampl =  0.2597   ( 6.8 %)
    e-/hole pair  5:  ampl =  0.2525   ( 6.4 %)
    e-/hole pair  6:  ampl =  0.2456   ( 6.1 %)
    e-/hole pair  7:  ampl =  0.1743   ( 3.1 %)
  These amplitudes account for 95.9 % of total amplitude

  Excited state 75:  10.1042 eV (singlet)
    e-/hole pair  1:  ampl =  0.5550   (30.9 %)
    e-/hole pair  2:  ampl =  0.5177   (26.9 %)
    e-/hole pair  3:  ampl =  0.4273   (18.3 %)
    e-/hole pair  4:  ampl =  0.2971   ( 8.9 %)
    e-/hole pair  5:  ampl =  0.2404   ( 5.8 %)
    e-/hole pair  6:  ampl =  0.2167   ( 4.7 %)
  These amplitudes account for 95.5 % of total amplitude

  Excited state 76:  10.1320 eV (singlet)
    e-/hole pair  1:  ampl =  0.6185   (38.3 %)
    e-/hole pair  2:  ampl =  0.5340   (28.5 %)
    e-/hole pair  3:  ampl =  0.4124   (17.0 %)
    e-/hole pair  4:  ampl =  0.2468   ( 6.1 %)
    e-/hole pair  5:  ampl =  0.1759   ( 3.1 %)
    e-/hole pair  6:  ampl =  0.1589   ( 2.5 %)
  These amplitudes account for 95.5 % of total amplitude

  Excited state 77:  10.1534 eV (singlet)
    e-/hole pair  1:  ampl =  0.6391   (40.9 %)
    e-/hole pair  2:  ampl =  0.5548   (30.8 %)
    e-/hole pair  3:  ampl =  0.3334   (11.1 %)
    e-/hole pair  4:  ampl =  0.2509   ( 6.3 %)
    e-/hole pair  5:  ampl =  0.2213   ( 4.9 %)
    e-/hole pair  6:  ampl =  0.1502   ( 2.3 %)
  These amplitudes account for 96.3 % of total amplitude

  Excited state 78:  10.1916 eV (singlet)
    e-/hole pair  1:  ampl =  0.5355   (28.8 %)
    e-/hole pair  2:  ampl =  0.4874   (23.8 %)
    e-/hole pair  3:  ampl =  0.3999   (16.1 %)
    e-/hole pair  4:  ampl =  0.3138   ( 9.9 %)
    e-/hole pair  5:  ampl =  0.2891   ( 8.4 %)
    e-/hole pair  6:  ampl =  0.2437   ( 6.0 %)
    e-/hole pair  7:  ampl =  0.1924   ( 3.7 %)
  These amplitudes account for 96.6 % of total amplitude

  Excited state 79:  10.2366 eV (singlet)
    e-/hole pair  1:  ampl =  0.5883   (34.6 %)
    e-/hole pair  2:  ampl =  0.5088   (25.9 %)
    e-/hole pair  3:  ampl =  0.4197   (17.6 %)
    e-/hole pair  4:  ampl =  0.2744   ( 7.5 %)
    e-/hole pair  5:  ampl =  0.2399   ( 5.8 %)
    e-/hole pair  6:  ampl =  0.2060   ( 4.2 %)
    e-/hole pair  7:  ampl =  0.1570   ( 2.5 %)
  These amplitudes account for 98.1 % of total amplitude

  Excited state 80:  10.2752 eV (singlet)
    e-/hole pair  1:  ampl =  0.7178   (51.6 %)
    e-/hole pair  2:  ampl =  0.3981   (15.9 %)
    e-/hole pair  3:  ampl =  0.3744   (14.0 %)
    e-/hole pair  4:  ampl =  0.2911   ( 8.5 %)
    e-/hole pair  5:  ampl =  0.1932   ( 3.7 %)
  These amplitudes account for 93.7 % of total amplitude

  Excited state 81:  10.3213 eV (singlet)
    e-/hole pair  1:  ampl =  0.6027   (36.4 %)
    e-/hole pair  2:  ampl =  0.4610   (21.3 %)
    e-/hole pair  3:  ampl =  0.3384   (11.5 %)
    e-/hole pair  4:  ampl =  0.3255   (10.6 %)
    e-/hole pair  5:  ampl =  0.2859   ( 8.2 %)
    e-/hole pair  6:  ampl =  0.2538   ( 6.5 %)
    e-/hole pair  7:  ampl =  0.1735   ( 3.0 %)
  These amplitudes account for 97.4 % of total amplitude

  Excited state 82:  10.3388 eV (singlet)
    e-/hole pair  1:  ampl =  0.5887   (34.8 %)
    e-/hole pair  2:  ampl =  0.5417   (29.4 %)
    e-/hole pair  3:  ampl =  0.3348   (11.2 %)
    e-/hole pair  4:  ampl =  0.2716   ( 7.4 %)
    e-/hole pair  5:  ampl =  0.2324   ( 5.4 %)
    e-/hole pair  6:  ampl =  0.1897   ( 3.6 %)
    e-/hole pair  7:  ampl =  0.1704   ( 2.9 %)
    e-/hole pair  8:  ampl =  0.1535   ( 2.4 %)
  These amplitudes account for 97.2 % of total amplitude

  Excited state 83:  10.3567 eV (singlet)
    e-/hole pair  1:  ampl =  0.5582   (31.2 %)
    e-/hole pair  2:  ampl =  0.4288   (18.4 %)
    e-/hole pair  3:  ampl =  0.4253   (18.1 %)
    e-/hole pair  4:  ampl =  0.3121   ( 9.8 %)
    e-/hole pair  5:  ampl =  0.2565   ( 6.6 %)
    e-/hole pair  6:  ampl =  0.2217   ( 4.9 %)
    e-/hole pair  7:  ampl =  0.2094   ( 4.4 %)
    e-/hole pair  8:  ampl =  0.1791   ( 3.2 %)
    e-/hole pair  9:  ampl =  0.1522   ( 2.3 %)
  These amplitudes account for 98.9 % of total amplitude

  Excited state 84:  10.3675 eV (singlet)
    e-/hole pair  1:  ampl =  0.5565   (31.1 %)
    e-/hole pair  2:  ampl =  0.4216   (17.9 %)
    e-/hole pair  3:  ampl =  0.4053   (16.5 %)
    e-/hole pair  4:  ampl =  0.3211   (10.4 %)
    e-/hole pair  5:  ampl =  0.3158   (10.0 %)
    e-/hole pair  6:  ampl =  0.2087   ( 4.4 %)
    e-/hole pair  7:  ampl =  0.1845   ( 3.4 %)
    e-/hole pair  8:  ampl =  0.1558   ( 2.4 %)
  These amplitudes account for 96.2 % of total amplitude

  Excited state 85:  10.3954 eV (singlet)
    e-/hole pair  1:  ampl =  0.6506   (42.5 %)
    e-/hole pair  2:  ampl =  0.4165   (17.4 %)
    e-/hole pair  3:  ampl =  0.3214   (10.4 %)
    e-/hole pair  4:  ampl =  0.2968   ( 8.8 %)
    e-/hole pair  5:  ampl =  0.2744   ( 7.6 %)
    e-/hole pair  6:  ampl =  0.2239   ( 5.0 %)
    e-/hole pair  7:  ampl =  0.1938   ( 3.8 %)
  These amplitudes account for 95.4 % of total amplitude

  Excited state 86:  10.4028 eV (singlet)
    e-/hole pair  1:  ampl =  0.5269   (27.8 %)
    e-/hole pair  2:  ampl =  0.5107   (26.1 %)
    e-/hole pair  3:  ampl =  0.3787   (14.4 %)
    e-/hole pair  4:  ampl =  0.3154   (10.0 %)
    e-/hole pair  5:  ampl =  0.2676   ( 7.2 %)
    e-/hole pair  6:  ampl =  0.2480   ( 6.2 %)
    e-/hole pair  7:  ampl =  0.2110   ( 4.5 %)
  These amplitudes account for 96.1 % of total amplitude

  Excited state 87:  10.4439 eV (singlet)
    e-/hole pair  1:  ampl =  0.5987   (36.3 %)
    e-/hole pair  2:  ampl =  0.5746   (33.4 %)
    e-/hole pair  3:  ampl =  0.2826   ( 8.1 %)
    e-/hole pair  4:  ampl =  0.2673   ( 7.2 %)
    e-/hole pair  5:  ampl =  0.2459   ( 6.1 %)
    e-/hole pair  6:  ampl =  0.1910   ( 3.7 %)
  These amplitudes account for 94.8 % of total amplitude

  Excited state 88:  10.4502 eV (singlet)
    e-/hole pair  1:  ampl =  0.6789   (46.3 %)
    e-/hole pair  2:  ampl =  0.3956   (15.7 %)
    e-/hole pair  3:  ampl =  0.3289   (10.9 %)
    e-/hole pair  4:  ampl =  0.2953   ( 8.8 %)
    e-/hole pair  5:  ampl =  0.2572   ( 6.6 %)
    e-/hole pair  6:  ampl =  0.1988   ( 4.0 %)
    e-/hole pair  7:  ampl =  0.1643   ( 2.7 %)
  These amplitudes account for 95.0 % of total amplitude

  Excited state 89:  10.4784 eV (singlet)
    e-/hole pair  1:  ampl =  0.5104   (26.2 %)
    e-/hole pair  2:  ampl =  0.4580   (21.1 %)
    e-/hole pair  3:  ampl =  0.4469   (20.1 %)
    e-/hole pair  4:  ampl =  0.3342   (11.2 %)
    e-/hole pair  5:  ampl =  0.2749   ( 7.6 %)
    e-/hole pair  6:  ampl =  0.2198   ( 4.9 %)
    e-/hole pair  7:  ampl =  0.1630   ( 2.7 %)
  These amplitudes account for 93.7 % of total amplitude

  Excited state 90:  10.4907 eV (singlet)
    e-/hole pair  1:  ampl =  0.5460   (29.9 %)
    e-/hole pair  2:  ampl =  0.3951   (15.7 %)
    e-/hole pair  3:  ampl =  0.3617   (13.1 %)
    e-/hole pair  4:  ampl =  0.3200   (10.3 %)
    e-/hole pair  5:  ampl =  0.2966   ( 8.8 %)
    e-/hole pair  6:  ampl =  0.2789   ( 7.8 %)
    e-/hole pair  7:  ampl =  0.2592   ( 6.7 %)
    e-/hole pair  8:  ampl =  0.1780   ( 3.2 %)
    e-/hole pair  9:  ampl =  0.1504   ( 2.3 %)
  These amplitudes account for 97.8 % of total amplitude

  Excited state 91:  10.5096 eV (singlet)
    e-/hole pair  1:  ampl =  0.5316   (28.6 %)
    e-/hole pair  2:  ampl =  0.4701   (22.3 %)
    e-/hole pair  3:  ampl =  0.3885   (15.3 %)
    e-/hole pair  4:  ampl =  0.3171   (10.2 %)
    e-/hole pair  5:  ampl =  0.2568   ( 6.7 %)
    e-/hole pair  6:  ampl =  0.2356   ( 5.6 %)
    e-/hole pair  7:  ampl =  0.1851   ( 3.5 %)
    e-/hole pair  8:  ampl =  0.1638   ( 2.7 %)
  These amplitudes account for 94.8 % of total amplitude

  Excited state 92:  10.5144 eV (singlet)
    e-/hole pair  1:  ampl =  0.6211   (38.6 %)
    e-/hole pair  2:  ampl =  0.4930   (24.3 %)
    e-/hole pair  3:  ampl =  0.2845   ( 8.1 %)
    e-/hole pair  4:  ampl =  0.2700   ( 7.3 %)
    e-/hole pair  5:  ampl =  0.2614   ( 6.8 %)
    e-/hole pair  6:  ampl =  0.2369   ( 5.6 %)
    e-/hole pair  7:  ampl =  0.2028   ( 4.1 %)
    e-/hole pair  8:  ampl =  0.1538   ( 2.4 %)
  These amplitudes account for 97.4 % of total amplitude

  Excited state 93:  10.5553 eV (singlet)
    e-/hole pair  1:  ampl =  0.6502   (42.6 %)
    e-/hole pair  2:  ampl =  0.3569   (12.8 %)
    e-/hole pair  3:  ampl =  0.3290   (10.9 %)
    e-/hole pair  4:  ampl =  0.3174   (10.1 %)
    e-/hole pair  5:  ampl =  0.3139   ( 9.9 %)
    e-/hole pair  6:  ampl =  0.2278   ( 5.2 %)
    e-/hole pair  7:  ampl =  0.2010   ( 4.1 %)
    e-/hole pair  8:  ampl =  0.1560   ( 2.5 %)
  These amplitudes account for 98.1 % of total amplitude

  Excited state 94:  10.5760 eV (singlet)
    e-/hole pair  1:  ampl =  0.5155   (26.8 %)
    e-/hole pair  2:  ampl =  0.4516   (20.5 %)
    e-/hole pair  3:  ampl =  0.3826   (14.7 %)
    e-/hole pair  4:  ampl =  0.3331   (11.2 %)
    e-/hole pair  5:  ampl =  0.3042   ( 9.3 %)
    e-/hole pair  6:  ampl =  0.2798   ( 7.9 %)
    e-/hole pair  7:  ampl =  0.2278   ( 5.2 %)
    e-/hole pair  8:  ampl =  0.1626   ( 2.7 %)
  These amplitudes account for 98.3 % of total amplitude

  Excited state 95:  10.5936 eV (singlet)
    e-/hole pair  1:  ampl =  0.6022   (36.3 %)
    e-/hole pair  2:  ampl =  0.4781   (22.9 %)
    e-/hole pair  3:  ampl =  0.3693   (13.7 %)
    e-/hole pair  4:  ampl =  0.3192   (10.2 %)
    e-/hole pair  5:  ampl =  0.2400   ( 5.8 %)
    e-/hole pair  6:  ampl =  0.2018   ( 4.1 %)
    e-/hole pair  7:  ampl =  0.1587   ( 2.5 %)
  These amplitudes account for 95.5 % of total amplitude

  Excited state 96:  10.6320 eV (singlet)
    e-/hole pair  1:  ampl =  0.5160   (26.8 %)
    e-/hole pair  2:  ampl =  0.4816   (23.4 %)
    e-/hole pair  3:  ampl =  0.4410   (19.6 %)
    e-/hole pair  4:  ampl =  0.3315   (11.1 %)
    e-/hole pair  5:  ampl =  0.2907   ( 8.5 %)
    e-/hole pair  6:  ampl =  0.1962   ( 3.9 %)
    e-/hole pair  7:  ampl =  0.1647   ( 2.7 %)
  These amplitudes account for 95.9 % of total amplitude

  Excited state 97:  10.6435 eV (singlet)
    e-/hole pair  1:  ampl =  0.5695   (32.6 %)
    e-/hole pair  2:  ampl =  0.4168   (17.4 %)
    e-/hole pair  3:  ampl =  0.4079   (16.7 %)
    e-/hole pair  4:  ampl =  0.3292   (10.9 %)
    e-/hole pair  5:  ampl =  0.2411   ( 5.8 %)
    e-/hole pair  6:  ampl =  0.2324   ( 5.4 %)
    e-/hole pair  7:  ampl =  0.2144   ( 4.6 %)
    e-/hole pair  8:  ampl =  0.1867   ( 3.5 %)
  These amplitudes account for 97.0 % of total amplitude

  Excited state 98:  10.6764 eV (singlet)
    e-/hole pair  1:  ampl =  0.6540   (43.0 %)
    e-/hole pair  2:  ampl =  0.5311   (28.4 %)
    e-/hole pair  3:  ampl =  0.3350   (11.3 %)
    e-/hole pair  4:  ampl =  0.2353   ( 5.6 %)
    e-/hole pair  5:  ampl =  0.2199   ( 4.9 %)
  These amplitudes account for 93.1 % of total amplitude

  Excited state 99:  10.7207 eV (singlet)
    e-/hole pair  1:  ampl =  0.5626   (31.7 %)
    e-/hole pair  2:  ampl =  0.4638   (21.5 %)
    e-/hole pair  3:  ampl =  0.4007   (16.1 %)
    e-/hole pair  4:  ampl =  0.3456   (12.0 %)
    e-/hole pair  5:  ampl =  0.3115   ( 9.7 %)
    e-/hole pair  6:  ampl =  0.1768   ( 3.1 %)
  These amplitudes account for 94.1 % of total amplitude

  Excited state 100:  10.7332 eV (singlet)
    e-/hole pair  1:  ampl =  0.6074   (37.0 %)
    e-/hole pair  2:  ampl =  0.5387   (29.1 %)
    e-/hole pair  3:  ampl =  0.3130   ( 9.8 %)
    e-/hole pair  4:  ampl =  0.2830   ( 8.0 %)
    e-/hole pair  5:  ampl =  0.2135   ( 4.6 %)
    e-/hole pair  6:  ampl =  0.2038   ( 4.2 %)
    e-/hole pair  7:  ampl =  0.1601   ( 2.6 %)
  These amplitudes account for 95.4 % of total amplitude

 =======================================================
 
 --------------------------------------------------------------
 
                    Orbital Energies (a.u.)
 --------------------------------------------------------------
 
 Alpha MOs
 -- Occupied --
******** -62.6745 -56.4706 -56.4664 -56.4660 -19.2990 -19.2960 -14.6921
-10.3907 -10.3827 -10.3383 -10.3358 -10.3340 -10.3305  -8.8325  -6.6568
 -6.6426  -6.6415  -2.7566  -2.7529  -2.7520  -2.7406  -2.7405  -1.3337
 -1.1602  -1.0256  -0.9362  -0.9322  -0.8643  -0.8180  -0.7465  -0.7137
 -0.6651  -0.6368  -0.6217  -0.6147  -0.5835  -0.5690  -0.5391  -0.5134
 -0.4942  -0.4714  -0.4279  -0.4206  -0.4092  -0.4028  -0.3777  -0.3691
 -0.3504
 -- Virtual --
 -0.0464   0.0135   0.0338   0.0381   0.0509   0.0665   0.0748   0.0934
  0.0974   0.0999   0.1098   0.1200   0.1252   0.1366   0.1405   0.1469
  0.1598   0.1720   0.1748   0.1807   0.1882   0.1982   0.1990   0.2040
  0.2100   0.2184   0.2259   0.2335   0.2358   0.2405   0.2466   0.2493
  0.2588   0.2629   0.2728   0.2824   0.2830   0.2970   0.2989   0.3069
  0.3167   0.3225   0.3351   0.3439   0.3489   0.3558   0.3633   0.3733
  0.3787   0.3828   0.4009   0.4268   0.4427   0.4620   0.4783   0.4897
  0.5069   0.5108   0.5282   0.5510   0.5756   0.5777   0.5840   0.5920
  0.6122   0.6170   0.6313   0.6511   0.6564   0.6622   0.6698   0.6873
  0.7049   0.7081   0.7116   0.7390   0.7714   0.7719   0.7812   0.8105
  0.8289   0.8562   0.8808   0.8878   0.8893   0.9055   0.9163   0.9289
  0.9349   0.9494   0.9988   1.0147   1.0264   1.0375   1.0474   1.0731
  1.1327   1.1437   1.1519   1.1813   1.2047   1.2248   1.2575   1.2669
  1.2762   1.2847   1.2938   1.3072   1.3242   1.3771   1.4092   1.4785
  1.5609   1.5827   1.5919   1.6058   1.7371   1.7608   1.7873   1.7899
  1.8284   1.8357   1.8618   1.8930   1.8966   1.9609   1.9711   1.9727
  2.0313   2.0486   2.1040   2.1255   2.1514   2.2214   2.2854   2.2969
  2.3004   2.3425   2.3595   2.3820   2.4291   2.4453   2.4612   2.5379
  2.5926   2.6486   2.7079   2.7860   2.8269   2.8395   2.8700   2.8946
  2.9116   2.9219   2.9560   2.9598   2.9679   3.1326   3.1410   3.1893
  3.2077   3.3151   3.3259   3.3664   3.3811   3.3873   3.4112   3.4700
  3.5813   3.6541   3.6705   3.6996   3.7425   3.8265   3.9411   4.0376
  4.0747   4.1321   4.1798   4.1898   4.3481   4.5200   4.5725   4.7624
  4.8537   5.1177   5.1334   5.1781   5.2394   5.7648   6.2794   6.8317
  7.6638   7.7868   7.8568  23.4059  23.9315  23.9488  24.1095  24.1322
 24.2318  35.4790  48.0939  50.0081  50.0908 289.9996 290.1230 290.2201
********
 --------------------------------------------------------------
 
          Ground-State Mulliken Net Atomic Charges

     Atom                 Charge (a.u.)
  ----------------------------------------
      1 C                    -0.516386
      2 C                     0.120530
      3 C                    -1.573650
      4 C                    -0.021685
      5 H                     0.265880
      6 H                     0.296375
      7 H                     0.264180
      8 N                    -0.082988
      9 O                    -0.011946
     10 O                    -0.022229
     11 C                    -0.731828
     12 H                     0.291129
     13 C                     1.816574
     14 Br                   -0.093955
  ----------------------------------------
  Sum of atomic charges =     0.000000

 -----------------------------------------------------------------
                    Cartesian Multipole Moments
 -----------------------------------------------------------------
    Charge (ESU x 10^10)
                 0.0000
    Dipole Moment (Debye)
         X      -5.2718      Y       0.8669      Z      -0.0001
       Tot       5.3426
    Quadrupole Moments (Debye-Ang)
        XX     -98.3156     XY       1.0790     YY     -65.6006
        XZ       0.1122     YZ      -1.6723     ZZ     -72.1387
    Octopole Moments (Debye-Ang^2)
       XXX    -713.6122    XXY      47.6720    XYY    -177.7203
       YYY     150.9589    XXZ       1.6035    XYZ      -8.6253
       YYZ      -0.6168    XZZ    -182.7208    YZZ      51.7272
       ZZZ      -0.9066
    Hexadecapole Moments (Debye-Ang^3)
      XXXX   -4831.0029   XXXY     409.2880   XXYY    -861.6072
      XYYY     408.5932   YYYY   -1237.9459   XXXZ      19.8778
      XXYZ     -46.2716   XYYZ       0.4516   YYYZ     -12.6958
      XXZZ    -665.2271   XYZZ     151.0127   YYZZ    -247.1214
      XZZZ       5.7369   YZZZ     -12.7937   ZZZZ     -97.3249
 -----------------------------------------------------------------
Grid information in Angstroms:
 x:         75  min =  -4.014692 max =   7.937853
 y:         75  min =  -5.959403 max =   5.193281
 z:         75  min =  -3.593622 max =   3.478295
 Plotting NTOs for the following states:  1 2 3 4 5 6 7 8 9 10 11 12 13 14 15 16 17 18 19 20 21 22 23 24 25 26 27 28 29 30 31 32 33 34 35 36 37 38 39 40 41 42 43 44 45 46 47 48 49 50 51 52 53 54 55 56 57 58 59 60 61 62 63 64 65 66 67 68 69 70 71 72 73 74 75 76 77 78 79 80 81 82 83 84 85 86 87 88 89 90 91 92 93 94 95 96 97 98 99 100
 Created directory /local_scratch/16807766/QCLOCALSCR/save/plots
 Plotting total densities:  0 1 2 3 4 5 6 7 8 9 10 11 12 13 14 15 16 17 18 19 20 21 22 23 24 25 26 27 28 29 30 31 32 33 34 35 36 37 38 39 40 41 42 43 44 45 46 47 48 49 50 51 52 53 54 55 56 57 58 59 60 61 62 63 64 65 66 67 68 69 70 71 72 73 74 75 76 77 78 79 80 81 82 83 84 85 86 87 88 89 90 91 92 93 94 95 96 97 98 99 100
 Plotting transition densities:  1 2 3 4 5 6 7 8 9 10 11 12 13 14 15 16 17 18 19 20 21 22 23 24 25 26 27 28 29 30 31 32 33 34 35 36 37 38 39 40 41 42 43 44 45 46 47 48 49 50 51 52 53 54 55 56 57 58 59 60 61 62 63 64 65 66 67 68 69 70 71 72 73 74 75 76 77 78 79 80 81 82 83 84 85 86 87 88 89 90 91 92 93 94 95 96 97 98 99 100
 Total job time:  1350.99s(wall), 13278.32s(cpu) 
 Mon May 22 12:50:40 2023

        *************************************************************
        *                                                           *
        *  Thank you very much for using Q-Chem.  Have a nice day.  *
        *                                                           *
        *************************************************************


