 Entering Gaussian System, Link 0=g16
 Initial command:
 /software/gaussian/g16-a03/l1.exe "/local_scratch/6485008/Gau-3232.inp" -scrdir="/local_scratch/6485008/"
 Entering Link 1 = /software/gaussian/g16-a03/l1.exe PID=      3235.
  
 Copyright (c) 1988,1990,1992,1993,1995,1998,2003,2009,2016,
            Gaussian, Inc.  All Rights Reserved.
  
 This is part of the Gaussian(R) 16 program.  It is based on
 the Gaussian(R) 09 system (copyright 2009, Gaussian, Inc.),
 the Gaussian(R) 03 system (copyright 2003, Gaussian, Inc.),
 the Gaussian(R) 98 system (copyright 1998, Gaussian, Inc.),
 the Gaussian(R) 94 system (copyright 1995, Gaussian, Inc.),
 the Gaussian 92(TM) system (copyright 1992, Gaussian, Inc.),
 the Gaussian 90(TM) system (copyright 1990, Gaussian, Inc.),
 the Gaussian 88(TM) system (copyright 1988, Gaussian, Inc.),
 the Gaussian 86(TM) system (copyright 1986, Carnegie Mellon
 University), and the Gaussian 82(TM) system (copyright 1983,
 Carnegie Mellon University). Gaussian is a federally registered
 trademark of Gaussian, Inc.
  
 This software contains proprietary and confidential information,
 including trade secrets, belonging to Gaussian, Inc.
  
 This software is provided under written license and may be
 used, copied, transmitted, or stored only in accord with that
 written license.
  
 The following legend is applicable only to US Government
 contracts under FAR:
  
                    RESTRICTED RIGHTS LEGEND
  
 Use, reproduction and disclosure by the US Government is
 subject to restrictions as set forth in subparagraphs (a)
 and (c) of the Commercial Computer Software - Restricted
 Rights clause in FAR 52.227-19.
  
 Gaussian, Inc.
 340 Quinnipiac St., Bldg. 40, Wallingford CT 06492
  
  
 ---------------------------------------------------------------
 Warning -- This program may not be used in any manner that
 competes with the business of Gaussian, Inc. or will provide
 assistance to any competitor of Gaussian, Inc.  The licensee
 of this program is prohibited from giving any competitor of
 Gaussian, Inc. access to this program.  By using this program,
 the user acknowledges that Gaussian, Inc. is engaged in the
 business of creating and licensing software in the field of
 computational chemistry and represents and warrants to the
 licensee that it is not a competitor of Gaussian, Inc. and that
 it will not use this program in any manner prohibited above.
 ---------------------------------------------------------------
  

 Cite this work as:
 Gaussian 16, Revision A.03,
 M. J. Frisch, G. W. Trucks, H. B. Schlegel, G. E. Scuseria, 
 M. A. Robb, J. R. Cheeseman, G. Scalmani, V. Barone, 
 G. A. Petersson, H. Nakatsuji, X. Li, M. Caricato, A. V. Marenich, 
 J. Bloino, B. G. Janesko, R. Gomperts, B. Mennucci, H. P. Hratchian, 
 J. V. Ortiz, A. F. Izmaylov, J. L. Sonnenberg, D. Williams-Young, 
 F. Ding, F. Lipparini, F. Egidi, J. Goings, B. Peng, A. Petrone, 
 T. Henderson, D. Ranasinghe, V. G. Zakrzewski, J. Gao, N. Rega, 
 G. Zheng, W. Liang, M. Hada, M. Ehara, K. Toyota, R. Fukuda, 
 J. Hasegawa, M. Ishida, T. Nakajima, Y. Honda, O. Kitao, H. Nakai, 
 T. Vreven, K. Throssell, J. A. Montgomery, Jr., J. E. Peralta, 
 F. Ogliaro, M. J. Bearpark, J. J. Heyd, E. N. Brothers, K. N. Kudin, 
 V. N. Staroverov, T. A. Keith, R. Kobayashi, J. Normand, 
 K. Raghavachari, A. P. Rendell, J. C. Burant, S. S. Iyengar, 
 J. Tomasi, M. Cossi, J. M. Millam, M. Klene, C. Adamo, R. Cammi, 
 J. W. Ochterski, R. L. Martin, K. Morokuma, O. Farkas, 
 J. B. Foresman, and D. J. Fox, Gaussian, Inc., Wallingford CT, 2016.
 
 ******************************************
 Gaussian 16:  ES64L-G16RevA.03 25-Dec-2016
                17-Sep-2021 
 ******************************************
 %chk=geometry.chk
 %mem=2GB
 %nprocshared=1
 Will use up to    1 processors via shared memory.
 --------------------------------------------------------------------
 #p B3LYP/6-311+G** #p TD=(singlets,nstates=30)IOp(6/8=3) IOp(9/40=4)
 --------------------------------------------------------------------
 1/38=1,172=1/1;
 2/12=2,17=6,18=5,40=1/2;
 3/5=4,6=6,7=111,11=9,25=1,30=1,74=-5/1,2,3,8;
 4//1;
 5/5=2,38=5/2;
 8/6=1,10=2,108=30/1;
 9/40=4,41=30,42=1,48=1,70=2/14;
 6/7=2,8=3,9=2,10=2/1;
 99/5=1,9=1/99;
 Leave Link    1 at Fri Sep 17 10:52:46 2021, MaxMem=   268435456 cpu:               0.0 elap:               0.6
 (Enter /software/gaussian/g16-a03/l101.exe)
 --------------------------------
 Scan Step 277, Bond Length 1.885
 --------------------------------
 Symbolic Z-matrix:
 Charge =  0 Multiplicity = 1
 C                     0.        0.       -0.52736 
 H                     0.        0.93726  -1.11871 
 H                     0.       -0.93726  -1.11871 
 O                     0.        0.        1.35764 
 
 ITRead=  0  0  0  0
 MicOpt= -1 -1 -1 -1
 NAtoms=      4 NQM=        4 NQMF=       0 NMMI=      0 NMMIF=      0
                NMic=       0 NMicF=      0.
                    Isotopes and Nuclear Properties:
 (Nuclear quadrupole moments (NQMom) in fm**2, nuclear magnetic moments (NMagM)
  in nuclear magnetons)

  Atom         1           2           3           4
 IAtWgt=          12           1           1          16
 AtmWgt=  12.0000000   1.0078250   1.0078250  15.9949146
 NucSpn=           0           1           1           0
 AtZEff=  -0.0000000  -0.0000000  -0.0000000  -0.0000000
 NQMom=    0.0000000   0.0000000   0.0000000   0.0000000
 NMagM=    0.0000000   2.7928460   2.7928460   0.0000000
 AtZNuc=   6.0000000   1.0000000   1.0000000   8.0000000
 Leave Link  101 at Fri Sep 17 10:52:46 2021, MaxMem=   268435456 cpu:               0.1 elap:               0.1
 (Enter /software/gaussian/g16-a03/l202.exe)
                          Input orientation:                          
 ---------------------------------------------------------------------
 Center     Atomic      Atomic             Coordinates (Angstroms)
 Number     Number       Type             X           Y           Z
 ---------------------------------------------------------------------
      1          6           0        0.000000    0.000000   -0.527360
      2          1           0        0.000000    0.937260   -1.118710
      3          1           0        0.000000   -0.937260   -1.118710
      4          8           0        0.000000    0.000000    1.357640
 ---------------------------------------------------------------------
                    Distance matrix (angstroms):
                    1          2          3          4
     1  C    0.000000
     2  H    1.108220   0.000000
     3  H    1.108220   1.874520   0.000000
     4  O    1.885000   2.647785   2.647785   0.000000
 Stoichiometry    CH2O
 Framework group  C2V[C2(CO),SGV(H2)]
 Deg. of freedom     3
 Full point group                 C2V     NOp   4
 Largest Abelian subgroup         C2V     NOp   4
 Largest concise Abelian subgroup C2      NOp   2
                         Standard orientation:                         
 ---------------------------------------------------------------------
 Center     Atomic      Atomic             Coordinates (Angstroms)
 Number     Number       Type             X           Y           Z
 ---------------------------------------------------------------------
      1          6           0        0.000000   -0.000000   -0.868581
      2          1           0        0.000000    0.937260   -1.459931
      3          1           0       -0.000000   -0.937260   -1.459931
      4          8           0        0.000000    0.000000    1.016419
 ---------------------------------------------------------------------
 Rotational constants (GHZ):         285.4183527          17.0764107          16.1124145
 Leave Link  202 at Fri Sep 17 10:52:47 2021, MaxMem=   268435456 cpu:               0.0 elap:               0.0
 (Enter /software/gaussian/g16-a03/l301.exe)
 Standard basis: 6-311+G(d,p) (5D, 7F)
 Ernie: Thresh=  0.10000D-02 Tol=  0.10000D-05 Strict=F.
 There are    29 symmetry adapted cartesian basis functions of A1  symmetry.
 There are     3 symmetry adapted cartesian basis functions of A2  symmetry.
 There are    11 symmetry adapted cartesian basis functions of B1  symmetry.
 There are    15 symmetry adapted cartesian basis functions of B2  symmetry.
 There are    27 symmetry adapted basis functions of A1  symmetry.
 There are     3 symmetry adapted basis functions of A2  symmetry.
 There are    11 symmetry adapted basis functions of B1  symmetry.
 There are    15 symmetry adapted basis functions of B2  symmetry.
    56 basis functions,    88 primitive gaussians,    58 cartesian basis functions
     8 alpha electrons        8 beta electrons
       nuclear repulsion energy        22.6850990624 Hartrees.
 IExCor=  402 DFT=T Ex+Corr=B3LYP ExCW=0 ScaHFX=  0.200000
 ScaDFX=  0.800000  0.720000  1.000000  0.810000 ScalE2=  1.000000  1.000000
 IRadAn=      5 IRanWt=     -1 IRanGd=            0 ICorTp=0 IEmpDi=  4
 NAtoms=    4 NActive=    4 NUniq=    3 SFac= 1.78D+00 NAtFMM=   60 NAOKFM=F Big=F
 Integral buffers will be    131072 words long.
 Regular integral format.
 Two-electron integral symmetry is turned on.
 Leave Link  301 at Fri Sep 17 10:52:47 2021, MaxMem=   268435456 cpu:               0.1 elap:               0.1
 (Enter /software/gaussian/g16-a03/l302.exe)
 NPDir=0 NMtPBC=     1 NCelOv=     1 NCel=       1 NClECP=     1 NCelD=      1
         NCelK=      1 NCelE2=     1 NClLst=     1 CellRange=     0.0.
 One-electron integrals computed using PRISM.
 One-electron integral symmetry used in STVInt
 NBasis=    56 RedAO= T EigKep=  1.38D-02  NBF=    27     3    11    15
 NBsUse=    56 1.00D-06 EigRej= -1.00D+00 NBFU=    27     3    11    15
 Precomputing XC quadrature grid using
 IXCGrd= 4 IRadAn=           5 IRanWt=          -1 IRanGd=           0 AccXCQ= 0.00D+00.
 Generated NRdTot=       0 NPtTot=           0 NUsed=           0 NTot=          32
 NSgBfM=    58    58    58    58    58 MxSgAt=     4 MxSgA2=     4.
 Leave Link  302 at Fri Sep 17 10:52:47 2021, MaxMem=   268435456 cpu:               0.1 elap:               0.1
 (Enter /software/gaussian/g16-a03/l303.exe)
 DipDrv:  MaxL=1.
 Leave Link  303 at Fri Sep 17 10:52:47 2021, MaxMem=   268435456 cpu:               0.0 elap:               0.0
 (Enter /software/gaussian/g16-a03/l308.exe)
 Leave Link  308 at Fri Sep 17 10:52:47 2021, MaxMem=   268435456 cpu:               0.0 elap:               0.0
 (Enter /software/gaussian/g16-a03/l401.exe)
 ExpMin= 4.38D-02 ExpMax= 8.59D+03 ExpMxC= 1.30D+03 IAcc=3 IRadAn=         5 AccDes= 0.00D+00
 Harris functional with IExCor=  402 and IRadAn=       5 diagonalized for initial guess.
 HarFok:  IExCor=  402 AccDes= 0.00D+00 IRadAn=         5 IDoV= 1 UseB2=F ITyADJ=14
 ICtDFT=  3500011 ScaDFX=  1.000000  1.000000  1.000000  1.000000
 FoFCou: FMM=F IPFlag=           0 FMFlag=      100000 FMFlg1=           0
         NFxFlg=           0 DoJE=T BraDBF=F KetDBF=T FulRan=T
         wScrn=  0.000000 ICntrl=       500 IOpCl=  0 I1Cent=   200000004 NGrid=           0
         NMat0=    1 NMatS0=      1 NMatT0=    0 NMatD0=    1 NMtDS0=    0 NMtDT0=    0
 Petite list used in FoFCou.
 Harris En= -114.370564371269    
 JPrj=0 DoOrth=F DoCkMO=F.
 Initial guess orbital symmetries:
       Occupied  (A1) (A1) (A1) (A1) (B2) (A1) (B1) (B2)
       Virtual   (B1) (A1) (A1) (B2) (A1) (B1) (A1) (B2) (A1) (B1)
                 (B2) (A1) (B2) (A1) (B1) (A1) (B2) (A1) (B1) (A2)
                 (B2) (A1) (A1) (B1) (B2) (A1) (A1) (B2) (B1) (A2)
                 (A1) (B2) (A1) (B2) (A1) (B1) (A1) (A2) (A1) (B1)
                 (B2) (A1) (B2) (B1) (B2) (A1) (A1) (A1)
 The electronic state of the initial guess is 1-A1.
 Leave Link  401 at Fri Sep 17 10:52:47 2021, MaxMem=   268435456 cpu:               0.3 elap:               0.3
 (Enter /software/gaussian/g16-a03/l502.exe)
 Keep R1 ints in memory in symmetry-blocked form, NReq=2159901.
 FoFCou: FMM=F IPFlag=           0 FMFlag=           0 FMFlg1=           0
         NFxFlg=           0 DoJE=F BraDBF=F KetDBF=F FulRan=T
         wScrn=  0.000000 ICntrl=       600 IOpCl=  0 I1Cent=           0 NGrid=           0
         NMat0=    1 NMatS0=   1596 NMatT0=    0 NMatD0=    1 NMtDS0=    0 NMtDT0=    0
 Petite list used in FoFCou.
 Closed shell SCF:
 Using DIIS extrapolation, IDIIS=  1040.
 NGot=   268435456 LenX=   268074392 LenY=   268070587
 Requested convergence on RMS density matrix=1.00D-08 within 128 cycles.
 Requested convergence on MAX density matrix=1.00D-06.
 Requested convergence on             energy=1.00D-06.
 No special actions if energy rises.

 Cycle   1  Pass 1  IDiag  1:
 E= -114.150570103195    
 DIIS: error= 7.54D-02 at cycle   1 NSaved=   1.
 NSaved= 1 IEnMin= 1 EnMin= -114.150570103195     IErMin= 1 ErrMin= 7.54D-02
 ErrMax= 7.54D-02  0.00D+00 EMaxC= 1.00D-01 BMatC= 1.78D-01 BMatP= 1.78D-01
 IDIUse=3 WtCom= 2.46D-01 WtEn= 7.54D-01
 Coeff-Com:  0.100D+01
 Coeff-En:   0.100D+01
 Coeff:      0.100D+01
 Gap=     0.012 Goal=   None    Shift=    0.000
 GapD=    0.012 DampG=0.250 DampE=0.500 DampFc=0.2500 IDamp=-1.
 Damping current iteration by 2.50D-01
 RMSDP=4.05D-02 MaxDP=7.31D-01              OVMax= 9.36D-01

 Cycle   2  Pass 1  IDiag  1:
 E= -114.016104895933     Delta-E=        0.134465207262 Rises=F Damp=T
 DIIS: error= 3.85D-02 at cycle   2 NSaved=   2.
 NSaved= 2 IEnMin= 1 EnMin= -114.150570103195     IErMin= 2 ErrMin= 3.85D-02
 ErrMax= 3.85D-02  0.00D+00 EMaxC= 1.00D-01 BMatC= 5.04D-02 BMatP= 1.78D-01
 IDIUse=3 WtCom= 6.15D-01 WtEn= 3.85D-01
 Coeff-Com:  0.330D+00 0.670D+00
 Coeff-En:   0.657D+00 0.343D+00
 Coeff:      0.456D+00 0.544D+00
 Gap=     0.031 Goal=   None    Shift=    0.000
 RMSDP=9.83D-03 MaxDP=1.74D-01 DE= 1.34D-01 OVMax= 4.05D-01

 Cycle   3  Pass 1  IDiag  1:
 E= -114.292572068153     Delta-E=       -0.276467172220 Rises=F Damp=F
 DIIS: error= 4.47D-02 at cycle   3 NSaved=   3.
 NSaved= 3 IEnMin= 3 EnMin= -114.292572068153     IErMin= 2 ErrMin= 3.85D-02
 ErrMax= 4.47D-02  0.00D+00 EMaxC= 1.00D-01 BMatC= 4.72D-02 BMatP= 5.04D-02
 IDIUse=3 WtCom= 5.53D-01 WtEn= 4.47D-01
 Coeff-Com:  0.334D+00 0.371D-01 0.629D+00
 Coeff-En:   0.270D+00 0.000D+00 0.730D+00
 Coeff:      0.305D+00 0.205D-01 0.674D+00
 Gap=     0.108 Goal=   None    Shift=    0.000
 RMSDP=1.96D-03 MaxDP=2.23D-02 DE=-2.76D-01 OVMax= 9.66D-02

 Cycle   4  Pass 1  IDiag  1:
 E= -114.327642524085     Delta-E=       -0.035070455932 Rises=F Damp=F
 DIIS: error= 8.45D-03 at cycle   4 NSaved=   4.
 NSaved= 4 IEnMin= 4 EnMin= -114.327642524085     IErMin= 4 ErrMin= 8.45D-03
 ErrMax= 8.45D-03  0.00D+00 EMaxC= 1.00D-01 BMatC= 1.96D-03 BMatP= 4.72D-02
 IDIUse=3 WtCom= 9.16D-01 WtEn= 8.45D-02
 Coeff-Com:  0.542D-01 0.114D-01 0.225D+00 0.710D+00
 Coeff-En:   0.000D+00 0.000D+00 0.102D+00 0.898D+00
 Coeff:      0.496D-01 0.104D-01 0.214D+00 0.726D+00
 Gap=     0.105 Goal=   None    Shift=    0.000
 RMSDP=6.39D-04 MaxDP=1.22D-02 DE=-3.51D-02 OVMax= 3.64D-02

 Cycle   5  Pass 1  IDiag  1:
 E= -114.328577157212     Delta-E=       -0.000934633127 Rises=F Damp=F
 DIIS: error= 6.85D-03 at cycle   5 NSaved=   5.
 NSaved= 5 IEnMin= 5 EnMin= -114.328577157212     IErMin= 5 ErrMin= 6.85D-03
 ErrMax= 6.85D-03  0.00D+00 EMaxC= 1.00D-01 BMatC= 9.27D-04 BMatP= 1.96D-03
 IDIUse=3 WtCom= 9.32D-01 WtEn= 6.85D-02
 Coeff-Com:  0.606D-02-0.221D-01 0.169D-01 0.369D+00 0.630D+00
 Coeff-En:   0.000D+00 0.000D+00 0.000D+00 0.387D+00 0.613D+00
 Coeff:      0.565D-02-0.206D-01 0.157D-01 0.370D+00 0.629D+00
 Gap=     0.109 Goal=   None    Shift=    0.000
 RMSDP=2.10D-04 MaxDP=4.14D-03 DE=-9.35D-04 OVMax= 1.01D-02

 Cycle   6  Pass 1  IDiag  1:
 E= -114.329411396021     Delta-E=       -0.000834238809 Rises=F Damp=F
 DIIS: error= 2.07D-03 at cycle   6 NSaved=   6.
 NSaved= 6 IEnMin= 6 EnMin= -114.329411396021     IErMin= 6 ErrMin= 2.07D-03
 ErrMax= 2.07D-03  0.00D+00 EMaxC= 1.00D-01 BMatC= 7.50D-05 BMatP= 9.27D-04
 IDIUse=3 WtCom= 9.79D-01 WtEn= 2.07D-02
 Coeff-Com:  0.102D-01-0.854D-02-0.158D-01-0.592D-01-0.115D+00 0.119D+01
 Coeff-En:   0.000D+00 0.000D+00 0.000D+00 0.490D-01 0.000D+00 0.951D+00
 Coeff:      0.997D-02-0.837D-02-0.155D-01-0.570D-01-0.112D+00 0.118D+01
 Gap=     0.110 Goal=   None    Shift=    0.000
 RMSDP=3.77D-05 MaxDP=4.00D-04 DE=-8.34D-04 OVMax= 1.80D-03

 Cycle   7  Pass 1  IDiag  1:
 E= -114.329462695734     Delta-E=       -0.000051299714 Rises=F Damp=F
 DIIS: error= 1.08D-03 at cycle   7 NSaved=   7.
 NSaved= 7 IEnMin= 7 EnMin= -114.329462695734     IErMin= 7 ErrMin= 1.08D-03
 ErrMax= 1.08D-03  0.00D+00 EMaxC= 1.00D-01 BMatC= 1.91D-05 BMatP= 7.50D-05
 IDIUse=3 WtCom= 9.89D-01 WtEn= 1.08D-02
 Coeff-Com:  0.156D-02-0.258D-03-0.211D-02-0.124D-01-0.753D-01-0.449D+00
 Coeff-Com:  0.154D+01
 Coeff-En:   0.000D+00 0.000D+00 0.000D+00 0.000D+00 0.000D+00 0.000D+00
 Coeff-En:   0.100D+01
 Coeff:      0.154D-02-0.255D-03-0.209D-02-0.123D-01-0.745D-01-0.444D+00
 Coeff:      0.153D+01
 Gap=     0.110 Goal=   None    Shift=    0.000
 RMSDP=4.70D-05 MaxDP=6.34D-04 DE=-5.13D-05 OVMax= 3.16D-03

 Cycle   8  Pass 1  IDiag  1:
 E= -114.329480498005     Delta-E=       -0.000017802271 Rises=F Damp=F
 DIIS: error= 2.20D-04 at cycle   8 NSaved=   8.
 NSaved= 8 IEnMin= 8 EnMin= -114.329480498005     IErMin= 8 ErrMin= 2.20D-04
 ErrMax= 2.20D-04  0.00D+00 EMaxC= 1.00D-01 BMatC= 9.62D-07 BMatP= 1.91D-05
 IDIUse=3 WtCom= 9.98D-01 WtEn= 2.20D-03
 Coeff-Com: -0.455D-03 0.169D-03 0.947D-03 0.105D-01 0.110D-01-0.767D-01
 Coeff-Com:  0.256D+00 0.799D+00
 Coeff-En:   0.000D+00 0.000D+00 0.000D+00 0.000D+00 0.000D+00 0.000D+00
 Coeff-En:   0.125D+00 0.875D+00
 Coeff:     -0.454D-03 0.169D-03 0.945D-03 0.104D-01 0.109D-01-0.765D-01
 Coeff:      0.256D+00 0.799D+00
 Gap=     0.110 Goal=   None    Shift=    0.000
 RMSDP=7.37D-06 MaxDP=7.30D-05 DE=-1.78D-05 OVMax= 3.27D-04

 Cycle   9  Pass 1  IDiag  1:
 E= -114.329481277617     Delta-E=       -0.000000779612 Rises=F Damp=F
 DIIS: error= 8.99D-05 at cycle   9 NSaved=   9.
 NSaved= 9 IEnMin= 9 EnMin= -114.329481277617     IErMin= 9 ErrMin= 8.99D-05
 ErrMax= 8.99D-05  0.00D+00 EMaxC= 1.00D-01 BMatC= 1.60D-07 BMatP= 9.62D-07
 IDIUse=1 WtCom= 1.00D+00 WtEn= 0.00D+00
 Coeff-Com: -0.877D-04 0.583D-04 0.215D-04 0.119D-02 0.524D-02 0.532D-01
 Coeff-Com: -0.675D-01-0.144D+00 0.115D+01
 Coeff:     -0.877D-04 0.583D-04 0.215D-04 0.119D-02 0.524D-02 0.532D-01
 Coeff:     -0.675D-01-0.144D+00 0.115D+01
 Gap=     0.110 Goal=   None    Shift=    0.000
 RMSDP=3.13D-06 MaxDP=3.60D-05 DE=-7.80D-07 OVMax= 1.60D-04

 Cycle  10  Pass 1  IDiag  1:
 E= -114.329481420996     Delta-E=       -0.000000143379 Rises=F Damp=F
 DIIS: error= 1.84D-05 at cycle  10 NSaved=  10.
 NSaved=10 IEnMin=10 EnMin= -114.329481420996     IErMin=10 ErrMin= 1.84D-05
 ErrMax= 1.84D-05  0.00D+00 EMaxC= 1.00D-01 BMatC= 6.26D-09 BMatP= 1.60D-07
 IDIUse=1 WtCom= 1.00D+00 WtEn= 0.00D+00
 Coeff-Com: -0.766D-05 0.258D-05 0.210D-04 0.129D-03-0.347D-03 0.122D-02
 Coeff-Com:  0.874D-02-0.529D-02-0.986D-01 0.109D+01
 Coeff:     -0.766D-05 0.258D-05 0.210D-04 0.129D-03-0.347D-03 0.122D-02
 Coeff:      0.874D-02-0.529D-02-0.986D-01 0.109D+01
 Gap=     0.110 Goal=   None    Shift=    0.000
 RMSDP=6.62D-07 MaxDP=7.20D-06 DE=-1.43D-07 OVMax= 3.26D-05

 Cycle  11  Pass 1  IDiag  1:
 E= -114.329481426822     Delta-E=       -0.000000005826 Rises=F Damp=F
 DIIS: error= 9.54D-07 at cycle  11 NSaved=  11.
 NSaved=11 IEnMin=11 EnMin= -114.329481426822     IErMin=11 ErrMin= 9.54D-07
 ErrMax= 9.54D-07  0.00D+00 EMaxC= 1.00D-01 BMatC= 1.70D-11 BMatP= 6.26D-09
 IDIUse=1 WtCom= 1.00D+00 WtEn= 0.00D+00
 Coeff-Com:  0.280D-06 0.667D-06-0.298D-05-0.115D-04-0.417D-04-0.355D-03
 Coeff-Com:  0.791D-03 0.113D-02-0.149D-01-0.393D-02 0.102D+01
 Coeff:      0.280D-06 0.667D-06-0.298D-05-0.115D-04-0.417D-04-0.355D-03
 Coeff:      0.791D-03 0.113D-02-0.149D-01-0.393D-02 0.102D+01
 Gap=     0.110 Goal=   None    Shift=    0.000
 RMSDP=3.20D-08 MaxDP=3.73D-07 DE=-5.83D-09 OVMax= 1.63D-06

 Cycle  12  Pass 1  IDiag  1:
 E= -114.329481426838     Delta-E=       -0.000000000016 Rises=F Damp=F
 DIIS: error= 1.51D-07 at cycle  12 NSaved=  12.
 NSaved=12 IEnMin=12 EnMin= -114.329481426838     IErMin=12 ErrMin= 1.51D-07
 ErrMax= 1.51D-07  0.00D+00 EMaxC= 1.00D-01 BMatC= 3.91D-13 BMatP= 1.70D-11
 IDIUse=1 WtCom= 1.00D+00 WtEn= 0.00D+00
 Coeff-Com:  0.309D-07 0.160D-07 0.180D-06 0.186D-05 0.490D-07-0.255D-04
 Coeff-Com:  0.887D-04 0.315D-03-0.895D-03-0.693D-02 0.270D-01 0.980D+00
 Coeff:      0.309D-07 0.160D-07 0.180D-06 0.186D-05 0.490D-07-0.255D-04
 Coeff:      0.887D-04 0.315D-03-0.895D-03-0.693D-02 0.270D-01 0.980D+00
 Gap=     0.110 Goal=   None    Shift=    0.000
 RMSDP=5.55D-09 MaxDP=7.86D-08 DE=-1.57D-11 OVMax= 3.65D-07

 SCF Done:  E(RB3LYP) =  -114.329481427     A.U. after   12 cycles
            NFock= 12  Conv=0.55D-08     -V/T= 2.0090
 KE= 1.133088045535D+02 PE=-3.137665056987D+02 EE= 6.344312065602D+01
 Leave Link  502 at Fri Sep 17 10:52:49 2021, MaxMem=   268435456 cpu:               2.1 elap:               2.4
 (Enter /software/gaussian/g16-a03/l801.exe)
 DoSCS=F DFT=T ScalE2(SS,OS)=  1.000000  1.000000
 ExpMin= 4.38D-02 ExpMax= 8.59D+03 ExpMxC= 1.30D+03 IAcc=3 IRadAn=         5 AccDes= 0.00D+00
 HarFok:  IExCor=  205 AccDes= 0.00D+00 IRadAn=         5 IDoV=-2 UseB2=F ITyADJ=14
 ICtDFT= 12500011 ScaDFX=  1.000000  1.000000  1.000000  1.000000
 Largest valence mixing into a core orbital is  5.43D-05
 Largest core mixing into a valence orbital is  1.28D-05
 Range of M.O.s used for correlation:     3    56
 NBasis=    56 NAE=     8 NBE=     8 NFC=     2 NFV=     0
 NROrb=     54 NOA=     6 NOB=     6 NVA=    48 NVB=    48
 Leave Link  801 at Fri Sep 17 10:52:50 2021, MaxMem=   268435456 cpu:               0.2 elap:               0.2
 (Enter /software/gaussian/g16-a03/l914.exe)
 RHF ground state
 Keep R1, R2, and R3 ints in memory in symmetry-blocked form, NReq=6042840.
 FoFCou: FMM=F IPFlag=           0 FMFlag=           0 FMFlg1=           0
         NFxFlg=           0 DoJE=F BraDBF=F KetDBF=F FulRan=T
         wScrn=  0.000000 ICntrl=       600 IOpCl=  0 I1Cent=           0 NGrid=           0
         NMat0=    1 NMatS0=   1596 NMatT0=    0 NMatD0=    1 NMtDS0=    0 NMtDT0=    0
 Petite list used in FoFCou.
 MDV=   268435456 DFT=T DoStab=F Mixed=T DoRPA=T DoScal=F NonHer=T
 Making orbital integer symmetry assigments:
 Orbital symmetries:
       Occupied  (A1) (A1) (A1) (A1) (B2) (A1) (B1) (B2)
       Virtual   (B1) (A1) (A1) (B2) (B1) (A1) (A1) (B2) (A1) (B1)
                 (B2) (A1) (A1) (B2) (B1) (A1) (B2) (A1) (A2) (B1)
                 (B2) (A1) (B1) (A1) (B2) (A1) (B2) (A1) (B1) (A2)
                 (A1) (B2) (A1) (B2) (A1) (B1) (A1) (A2) (B1) (A1)
                 (B2) (A1) (B2) (B1) (B2) (A1) (A1) (A1)
   120 initial guesses have been made.
 Convergence on wavefunction:    0.001000000000000
 Davidson Disk Diagonalization:  ConvIn= 1.00D-03 SkipCon=T Conv= 1.00D-03.
 Max sub-space:  1728 roots to seek:   120 dimension of matrix:          576
 Iteration     1 Dimension   120 NMult     0 NNew    120
 CISAX will form   120 AO SS matrices at one time.
 NMat=   120 NSing=   120 JSym2X=-1.
 New state      6 was old state      9
 New state      7 was old state      6
 New state      9 was old state     10
 New state     10 was old state     11
 New state     11 was old state     13
 New state     13 was old state     14
 New state     14 was old state     15
 New state     15 was old state     16
 New state     16 was old state     19
 New state     17 was old state     18
 New state     18 was old state     17
 New state     19 was old state     20
 New state     20 was old state     21
 New state     21 was old state     22
 New state     22 was old state     24
 New state     24 was old state     25
 New state     25 was old state     30
 New state     26 was old state     28
 New state     27 was old state     26
 New state     28 was old state     27
 New state     30 was old state     32
 Excitation Energies [eV] at current iteration:
 Root      1 :     1.183408051827874
 Root      2 :     3.108782065258950
 Root      3 :     3.291111831128460
 Root      4 :     3.521520197860271
 Root      5 :     4.063825613663900
 Root      6 :     6.823511190476862
 Root      7 :     6.850543043335396
 Root      8 :     7.222305329007606
 Root      9 :     7.986034290276886
 Root     10 :     8.353993627379523
 Root     11 :     8.446313718322296
 Root     12 :     8.554607091319099
 Root     13 :     8.834185583234612
 Root     14 :     8.887772968611680
 Root     15 :     9.030791557212584
 Root     16 :     9.574779606823036
 Root     17 :     9.606581626128383
 Root     18 :     9.978587810340734
 Root     19 :    10.312641980732190
 Root     20 :    10.520381231916530
 Root     21 :    10.535689823739350
 Root     22 :    10.733574533331640
 Root     23 :    11.071019612124500
 Root     24 :    11.443565098377260
 Root     25 :    11.730056370919070
 Root     26 :    11.974505679755400
 Root     27 :    12.015068320411990
 Root     28 :    12.204709333837530
 Root     29 :    12.496426794800960
 Root     30 :    12.788235829518210
 Root     31 :    12.881475443082940
 Root     32 :    13.463608016429380
 Root     33 :    13.695013058994880
 Root     34 :    13.946633336195020
 Root     35 :    14.045634815132940
 Root     36 :    14.102846387558700
 Root     37 :    14.381451857908070
 Root     38 :    14.764789007580090
 Root     39 :    14.838430080818020
 Root     40 :    15.320749191549970
 Root     41 :    15.443307318630450
 Root     42 :    15.630276542146720
 Root     43 :    15.679497962119280
 Root     44 :    16.002115303956810
 Root     45 :    16.965675629104550
 Root     46 :    17.315707764495540
 Root     47 :    17.376431816673980
 Root     48 :    17.603467451125640
 Root     49 :    17.626034547781230
 Root     50 :    17.646616588122470
 Root     51 :    17.848376231003050
 Root     52 :    18.164827545210900
 Root     53 :    18.725787692669840
 Root     54 :    18.860407414378070
 Root     55 :    19.151861182231490
 Root     56 :    19.592569447504050
 Root     57 :    19.866869275514400
 Root     58 :    20.093161046504720
 Root     59 :    20.187855781967190
 Root     60 :    20.261854383264190
 Root     61 :    20.292512051837640
 Root     62 :    20.669223555418720
 Root     63 :    20.934882315785250
 Root     64 :    21.129595552225790
 Root     65 :    21.397409736582620
 Root     66 :    21.720867786077880
 Root     67 :    22.003532833365650
 Root     68 :    22.007773763347610
 Root     69 :    22.282252494587960
 Root     70 :    22.344547589607170
 Root     71 :    22.532962899594850
 Root     72 :    23.214257509359290
 Root     73 :    23.267104262043600
 Root     74 :    23.748572219432710
 Root     75 :    23.768016530881570
 Root     76 :    24.140683070601200
 Root     77 :    24.259229916418170
 Root     78 :    24.347996556290440
 Root     79 :    24.463644925009930
 Root     80 :    24.904815650503370
 Root     81 :    24.934977969134090
 Root     82 :    25.093416210188030
 Root     83 :    25.179626059101820
 Root     84 :    25.228278057135180
 Root     85 :    25.489923733686630
 Root     86 :    26.304590168830190
 Root     87 :    26.550046032313650
 Root     88 :    26.691861984540030
 Root     89 :    26.740029593117840
 Root     90 :    27.626964824785960
 Root     91 :    28.055256634904090
 Root     92 :    28.695287142737840
 Root     93 :    28.832490908212340
 Root     94 :    29.260920637009970
 Root     95 :    29.508752895452240
 Root     96 :    29.515071551308970
 Root     97 :    30.541510591530180
 Root     98 :    31.217602187190760
 Root     99 :    31.580877392839490
 Root    100 :    32.796515094746500
 Root    101 :    33.108429792596620
 Root    102 :    33.224907507281010
 Root    103 :    33.612476995886890
 Root    104 :    33.620909633928570
 Root    105 :    33.635047569102600
 Root    106 :    33.869121769140660
 Root    107 :    33.871560099274030
 Root    108 :    34.619614632078270
 Root    109 :    35.121901889810250
 Root    110 :    35.160880362529960
 Root    111 :    35.317475514420040
 Root    112 :    35.905613709728510
 Root    113 :    36.548992708503200
 Root    114 :    36.581850051598440
 Root    115 :    37.431781706909330
 Root    116 :    37.491193174487290
 Root    117 :    38.180733350552370
 Root    118 :    38.427647115297670
 Root    119 :    39.734722591444950
 Root    120 :    42.876907578939080
 Iteration     2 Dimension   180 NMult   120 NNew     60
 CISAX will form    60 AO SS matrices at one time.
 NMat=    60 NSing=    60 JSym2X=-1.
 Root      1 not converged, maximum delta is    0.006685716394273
 Root      2 not converged, maximum delta is    0.008992105757582
 Root      3 not converged, maximum delta is    0.007984670407733
 Root      4 not converged, maximum delta is    0.007738716493084
 Root      5 not converged, maximum delta is    0.009023654824498
 Root      6 not converged, maximum delta is    0.011636571801356
 Root      7 not converged, maximum delta is    0.002379625257448
 Root      8 not converged, maximum delta is    0.002506514427030
 Root      9 not converged, maximum delta is    0.001703508889672
 Root     10 not converged, maximum delta is    0.001370229004344
 Root     11 not converged, maximum delta is    0.002865106148925
 Root     12 not converged, maximum delta is    0.001904741994195
 Root     13 not converged, maximum delta is    0.017309144599296
 Root     14 not converged, maximum delta is    0.002493958565814
 Root     15 not converged, maximum delta is    0.012950983629823
 Root     16 not converged, maximum delta is    0.007000462832138
 Root     17 not converged, maximum delta is    0.009843427398264
 Root     18 not converged, maximum delta is    0.004816862437841
 Root     19 not converged, maximum delta is    0.005420958612750
 Root     20 not converged, maximum delta is    0.005108072474667
 Root     21 not converged, maximum delta is    0.003778686481072
 Root     22 not converged, maximum delta is    0.010085045424099
 Root     23 not converged, maximum delta is    0.001715553157506
 Root     24 not converged, maximum delta is    0.004564511832536
 Root     25 not converged, maximum delta is    0.009206700167721
 Root     26 not converged, maximum delta is    0.007268644980166
 Root     27 not converged, maximum delta is    0.003082755452486
 Root     28 not converged, maximum delta is    0.004828325384545
 Root     29 not converged, maximum delta is    0.007127551637178
 Root     30 not converged, maximum delta is    0.009219229221922
 Excitation Energies [eV] at current iteration:
 Root      1 :     1.176225436998351   Change is   -0.007182614829523
 Root      2 :     3.090600625618110   Change is   -0.018181439640839
 Root      3 :     3.268327007521516   Change is   -0.022784823606944
 Root      4 :     3.505016519927596   Change is   -0.016503677932675
 Root      5 :     4.044854335505864   Change is   -0.018971278158036
 Root      6 :     6.807206573434796   Change is   -0.016304617042066
 Root      7 :     6.848779134448539   Change is   -0.001763908886857
 Root      8 :     7.221322074911488   Change is   -0.000983254096118
 Root      9 :     7.985111451132108   Change is   -0.000922839144778
 Root     10 :     8.353520672107088   Change is   -0.000472955272436
 Root     11 :     8.444270038547740   Change is   -0.002043679774555
 Root     12 :     8.554231691131411   Change is   -0.000375400187687
 Root     13 :     8.817757294367988   Change is   -0.016428288866624
 Root     14 :     8.886520601722003   Change is   -0.001252366889676
 Root     15 :     9.026174094976751   Change is   -0.004617462235834
 Root     16 :     9.565945456194619   Change is   -0.008834150628416
 Root     17 :     9.584011928447632   Change is   -0.022569697680750
 Root     18 :     9.977351519568554   Change is   -0.001236290772179
 Root     19 :    10.309792769298930   Change is   -0.002849211433262
 Root     20 :    10.517132985776570   Change is   -0.003248246139961
 Root     21 :    10.533506601840200   Change is   -0.002183221899153
 Root     22 :    10.719415567058870   Change is   -0.014158966272773
 Root     23 :    11.070253092538130   Change is   -0.000766519586369
 Root     24 :    11.435731964287640   Change is   -0.007833134089629
 Root     25 :    11.707251957078710   Change is   -0.022804413840361
 Root     26 :    11.970237920507190   Change is   -0.004267759248210
 Root     27 :    12.011331959932010   Change is   -0.003736360479976
 Root     28 :    12.199483589026360   Change is   -0.005225744811172
 Root     29 :    12.488468504103320   Change is   -0.007958290697637
 Root     30 :    12.782148655575060   Change is   -0.006087173943145
 Iteration     3 Dimension   240 NMult   180 NNew     60
 CISAX will form    60 AO SS matrices at one time.
 NMat=    60 NSing=    60 JSym2X=-1.
 Root      1 has converged.
 Root      2 has converged.
 Root      3 has converged.
 Root      4 has converged.
 Root      5 has converged.
 Root      6 has converged.
 Root      7 has converged.
 Root      8 has converged.
 Root      9 has converged.
 Root     10 has converged.
 Root     11 has converged.
 Root     12 has converged.
 Root     13 has converged.
 Root     14 has converged.
 Root     15 has converged.
 Root     16 has converged.
 Root     17 has converged.
 Root     18 has converged.
 Root     19 has converged.
 Root     20 has converged.
 Root     21 has converged.
 Root     22 has converged.
 Root     23 has converged.
 Root     24 has converged.
 Root     25 has converged.
 Root     26 has converged.
 Root     27 has converged.
 Root     28 has converged.
 Root     29 has converged.
 Root     30 has converged.
 Excitation Energies [eV] at current iteration:
 Root      1 :     1.176224462027760   Change is   -0.000000974970591
 Root      2 :     3.090584548135633   Change is   -0.000016077482478
 Root      3 :     3.268320951775415   Change is   -0.000006055746101
 Root      4 :     3.505012668669699   Change is   -0.000003851257896
 Root      5 :     4.044849014084893   Change is   -0.000005321420970
 Root      6 :     6.807202142703794   Change is   -0.000004430731002
 Root      7 :     6.848778460425844   Change is   -0.000000674022695
 Root      8 :     7.221321776065779   Change is   -0.000000298845709
 Root      9 :     7.985109935196753   Change is   -0.000001515935354
 Root     10 :     8.353520468360431   Change is   -0.000000203746657
 Root     11 :     8.444269160297836   Change is   -0.000000878249905
 Root     12 :     8.554231612513997   Change is   -0.000000078617414
 Root     13 :     8.817733281577249   Change is   -0.000024012790739
 Root     14 :     8.886520124402384   Change is   -0.000000477319619
 Root     15 :     9.026164483020835   Change is   -0.000009611955914
 Root     16 :     9.565931359435920   Change is   -0.000014096758699
 Root     17 :     9.583987118539161   Change is   -0.000024809908471
 Root     18 :     9.977350412491257   Change is   -0.000001107077298
 Root     19 :    10.309789765543000   Change is   -0.000003003755926
 Root     20 :    10.517129265605780   Change is   -0.000003720170788
 Root     21 :    10.533503926501400   Change is   -0.000002675338799
 Root     22 :    10.719381535388420   Change is   -0.000034031670445
 Root     23 :    11.070252776741440   Change is   -0.000000315796692
 Root     24 :    11.435726580495780   Change is   -0.000005383791850
 Root     25 :    11.707203302744570   Change is   -0.000048654334135
 Root     26 :    11.970236134163410   Change is   -0.000001786343781
 Root     27 :    12.011327908231250   Change is   -0.000004051700760
 Root     28 :    12.199475822020300   Change is   -0.000007767006065
 Root     29 :    12.488446897352000   Change is   -0.000021606751324
 Root     30 :    12.782134818945600   Change is   -0.000013836629466
 Convergence achieved on expansion vectors.
 ***********************************************************************
 Excited states from <AA,BB:AA,BB> singles matrix:
 ***********************************************************************
 
 1PDM for each excited state written to RWF  633
 Ground to excited state transition densities written to RWF  633
 Ground to excited state transition electric dipole moments (Au):
       state          X           Y           Z        Dip. S.      Osc.
         1         0.0000     -0.0000     -0.0000      0.0000      0.0000
         2         0.0000      0.0000      0.5792      0.3354      0.0254
         3        -0.0000     -0.1521     -0.0000      0.0231      0.0019
         4         0.0101     -0.0000     -0.0000      0.0001      0.0000
         5        -0.2511      0.0000      0.0000      0.0630      0.0062
         6         0.0000      0.0000     -0.0000      0.0000      0.0000
         7         0.0000     -0.1170     -0.0000      0.0137      0.0023
         8        -0.6023     -0.0000      0.0000      0.3628      0.0642
         9         0.0000     -0.0000     -0.3569      0.1274      0.0249
        10        -0.0000      0.0000     -0.0000      0.0000      0.0000
        11         0.0000     -0.4323     -0.0000      0.1869      0.0387
        12        -0.0000     -0.0000      0.0000      0.0000      0.0000
        13         0.0000     -0.0000     -1.3727      1.8842      0.4071
        14        -0.4511      0.0000     -0.0000      0.2035      0.0443
        15         0.0000      0.0000     -0.6728      0.4527      0.1001
        16        -0.0000     -0.0000     -0.5422      0.2940      0.0689
        17         0.0000      0.0712     -0.0000      0.0051      0.0012
        18         0.0000     -0.2435      0.0000      0.0593      0.0145
        19        -0.4487      0.0000      0.0000      0.2014      0.0509
        20        -0.0000     -0.2294     -0.0000      0.0526      0.0136
        21        -0.0000      0.0000     -0.0000      0.0000      0.0000
        22        -0.0000      0.0000     -0.8348      0.6969      0.1830
        23        -0.0627      0.0000      0.0000      0.0039      0.0011
        24        -0.0000     -0.1230      0.0000      0.0151      0.0042
        25        -0.0000      0.0000      1.1011      1.2124      0.3478
        26        -0.0000      0.0000     -0.0000      0.0000      0.0000
        27         0.0625     -0.0000     -0.0000      0.0039      0.0012
        28         0.0000     -0.6613      0.0000      0.4373      0.1307
        29         0.0000     -0.0000      0.4087      0.1671      0.0511
        30         0.0000     -0.0000     -0.4662      0.2174      0.0681
 Ground to excited state transition velocity dipole moments (Au):
       state          X           Y           Z        Dip. S.      Osc.
         1        -0.0000     -0.0000      0.0000      0.0000      0.0000
         2        -0.0000      0.0000     -0.0562      0.0032      0.0185
         3         0.0000      0.0154      0.0000      0.0002      0.0013
         4        -0.0234      0.0000      0.0000      0.0005      0.0028
         5         0.0390     -0.0000     -0.0000      0.0015      0.0068
         6        -0.0000      0.0000     -0.0000      0.0000      0.0000
         7         0.0000      0.0246      0.0000      0.0006      0.0016
         8         0.1627      0.0000     -0.0000      0.0265      0.0665
         9         0.0000      0.0000      0.1019      0.0104      0.0236
        10        -0.0000     -0.0000     -0.0000      0.0000      0.0000
        11        -0.0000      0.1359      0.0000      0.0185      0.0397
        12         0.0000      0.0000     -0.0000      0.0000      0.0000
        13        -0.0000     -0.0000      0.4442      0.1973      0.4059
        14         0.1548      0.0000      0.0000      0.0240      0.0489
        15        -0.0000     -0.0000      0.2256      0.0509      0.1023
        16         0.0000      0.0000      0.1974      0.0390      0.0739
        17        -0.0000     -0.0303      0.0000      0.0009      0.0017
        18         0.0000      0.0945     -0.0000      0.0089      0.0162
        19         0.1527     -0.0000     -0.0000      0.0233      0.0411
        20         0.0000      0.0880      0.0000      0.0077      0.0133
        21         0.0000     -0.0000      0.0000      0.0000      0.0000
        22         0.0000     -0.0000      0.3298      0.1088      0.1841
        23         0.0192     -0.0000     -0.0000      0.0004      0.0006
        24        -0.0000      0.0467     -0.0000      0.0022      0.0035
        25         0.0000     -0.0000     -0.4530      0.2052      0.3180
        26         0.0000     -0.0000      0.0000      0.0000      0.0000
        27        -0.0173      0.0000      0.0000      0.0003      0.0005
        28        -0.0000      0.2934     -0.0000      0.0861      0.1280
        29        -0.0000      0.0000     -0.1778      0.0316      0.0459
        30        -0.0000      0.0000      0.2069      0.0428      0.0608
 Ground to excited state transition magnetic dipole moments (Au):
       state          X           Y           Z
         1         0.0000     -0.0000      0.9381
         2         0.0000     -0.0000     -0.0000
         3         0.6195      0.0000      0.0000
         4         0.0000     -2.0015      0.0000
         5        -0.0000      0.1241      0.0000
         6         0.0000     -0.0000     -1.0969
         7        -0.2923      0.0000     -0.0000
         8        -0.0000     -0.1402     -0.0000
         9         0.0000     -0.0000      0.0000
        10        -0.0000      0.0000      0.0238
        11        -0.5216      0.0000      0.0000
        12        -0.0000     -0.0000     -0.0015
        13         0.0000     -0.0000     -0.0000
        14         0.0000      0.2480     -0.0000
        15        -0.0000     -0.0000     -0.0000
        16        -0.0000      0.0000     -0.0000
        17         0.8196     -0.0000      0.0000
        18         0.1643     -0.0000     -0.0000
        19        -0.0000      0.1668      0.0000
        20         0.0764      0.0000     -0.0000
        21         0.0000     -0.0000     -0.0768
        22        -0.0000      0.0000      0.0000
        23        -0.0000      0.0648     -0.0000
        24        -0.0040      0.0000      0.0000
        25        -0.0000     -0.0000      0.0000
        26        -0.0000     -0.0000     -0.0267
        27         0.0000      0.1148     -0.0000
        28         0.7668      0.0000      0.0000
        29        -0.0000      0.0000     -0.0000
        30        -0.0000      0.0000     -0.0000
 Ground to excited state transition velocity quadrupole moments (Au):
       state          XX          YY          ZZ          XY          XZ          YZ
         1         0.0000     -0.0000      0.0000     -0.0235     -0.0000      0.0000
         2         0.0412     -0.0072     -0.0259      0.0000     -0.0000     -0.0000
         3        -0.0000     -0.0000     -0.0000     -0.0000      0.0000      0.0256
         4        -0.0000      0.0000     -0.0000     -0.0000     -0.0126     -0.0000
         5        -0.0000     -0.0000      0.0000     -0.0000      0.1253      0.0000
         6         0.0000     -0.0000     -0.0000      0.1721      0.0000     -0.0000
         7        -0.0000      0.0000      0.0000      0.0000      0.0000      0.2168
         8         0.0000     -0.0000      0.0000      0.0000     -0.1873     -0.0000
         9         0.0318      0.1231     -0.1969     -0.0000     -0.0000     -0.0000
        10         0.0000     -0.0000     -0.0000      0.2822      0.0000      0.0000
        11        -0.0000      0.0000      0.0000     -0.0000      0.0000      0.2522
        12         0.0000      0.0000      0.0000      0.0724      0.0000     -0.0000
        13        -0.4416     -0.0536     -0.0641      0.0000     -0.0000     -0.0000
        14         0.0000      0.0000     -0.0000      0.0000      0.3365     -0.0000
        15         0.6499      0.0498     -0.3467     -0.0000     -0.0000      0.0000
        16         0.3033      0.1985      0.6532      0.0000      0.0000     -0.0000
        17         0.0000      0.0000      0.0000     -0.0000     -0.0000      0.3807
        18        -0.0000      0.0000      0.0000      0.0000      0.0000     -0.0332
        19         0.0000     -0.0000     -0.0000     -0.0000     -0.0672      0.0000
        20        -0.0000     -0.0000     -0.0000     -0.0000      0.0000     -0.3429
        21        -0.0000     -0.0000     -0.0000     -0.2775      0.0000     -0.0000
        22        -0.1119     -0.4199     -0.0726      0.0000     -0.0000      0.0000
        23         0.0000      0.0000      0.0000      0.0000     -0.1660      0.0000
        24         0.0000      0.0000      0.0000     -0.0000     -0.0000      0.4729
        25        -0.2793      0.3997     -0.3007      0.0000     -0.0000     -0.0000
        26         0.0000     -0.0000     -0.0000      0.3714     -0.0000      0.0000
        27         0.0000      0.0000     -0.0000      0.0000      0.4053     -0.0000
        28        -0.0000      0.0000      0.0000     -0.0000     -0.0000     -0.8455
        29        -0.2236      0.0341      0.1633      0.0000      0.0000      0.0000
        30        -0.3548      0.1850      0.1925      0.0000      0.0000     -0.0000
 <0|del|b> * <b|rxdel|0> + <0|del|b> * <b|delr+rdel|0>
 Rotatory Strengths (R) in cgs (10**-40 erg-esu-cm/Gauss)
       state          XX          YY          ZZ    R(velocity)    E-M Angle
         1         0.0000      0.0000      0.0000      0.0000       90.00
         2        -0.0000      0.0000     -0.0000      0.0000       90.00
         3         0.0000      0.0000      0.0000      0.0000       90.00
         4        -0.0000     -0.0000     -0.0000     -0.0000       90.00
         5         0.0000     -0.0000     -0.0000     -0.0000       90.00
         6         0.0000      0.0000     -0.0000      0.0000       90.00
         7        -0.0000     -0.0000     -0.0000     -0.0000       90.00
         8         0.0000     -0.0000     -0.0000     -0.0000       90.00
         9        -0.0000      0.0000      0.0000      0.0000       90.00
        10        -0.0000      0.0000     -0.0000     -0.0000       90.00
        11        -0.0000      0.0000      0.0000      0.0000       90.00
        12        -0.0000      0.0000      0.0000      0.0000       90.00
        13         0.0000     -0.0000     -0.0000     -0.0000       90.00
        14        -0.0000     -0.0000      0.0000      0.0000       90.00
        15        -0.0000      0.0000      0.0000     -0.0000       90.00
        16         0.0000     -0.0000     -0.0000     -0.0000       90.00
        17        -0.0000     -0.0000     -0.0000     -0.0000       90.00
        18        -0.0000      0.0000      0.0000      0.0000       90.00
        19        -0.0000      0.0000     -0.0000     -0.0000       90.00
        20         0.0000     -0.0000      0.0000      0.0000       90.00
        21        -0.0000      0.0000      0.0000     -0.0000       90.00
        22         0.0000     -0.0000     -0.0000      0.0000       90.00
        23        -0.0000     -0.0000     -0.0000     -0.0000       90.00
        24         0.0000     -0.0000      0.0000      0.0000       90.00
        25        -0.0000      0.0000      0.0000     -0.0000       90.00
        26         0.0000     -0.0000      0.0000     -0.0000       90.00
        27        -0.0000      0.0000      0.0000     -0.0000       90.00
        28         0.0000      0.0000     -0.0000     -0.0000       90.00
        29        -0.0000      0.0000      0.0000      0.0000       90.00
        30        -0.0000     -0.0000      0.0000     -0.0000       90.00
 1/2[<0|r|b>*<b|rxdel|0> + (<0|rxdel|b>*<b|r|0>)*]
 Rotatory Strengths (R) in cgs (10**-40 erg-esu-cm/Gauss)
       state          XX          YY          ZZ     R(length)
         1        -0.0000     -0.0000      0.0000      0.0000
         2        -0.0000      0.0000      0.0000      0.0000
         3         0.0000      0.0000      0.0000      0.0000
         4        -0.0000     -0.0000      0.0000     -0.0000
         5        -0.0000     -0.0000     -0.0000     -0.0000
         6        -0.0000      0.0000     -0.0000     -0.0000
         7         0.0000      0.0000     -0.0000      0.0000
         8        -0.0000     -0.0000      0.0000     -0.0000
         9        -0.0000     -0.0000      0.0000      0.0000
        10        -0.0000     -0.0000      0.0000      0.0000
        11         0.0000      0.0000      0.0000      0.0000
        12        -0.0000     -0.0000      0.0000      0.0000
        13        -0.0000     -0.0000     -0.0000     -0.0000
        14         0.0000     -0.0000     -0.0000      0.0000
        15         0.0000      0.0000     -0.0000     -0.0000
        16        -0.0000      0.0000     -0.0000     -0.0000
        17        -0.0000      0.0000      0.0000     -0.0000
        18        -0.0000     -0.0000      0.0000     -0.0000
        19        -0.0000     -0.0000     -0.0000     -0.0000
        20         0.0000      0.0000     -0.0000      0.0000
        21         0.0000      0.0000     -0.0000     -0.0000
        22        -0.0000     -0.0000      0.0000      0.0000
        23        -0.0000     -0.0000      0.0000     -0.0000
        24        -0.0000      0.0000     -0.0000      0.0000
        25        -0.0000      0.0000     -0.0000     -0.0000
        26        -0.0000      0.0000     -0.0000     -0.0000
        27        -0.0000      0.0000     -0.0000     -0.0000
        28        -0.0000      0.0000     -0.0000      0.0000
        29         0.0000      0.0000      0.0000      0.0000
        30         0.0000      0.0000     -0.0000     -0.0000
  1/2[<0|del|b>*<b|r|0> + (<0|r|b>*<b|del|0>)*] (Au)
       state          X           Y           Z        Dip. S.   Osc.(frdel)
         1        -0.0000      0.0000     -0.0000     -0.0000     -0.0000
         2        -0.0000      0.0000     -0.0325      0.0325      0.0217
         3        -0.0000     -0.0023     -0.0000      0.0023      0.0016
         4        -0.0002     -0.0000     -0.0000      0.0002      0.0002
         5        -0.0098     -0.0000     -0.0000      0.0098      0.0065
         6        -0.0000      0.0000      0.0000     -0.0000     -0.0000
         7         0.0000     -0.0029     -0.0000      0.0029      0.0019
         8        -0.0980     -0.0000     -0.0000      0.0980      0.0653
         9         0.0000     -0.0000     -0.0364      0.0364      0.0243
        10         0.0000     -0.0000      0.0000      0.0000      0.0000
        11        -0.0000     -0.0588     -0.0000      0.0588      0.0392
        12        -0.0000     -0.0000     -0.0000      0.0000      0.0000
        13        -0.0000      0.0000     -0.6097      0.6097      0.4065
        14        -0.0698      0.0000     -0.0000      0.0698      0.0465
        15        -0.0000     -0.0000     -0.1518      0.1518      0.1012
        16        -0.0000     -0.0000     -0.1071      0.1071      0.0714
        17        -0.0000     -0.0022     -0.0000      0.0022      0.0014
        18         0.0000     -0.0230     -0.0000      0.0230      0.0153
        19        -0.0685     -0.0000     -0.0000      0.0685      0.0457
        20        -0.0000     -0.0202     -0.0000      0.0202      0.0135
        21        -0.0000     -0.0000     -0.0000      0.0000      0.0000
        22        -0.0000     -0.0000     -0.2753      0.2753      0.1836
        23        -0.0012     -0.0000     -0.0000      0.0012      0.0008
        24         0.0000     -0.0057     -0.0000      0.0057      0.0038
        25        -0.0000     -0.0000     -0.4988      0.4988      0.3325
        26        -0.0000     -0.0000     -0.0000      0.0000      0.0000
        27        -0.0011     -0.0000     -0.0000      0.0011      0.0007
        28        -0.0000     -0.1940     -0.0000      0.1940      0.1293
        29        -0.0000     -0.0000     -0.0727      0.0727      0.0485
        30        -0.0000     -0.0000     -0.0965      0.0965      0.0643

 Excitation energies and oscillator strengths:
 
 Excited State   1:      Singlet-A2     1.1762 eV 1054.09 nm  f=0.0000  <S**2>=0.000
       3 -> 27         0.00065
       3 -> 38         0.00039
       3 -> 46         0.00332
       4 -> 27         0.00033
       4 -> 46        -0.00088
       5 ->  9         0.00089
       5 -> 13         0.00108
       5 -> 18         0.00151
       5 -> 23         0.00128
       5 -> 28         0.00113
       5 -> 37         0.00066
       5 -> 44         0.00019
       5 -> 52         0.00015
       6 -> 27        -0.00055
       6 -> 38        -0.00052
       6 -> 46         0.00087
       7 -> 12        -0.00136
       7 -> 16         0.00536
       7 -> 19        -0.00481
       7 -> 22        -0.00114
       7 -> 25        -0.00050
       7 -> 29        -0.00198
       7 -> 33         0.00026
       7 -> 49         0.00013
       7 -> 53         0.00037
       8 ->  9         0.71142
       8 -> 13        -0.00590
       8 -> 18         0.02057
       8 -> 23        -0.00063
       8 -> 28         0.01004
       8 -> 31         0.00161
       8 -> 37         0.00047
       8 -> 47        -0.00028
       8 -> 52         0.00183
       3 <- 27         0.00015
       3 <- 38         0.00018
       3 <- 46         0.00334
       4 <- 27         0.00064
       4 <- 38         0.00018
       4 <- 46        -0.00068
       5 <-  9         0.00048
       5 <- 13        -0.00030
       5 <- 18        -0.00033
       5 <- 23         0.00015
       5 <- 28        -0.00025
       5 <- 31         0.00020
       5 <- 37         0.00038
       6 <- 38        -0.00039
       6 <- 46         0.00062
       7 <- 12         0.00203
       7 <- 16        -0.01053
       7 <- 19         0.00591
       7 <- 22         0.00542
       7 <- 25        -0.00064
       7 <- 29         0.00565
       7 <- 33        -0.00034
       7 <- 49        -0.00048
       7 <- 53         0.00144
       8 <-  9        -0.08037
       8 <- 13        -0.00059
       8 <- 18        -0.00790
       8 <- 23        -0.00040
       8 <- 28        -0.00279
       8 <- 31        -0.00084
       8 <- 37        -0.00017
       8 <- 47         0.00013
       8 <- 52         0.00042
 This state for optimization and/or second-order correction.
 Total Energy, E(TD-HF/TD-DFT) =  -114.286255973    
 Copying the excited state density for this state as the 1-particle RhoCI density.
 
 Excited State   2:      Singlet-A1     3.0906 eV  401.17 nm  f=0.0254  <S**2>=0.000
       3 -> 10        -0.01312
       3 -> 11        -0.00246
       3 -> 14         0.00063
       3 -> 15         0.00020
       3 -> 17        -0.00296
       3 -> 20        -0.00333
       3 -> 21         0.00059
       3 -> 24         0.00028
       3 -> 26         0.00098
       3 -> 30        -0.00018
       3 -> 32         0.00269
       3 -> 34         0.00098
       3 -> 36        -0.00092
       3 -> 39        -0.00035
       3 -> 43         0.00048
       3 -> 45        -0.00114
       3 -> 48         0.00231
       3 -> 50         0.00161
       3 -> 54        -0.00011
       4 -> 10        -0.00072
       4 -> 11         0.00963
       4 -> 14         0.00153
       4 -> 15        -0.00729
       4 -> 17         0.00205
       4 -> 20         0.00174
       4 -> 21         0.00023
       4 -> 24        -0.00365
       4 -> 26         0.00296
       4 -> 30         0.00016
       4 -> 32        -0.00112
       4 -> 34        -0.00070
       4 -> 39        -0.00025
       4 -> 43        -0.00043
       4 -> 45         0.00075
       4 -> 48        -0.00071
       4 -> 50        -0.00025
       4 -> 54         0.00014
       5 -> 12         0.00858
       5 -> 16         0.00181
       5 -> 19         0.00105
       5 -> 22         0.00647
       5 -> 25        -0.00403
       5 -> 29         0.00034
       5 -> 33        -0.00231
       5 -> 35         0.00271
       5 -> 40        -0.00091
       5 -> 42        -0.00099
       5 -> 51        -0.00088
       6 -> 10         0.25860
       6 -> 11         0.03188
       6 -> 14        -0.03516
       6 -> 15        -0.02017
       6 -> 17        -0.01493
       6 -> 20        -0.00069
       6 -> 21         0.00445
       6 -> 24        -0.00709
       6 -> 26        -0.00269
       6 -> 30        -0.00295
       6 -> 32         0.00456
       6 -> 34         0.00137
       6 -> 36         0.00064
       6 -> 39        -0.00145
       6 -> 43         0.00079
       6 -> 45        -0.00093
       6 -> 48         0.00073
       6 -> 50         0.00049
       6 -> 54        -0.00098
       7 ->  9         0.67434
       7 -> 13        -0.00761
       7 -> 18        -0.00920
       7 -> 23        -0.00289
       7 -> 28         0.00154
       7 -> 31        -0.00329
       7 -> 37         0.00135
       7 -> 44        -0.00095
       7 -> 52         0.00105
       8 -> 12        -0.00721
       8 -> 16         0.03238
       8 -> 19        -0.01741
       8 -> 22        -0.01078
       8 -> 29        -0.00735
       8 -> 33         0.00084
       8 -> 35        -0.00053
       8 -> 40         0.00018
       8 -> 42         0.00020
       8 -> 51         0.00013
       8 -> 53        -0.00048
       3 <- 10        -0.01064
       3 <- 11        -0.00233
       3 <- 14         0.00052
       3 <- 15        -0.00025
       3 <- 17        -0.00173
       3 <- 20        -0.00297
       3 <- 21         0.00015
       3 <- 24        -0.00018
       3 <- 26         0.00014
       3 <- 30         0.00017
       3 <- 32         0.00230
       3 <- 34         0.00050
       3 <- 36        -0.00096
       3 <- 39        -0.00029
       3 <- 43         0.00052
       3 <- 45        -0.00125
       3 <- 48         0.00231
       3 <- 50         0.00162
       4 <- 10         0.00066
       4 <- 11         0.00728
       4 <- 14         0.00131
       4 <- 15        -0.00514
       4 <- 17         0.00127
       4 <- 20         0.00230
       4 <- 24        -0.00285
       4 <- 26         0.00267
       4 <- 30        -0.00038
       4 <- 32        -0.00112
       4 <- 34        -0.00059
       4 <- 36         0.00031
       4 <- 39        -0.00029
       4 <- 43        -0.00038
       4 <- 45         0.00068
       4 <- 48        -0.00042
       4 <- 50        -0.00012
       4 <- 54         0.00011
       5 <- 12         0.00542
       5 <- 16         0.00127
       5 <- 19         0.00088
       5 <- 22         0.00479
       5 <- 25        -0.00323
       5 <- 29         0.00035
       5 <- 33        -0.00195
       5 <- 35         0.00237
       5 <- 40        -0.00084
       5 <- 42        -0.00089
       5 <- 51        -0.00083
       6 <- 10         0.09010
       6 <- 11         0.01398
       6 <- 14        -0.01783
       6 <- 15        -0.01126
       6 <- 17        -0.00937
       6 <- 20        -0.00176
       6 <- 21         0.00325
       6 <- 24        -0.00477
       6 <- 26        -0.00127
       6 <- 30        -0.00171
       6 <- 32         0.00431
       6 <- 34         0.00152
       6 <- 36         0.00014
       6 <- 39        -0.00130
       6 <- 43         0.00066
       6 <- 45        -0.00067
       6 <- 48         0.00041
       6 <- 50         0.00035
       6 <- 54        -0.00091
       7 <-  9        -0.13043
       7 <- 13         0.00269
       7 <- 18        -0.01078
       7 <- 23         0.00038
       7 <- 28        -0.00137
       7 <- 31        -0.00158
       7 <- 37         0.00065
       7 <- 44        -0.00082
       7 <- 47        -0.00044
       7 <- 52         0.00097
       8 <- 12        -0.00324
       8 <- 16         0.01724
       8 <- 19        -0.01057
       8 <- 22        -0.00740
       8 <- 25         0.00013
       8 <- 29        -0.00601
       8 <- 33         0.00068
       8 <- 35        -0.00041
       8 <- 40         0.00014
       8 <- 42         0.00015
       8 <- 49        -0.00010
       8 <- 51         0.00011
       8 <- 53        -0.00046
 
 Excited State   3:      Singlet-B2     3.2683 eV  379.35 nm  f=0.0019  <S**2>=0.000
       3 -> 12        -0.00113
       3 -> 16         0.00109
       3 -> 19        -0.00368
       3 -> 22         0.00110
       3 -> 25        -0.00088
       3 -> 29        -0.00241
       3 -> 33         0.00029
       3 -> 35         0.00124
       3 -> 40        -0.00118
       3 -> 42        -0.00043
       3 -> 49        -0.00396
       3 -> 51         0.00016
       3 -> 53         0.00025
       4 -> 12         0.00036
       4 -> 16        -0.00132
       4 -> 19         0.00033
       4 -> 22         0.00161
       4 -> 25         0.00053
       4 -> 29         0.00079
       4 -> 33        -0.00030
       4 -> 35         0.00041
       4 -> 40         0.00024
       4 -> 42         0.00010
       4 -> 49         0.00073
       5 -> 10         0.00954
       5 -> 11         0.00106
       5 -> 14        -0.00279
       5 -> 15         0.00286
       5 -> 17        -0.00052
       5 -> 20         0.00190
       5 -> 21         0.00273
       5 -> 24         0.00134
       5 -> 26        -0.00039
       5 -> 30        -0.00211
       5 -> 32        -0.00097
       5 -> 34        -0.00019
       5 -> 39         0.00059
       5 -> 41         0.00038
       5 -> 48        -0.00034
       5 -> 50         0.00022
       5 -> 54        -0.00018
       6 -> 12         0.00241
       6 -> 16        -0.00282
       6 -> 19         0.00423
       6 -> 22        -0.00066
       6 -> 25         0.00115
       6 -> 29         0.00028
       6 -> 33        -0.00017
       6 -> 35        -0.00113
       6 -> 40         0.00071
       6 -> 42         0.00060
       6 -> 49         0.00111
       6 -> 53        -0.00045
       7 -> 27        -0.00050
       7 -> 38         0.00029
       7 -> 46         0.00287
       8 -> 10         0.70477
       8 -> 11         0.05057
       8 -> 14        -0.04799
       8 -> 15        -0.01997
       8 -> 17        -0.01647
       8 -> 20         0.00579
       8 -> 21         0.00543
       8 -> 24        -0.00545
       8 -> 26        -0.00411
       8 -> 30        -0.01339
       8 -> 34        -0.00105
       8 -> 36         0.00162
       8 -> 39         0.00040
       8 -> 41        -0.00017
       8 -> 45        -0.00078
       8 -> 48        -0.00354
       8 -> 50         0.00128
       8 -> 54        -0.00247
       3 <- 12        -0.00040
       3 <- 16         0.00040
       3 <- 19        -0.00184
       3 <- 22         0.00091
       3 <- 25        -0.00079
       3 <- 29        -0.00099
       3 <- 33         0.00028
       3 <- 35         0.00080
       3 <- 40        -0.00102
       3 <- 42        -0.00027
       3 <- 49        -0.00402
       3 <- 51         0.00015
       3 <- 53         0.00069
       4 <- 12         0.00011
       4 <- 16        -0.00160
       4 <- 19         0.00019
       4 <- 22         0.00198
       4 <- 25         0.00028
       4 <- 29         0.00105
       4 <- 33        -0.00031
       4 <- 35         0.00059
       4 <- 40         0.00010
       4 <- 49         0.00051
       5 <- 10        -0.00094
       5 <- 11        -0.00055
       5 <- 14        -0.00042
       5 <- 15         0.00229
       5 <- 17         0.00019
       5 <- 20         0.00077
       5 <- 21         0.00154
       5 <- 24         0.00150
       5 <- 30        -0.00046
       5 <- 32        -0.00025
       5 <- 39         0.00028
       5 <- 41         0.00040
       5 <- 45        -0.00020
       5 <- 48        -0.00036
       5 <- 50         0.00012
       6 <- 12        -0.00093
       6 <- 16         0.00801
       6 <- 19        -0.00446
       6 <- 22        -0.00520
       6 <- 25         0.00130
       6 <- 29        -0.00618
       6 <- 33         0.00018
       6 <- 35        -0.00093
       6 <- 40         0.00070
       6 <- 42         0.00060
       6 <- 49         0.00163
       6 <- 53        -0.00143
       7 <- 27        -0.00050
       7 <- 38         0.00024
       7 <- 46         0.00250
       8 <- 10        -0.04903
       8 <- 11        -0.00714
       8 <- 14         0.00718
       8 <- 15         0.00221
       8 <- 17         0.00230
       8 <- 20        -0.00341
       8 <- 21        -0.00117
       8 <- 24         0.00146
       8 <- 26         0.00107
       8 <- 30         0.00227
       8 <- 32         0.00251
       8 <- 34         0.00079
       8 <- 36        -0.00086
       8 <- 39        -0.00095
       8 <- 41         0.00018
       8 <- 43         0.00036
       8 <- 45        -0.00149
       8 <- 48        -0.00295
       8 <- 50         0.00113
       8 <- 54        -0.00066
 
 Excited State   4:      Singlet-B1     3.5050 eV  353.73 nm  f=0.0000  <S**2>=0.000
       3 ->  9        -0.02108
       3 -> 13         0.00070
       3 -> 18        -0.00364
       3 -> 23         0.00117
       3 -> 28        -0.00124
       3 -> 31        -0.00098
       3 -> 37         0.00017
       3 -> 44         0.00031
       3 -> 47        -0.00048
       3 -> 52         0.00061
       4 ->  9         0.00121
       4 -> 13        -0.00051
       4 -> 18         0.00022
       4 -> 23        -0.00051
       4 -> 28         0.00065
       4 -> 31        -0.00101
       4 -> 37        -0.00015
       4 -> 47        -0.00019
       4 -> 52        -0.00021
       5 -> 27        -0.00118
       5 -> 38         0.00077
       5 -> 46         0.00038
       6 ->  9         0.57858
       6 -> 13        -0.01486
       6 -> 18         0.01294
       6 -> 23        -0.00904
       6 -> 28         0.00376
       6 -> 31         0.00124
       6 -> 37        -0.00083
       6 -> 44        -0.00132
       6 -> 47         0.00284
       6 -> 52         0.00065
       7 -> 10         0.41084
       7 -> 11         0.03150
       7 -> 14        -0.03104
       7 -> 15        -0.01309
       7 -> 17        -0.01172
       7 -> 20         0.00413
       7 -> 21         0.00235
       7 -> 24        -0.00477
       7 -> 26        -0.00395
       7 -> 30        -0.00671
       7 -> 32         0.00090
       7 -> 34        -0.00019
       7 -> 36         0.00116
       7 -> 41        -0.00015
       7 -> 43         0.00048
       7 -> 45        -0.00090
       7 -> 48         0.00332
       7 -> 50         0.00112
       7 -> 54        -0.00070
       8 -> 27         0.00012
       8 -> 46         0.00404
       3 <-  9        -0.00701
       3 <- 13        -0.00067
       3 <- 18        -0.00238
       3 <- 23        -0.00033
       3 <- 28        -0.00074
       3 <- 31        -0.00075
       3 <- 37         0.00012
       3 <- 47        -0.00041
       3 <- 52         0.00067
       4 <-  9         0.00164
       4 <- 13         0.00021
       4 <- 18         0.00126
       4 <- 28         0.00145
       4 <- 31        -0.00075
       4 <- 44        -0.00028
       4 <- 47        -0.00023
       5 <- 27        -0.00133
       5 <- 38         0.00071
       5 <- 46         0.00035
       6 <-  9        -0.05275
       6 <- 13         0.00231
       6 <- 18        -0.00601
       6 <- 23         0.00055
       6 <- 28        -0.00420
       6 <- 31        -0.00117
       6 <- 37        -0.00053
       6 <- 47         0.00267
       6 <- 52        -0.00040
       7 <- 10        -0.06037
       7 <- 11        -0.00894
       7 <- 14         0.01228
       7 <- 15         0.00688
       7 <- 17         0.00354
       7 <- 20         0.00112
       7 <- 21        -0.00311
       7 <- 24         0.00344
       7 <- 26         0.00177
       7 <- 30         0.00233
       7 <- 32         0.00015
       7 <- 34         0.00046
       7 <- 36         0.00050
       7 <- 39        -0.00052
       7 <- 41         0.00023
       7 <- 43         0.00027
       7 <- 45        -0.00061
       7 <- 48         0.00306
       7 <- 50         0.00131
       7 <- 54         0.00052
       8 <- 27         0.00050
       8 <- 46         0.00373
 
 Excited State   5:      Singlet-B1     4.0448 eV  306.52 nm  f=0.0062  <S**2>=0.000
       3 ->  9         0.00165
       3 -> 13        -0.00012
       3 -> 18        -0.00099
       3 -> 28        -0.00206
       3 -> 31        -0.00112
       3 -> 44        -0.00013
       3 -> 47        -0.00328
       3 -> 52        -0.00034
       4 ->  9        -0.02965
       4 -> 13         0.00595
       4 -> 18         0.00071
       4 -> 23         0.00471
       4 -> 28         0.00067
       4 -> 31         0.00063
       4 -> 37         0.00036
       4 -> 44        -0.00039
       4 -> 47         0.00094
       4 -> 52         0.00020
       5 -> 27        -0.00594
       5 -> 38        -0.00369
       6 ->  9        -0.40921
       6 -> 13         0.00660
       6 -> 18        -0.00265
       6 -> 23         0.00445
       6 -> 28         0.00196
       6 -> 31        -0.00425
       6 -> 37         0.00268
       6 -> 44         0.00118
       6 -> 47        -0.00124
       6 -> 52        -0.00100
       7 -> 10         0.57372
       7 -> 11         0.03433
       7 -> 14        -0.03500
       7 -> 15        -0.02321
       7 -> 17        -0.00647
       7 -> 20        -0.00214
       7 -> 21         0.00221
       7 -> 24        -0.00766
       7 -> 26        -0.00429
       7 -> 30        -0.00655
       7 -> 32        -0.00051
       7 -> 34        -0.00341
       7 -> 36        -0.00141
       7 -> 39         0.00062
       7 -> 43         0.00036
       7 -> 45        -0.00073
       7 -> 48        -0.00015
       7 -> 50        -0.00011
       7 -> 54        -0.00162
       8 -> 27         0.00049
       8 -> 38         0.00018
       8 -> 46        -0.00016
       3 <-  9         0.00089
       3 <- 13         0.00086
       3 <- 18        -0.00012
       3 <- 23         0.00067
       3 <- 28        -0.00150
       3 <- 37        -0.00029
       3 <- 44        -0.00022
       3 <- 47        -0.00339
       4 <-  9        -0.01484
       4 <- 13         0.00294
       4 <- 18        -0.00012
       4 <- 23         0.00297
       4 <- 28         0.00053
       4 <- 31         0.00043
       4 <- 37         0.00035
       4 <- 44        -0.00053
       4 <- 47         0.00056
       4 <- 52         0.00015
       5 <- 27        -0.00433
       5 <- 38        -0.00311
       6 <-  9        -0.01992
       6 <- 13        -0.00081
       6 <- 18        -0.00225
       6 <- 23         0.00057
       6 <- 28         0.00075
       6 <- 31        -0.00475
       6 <- 37         0.00256
       6 <- 44         0.00095
       6 <- 47        -0.00054
       6 <- 52        -0.00126
       7 <- 10        -0.00624
       7 <- 11        -0.00033
       7 <- 14        -0.00118
       7 <- 15        -0.00618
       7 <- 20        -0.00498
       7 <- 21        -0.00036
       7 <- 24        -0.00314
       7 <- 26        -0.00053
       7 <- 30        -0.00045
       7 <- 32         0.00115
       7 <- 34        -0.00214
       7 <- 36        -0.00242
       7 <- 39         0.00011
       7 <- 43         0.00042
       7 <- 45        -0.00076
       7 <- 48        -0.00031
       7 <- 50        -0.00037
       7 <- 54        -0.00103
       8 <- 27         0.00014
       8 <- 46        -0.00044
 
 Excited State   6:      Singlet-A2     6.8072 eV  182.14 nm  f=0.0000  <S**2>=0.000
       3 -> 27        -0.00102
       3 -> 38        -0.00028
       3 -> 46         0.00013
       4 -> 27        -0.00601
       4 -> 38         0.00043
       4 -> 46        -0.00019
       5 ->  9         0.70635
       5 -> 13        -0.02543
       5 -> 18         0.00351
       5 -> 23        -0.01578
       5 -> 28         0.00137
       5 -> 31        -0.00226
       5 -> 37        -0.00566
       5 -> 44        -0.00214
       5 -> 47         0.00039
       6 -> 27        -0.00067
       6 -> 38         0.00245
       6 -> 46         0.00015
       7 -> 12         0.01332
       7 -> 16         0.01274
       7 -> 19         0.00102
       7 -> 22        -0.00408
       7 -> 25        -0.00025
       7 -> 29        -0.00044
       7 -> 33        -0.00050
       7 -> 35        -0.00013
       7 -> 40        -0.00016
       7 -> 42         0.00026
       7 -> 51        -0.00078
       8 ->  9        -0.00100
       8 -> 13         0.00669
       8 -> 18         0.00188
       8 -> 23         0.00141
       8 -> 28         0.00029
       8 -> 31         0.00061
       8 -> 37         0.00096
       8 -> 44         0.00015
       8 -> 52         0.00016
       3 <- 27        -0.00112
       3 <- 38        -0.00038
       3 <- 46         0.00016
       4 <- 27        -0.00559
       5 <-  9        -0.01481
       5 <- 13         0.00210
       5 <- 18         0.00027
       5 <- 23         0.00013
       5 <- 28         0.00214
       5 <- 31        -0.00329
       5 <- 37        -0.00355
       5 <- 44        -0.00050
       6 <- 27        -0.00134
       6 <- 38         0.00182
       7 <- 12        -0.00347
       7 <- 16        -0.00037
       7 <- 19        -0.00087
       7 <- 22        -0.00407
       7 <- 25         0.00343
       7 <- 33         0.00031
       7 <- 35        -0.00070
       7 <- 42         0.00089
       7 <- 49        -0.00011
       7 <- 51        -0.00089
       8 <-  9         0.00042
       8 <- 13        -0.00044
       8 <- 18        -0.00107
       8 <- 23        -0.00037
       8 <- 28        -0.00108
       8 <- 31         0.00067
       8 <- 37         0.00052
 
 Excited State   7:      Singlet-B2     6.8488 eV  181.03 nm  f=0.0023  <S**2>=0.000
       3 -> 12         0.00152
       3 -> 16         0.00071
       3 -> 19        -0.00033
       3 -> 22        -0.00016
       3 -> 25        -0.00053
       3 -> 29        -0.00151
       3 -> 33         0.00018
       3 -> 40        -0.00013
       3 -> 49        -0.00021
       4 -> 12        -0.00048
       4 -> 16         0.00088
       4 -> 19         0.00063
       4 -> 22        -0.00108
       4 -> 25        -0.00070
       4 -> 29         0.00052
       5 -> 10        -0.00305
       5 -> 11        -0.00673
       5 -> 14         0.00306
       5 -> 15         0.00286
       5 -> 20         0.00041
       5 -> 21        -0.00041
       5 -> 24        -0.00034
       5 -> 26        -0.00017
       5 -> 30        -0.00048
       5 -> 32        -0.00068
       5 -> 34         0.00061
       5 -> 39         0.00020
       5 -> 41        -0.00023
       5 -> 43        -0.00021
       5 -> 45        -0.00011
       6 -> 12        -0.00397
       6 -> 16        -0.00170
       6 -> 19        -0.00059
       6 -> 22         0.00020
       6 -> 29        -0.00019
       6 -> 35         0.00048
       6 -> 49         0.00060
       7 -> 27        -0.00045
       7 -> 38        -0.00032
       7 -> 46         0.00077
       8 -> 10        -0.04713
       8 -> 11         0.70301
       8 -> 14         0.05455
       8 -> 15        -0.01878
       8 -> 17        -0.00239
       8 -> 20         0.01120
       8 -> 21         0.00218
       8 -> 24        -0.00200
       8 -> 26         0.00261
       8 -> 30        -0.00148
       8 -> 34        -0.00023
       8 -> 36        -0.00040
       8 -> 41        -0.00024
       8 -> 43         0.00023
       8 -> 45        -0.00052
       8 -> 48        -0.00098
       8 -> 50         0.00039
       8 -> 54        -0.00020
       3 <- 16         0.00046
       3 <- 19        -0.00036
       3 <- 22        -0.00031
       3 <- 25        -0.00017
       3 <- 29        -0.00087
       3 <- 33         0.00010
       3 <- 49        -0.00021
       4 <- 12         0.00040
       4 <- 16         0.00069
       4 <- 19         0.00061
       4 <- 22        -0.00069
       4 <- 25        -0.00046
       4 <- 29         0.00037
       4 <- 42         0.00012
       5 <- 10        -0.00142
       5 <- 14         0.00052
       5 <- 20         0.00016
       5 <- 21         0.00017
       5 <- 24        -0.00069
       5 <- 26         0.00020
       5 <- 30        -0.00018
       5 <- 32        -0.00025
       5 <- 34         0.00054
       5 <- 41        -0.00016
       5 <- 43        -0.00015
       5 <- 45        -0.00010
       5 <- 48        -0.00013
       6 <- 12        -0.00054
       6 <- 19        -0.00043
       6 <- 29        -0.00045
       6 <- 35         0.00035
       6 <- 49         0.00055
       7 <- 27        -0.00031
       7 <- 38        -0.00023
       7 <- 46         0.00067
       8 <- 10        -0.00333
       8 <- 11        -0.00091
       8 <- 15         0.00021
       8 <- 17        -0.00106
       8 <- 20        -0.00195
       8 <- 21         0.00033
       8 <- 24         0.00020
       8 <- 32         0.00125
       8 <- 34         0.00036
       8 <- 36        -0.00094
       8 <- 45        -0.00032
       8 <- 48        -0.00079
       8 <- 50         0.00042
 
 Excited State   8:      Singlet-B1     7.2213 eV  171.69 nm  f=0.0642  <S**2>=0.000
       3 ->  9        -0.00066
       3 -> 13         0.00154
       3 -> 18        -0.00070
       3 -> 23        -0.00024
       3 -> 28        -0.00150
       3 -> 31        -0.00079
       3 -> 44        -0.00018
       3 -> 52        -0.00016
       4 ->  9         0.00155
       4 -> 13         0.00155
       4 -> 23        -0.00149
       4 -> 28         0.00012
       4 -> 31         0.00052
       4 -> 37        -0.00037
       4 -> 44        -0.00042
       5 -> 27        -0.00021
       5 -> 38         0.00039
       6 ->  9        -0.00518
       6 -> 13        -0.00185
       6 -> 23         0.00059
       6 -> 28         0.00035
       6 -> 31        -0.00028
       6 -> 44         0.00039
       6 -> 47         0.00011
       7 -> 10        -0.04540
       7 -> 11         0.70442
       7 -> 14         0.02463
       7 -> 15        -0.03262
       7 -> 17        -0.00346
       7 -> 20         0.00361
       7 -> 21         0.00370
       7 -> 24        -0.00589
       7 -> 26         0.00195
       7 -> 30        -0.00053
       7 -> 34        -0.00026
       7 -> 36        -0.00073
       7 -> 41        -0.00031
       7 -> 43         0.00027
       7 -> 45        -0.00042
       7 -> 48         0.00022
       7 -> 54        -0.00019
       8 -> 38        -0.00018
       8 -> 46         0.00033
       3 <-  9         0.00040
       3 <- 18        -0.00047
       3 <- 23        -0.00042
       3 <- 28        -0.00099
       3 <- 31        -0.00038
       4 <-  9        -0.00353
       4 <- 13         0.00071
       4 <- 23        -0.00049
       4 <- 31         0.00052
       4 <- 37        -0.00030
       5 <- 38         0.00033
       6 <-  9        -0.00380
       6 <- 13         0.00091
       6 <- 18        -0.00031
       6 <- 23         0.00138
       6 <- 31        -0.00038
       6 <- 44         0.00044
       6 <- 47         0.00017
       6 <- 52        -0.00012
       7 <- 10        -0.00239
       7 <- 11        -0.00145
       7 <- 14        -0.00131
       7 <- 15         0.00041
       7 <- 17        -0.00053
       7 <- 20        -0.00343
       7 <- 21        -0.00011
       7 <- 26        -0.00130
       7 <- 30         0.00047
       7 <- 32         0.00086
       7 <- 34         0.00026
       7 <- 36        -0.00081
       7 <- 45        -0.00020
       7 <- 48         0.00019
       8 <- 38        -0.00011
       8 <- 46         0.00023
 
 Excited State   9:      Singlet-A1     7.9851 eV  155.27 nm  f=0.0249  <S**2>=0.000
       3 -> 10        -0.00238
       3 -> 11         0.00138
       3 -> 14         0.00172
       3 -> 15        -0.00018
       3 -> 21         0.00019
       3 -> 26        -0.00055
       3 -> 30        -0.00028
       3 -> 32         0.00012
       3 -> 34         0.00023
       3 -> 36        -0.00032
       3 -> 39         0.00014
       3 -> 41        -0.00018
       3 -> 48        -0.00025
       3 -> 50         0.00011
       3 -> 54        -0.00018
       4 -> 10         0.00200
       4 -> 11        -0.00268
       4 -> 14        -0.00150
       4 -> 15         0.00052
       4 -> 17         0.00056
       4 -> 20        -0.00038
       4 -> 21         0.00012
       4 -> 24        -0.00170
[...]
  46        4PY         0.00000   0.00000  -0.01220  -0.03577  -0.05775
  47        4PZ        -0.00384   0.00000   0.02023   0.03111   0.01999
  48        5S         -0.00180   0.00000   0.00862   0.01341   0.00946
  49        5PX         0.00000   0.00000   0.00000   0.00000   0.00000
  50        5PY         0.00000   0.00000  -0.00633  -0.01336  -0.01469
  51        5PZ        -0.00006   0.00000   0.00164   0.00202  -0.00031
  52        6D 0        0.00016   0.00000  -0.00046  -0.00086  -0.00103
  53        6D+1        0.00000   0.00000   0.00000   0.00000   0.00000
  54        6D-1        0.00000   0.00000  -0.00059  -0.00061   0.00048
  55        6D+2        0.00001   0.00000  -0.00001   0.00001   0.00001
  56        6D-2        0.00000   0.00000   0.00000   0.00000   0.00000
                          26        27        28        29        30
  26        4PX         0.00026
  27        4PY         0.00000   0.00107
  28        4PZ         0.00000  -0.00043   0.00064
  29 3   H  1S          0.00000  -0.00188  -0.00306   0.07702
  30        2S          0.00000  -0.00167  -0.00499   0.10872   0.15582
  31        3S          0.00000   0.00097  -0.00270   0.02990   0.04769
  32        4PX         0.00026   0.00000   0.00000   0.00000   0.00000
  33        4PY         0.00000  -0.00062  -0.00010   0.00823   0.01111
  34        4PZ         0.00000   0.00010   0.00000   0.00452   0.00629
  35 4   O  1S          0.00000   0.00005  -0.00002   0.00064   0.00000
  36        2S          0.00000   0.00014  -0.00001   0.00099  -0.00010
  37        2PX         0.00581   0.00000   0.00000   0.00000   0.00000
  38        2PY         0.00000  -0.00030   0.00035   0.00874   0.02673
  39        2PZ         0.00000  -0.00230  -0.00429   0.01711   0.02635
  40        3S          0.00000  -0.00055  -0.00028  -0.00297   0.00071
  41        3PX         0.00836   0.00000   0.00000   0.00000   0.00000
  42        3PY         0.00000  -0.00043   0.00051   0.01235   0.03790
  43        3PZ         0.00000  -0.00339  -0.00639   0.02522   0.03887
  44        4S          0.00000  -0.00076  -0.00061  -0.00018   0.00378
  45        4PX         0.00755   0.00000   0.00000   0.00000   0.00000
  46        4PY         0.00000  -0.00032   0.00037   0.01220   0.03577
  47        4PZ         0.00000  -0.00271  -0.00507   0.02023   0.03111
  48        5S          0.00000  -0.00107  -0.00250   0.00862   0.01341
  49        5PX         0.00149   0.00000   0.00000   0.00000   0.00000
  50        5PY         0.00000   0.00018  -0.00022   0.00633   0.01336
  51        5PZ         0.00000  -0.00033   0.00024   0.00164   0.00202
  52        6D 0        0.00000   0.00003   0.00031  -0.00046  -0.00086
  53        6D+1       -0.00019   0.00000   0.00000   0.00000   0.00000
  54        6D-1        0.00000   0.00006  -0.00007   0.00059   0.00061
  55        6D+2        0.00000  -0.00000   0.00000  -0.00001   0.00001
  56        6D-2        0.00000   0.00000   0.00000   0.00000   0.00000
                          31        32        33        34        35
  31        3S          0.02575
  32        4PX         0.00000   0.00026
  33        4PY         0.00217   0.00000   0.00107
  34        4PZ         0.00105   0.00000   0.00043   0.00064
  35 4   O  1S         -0.00036   0.00000  -0.00005  -0.00002   0.64199
  36        2S         -0.00068   0.00000  -0.00014  -0.00001   0.57285
  37        2PX         0.00000   0.00581   0.00000   0.00000   0.00000
  38        2PY         0.04463   0.00000  -0.00030  -0.00035   0.00000
  39        2PZ         0.01694   0.00000   0.00230  -0.00429  -0.00762
  40        3S          0.00298   0.00000   0.00055  -0.00028  -0.14995
  41        3PX         0.00000   0.00836   0.00000   0.00000   0.00000
  42        3PY         0.06343   0.00000  -0.00043  -0.00051   0.00000
  43        3PZ         0.02513   0.00000   0.00339  -0.00639  -0.00933
  44        4S          0.00404   0.00000   0.00076  -0.00061  -0.13982
  45        4PX         0.00000   0.00755   0.00000   0.00000   0.00000
  46        4PY         0.05775   0.00000  -0.00032  -0.00037   0.00000
  47        4PZ         0.01999   0.00000   0.00271  -0.00507  -0.00574
  48        5S          0.00946   0.00000   0.00107  -0.00250   0.00915
  49        5PX         0.00000   0.00149   0.00000   0.00000   0.00000
  50        5PY         0.01469   0.00000   0.00018   0.00022   0.00000
  51        5PZ        -0.00031   0.00000   0.00033   0.00024  -0.00600
  52        6D 0       -0.00103   0.00000  -0.00003   0.00031  -0.00104
  53        6D+1        0.00000  -0.00019   0.00000   0.00000   0.00000
  54        6D-1       -0.00048   0.00000   0.00006   0.00007   0.00000
  55        6D+2        0.00001   0.00000   0.00000   0.00000  -0.00078
  56        6D-2        0.00000  -0.00000   0.00000   0.00000   0.00000
                          36        37        38        39        40
  36        2S          0.52950
  37        2PX         0.00000   0.12839
  38        2PY         0.00000   0.00000   0.19552
  39        2PZ        -0.01196   0.00000  -0.00000   0.08456
  40        3S         -0.25125   0.00000   0.00000   0.03812   0.78759
  41        3PX         0.00000   0.18464   0.00000   0.00000   0.00000
  42        3PY         0.00000   0.00000   0.27810   0.00000   0.00000
  43        3PZ        -0.01548   0.00000  -0.00000   0.12540   0.05289
  44        4S         -0.21868   0.00000   0.00000   0.03876   0.63469
  45        4PX         0.00000   0.16672   0.00000   0.00000   0.00000
  46        4PY         0.00000   0.00000   0.25079   0.00000   0.00000
  47        4PZ        -0.01010   0.00000  -0.00000   0.09959   0.03716
  48        5S          0.00993   0.00000   0.00000   0.04637  -0.01154
  49        5PX         0.00000   0.03294   0.00000   0.00000   0.00000
  50        5PY         0.00000   0.00000   0.05571   0.00000   0.00000
  51        5PZ        -0.00861   0.00000  -0.00000  -0.00118   0.02213
  52        6D 0       -0.00160  -0.00000   0.00000  -0.00503   0.00432
  53        6D+1        0.00000  -0.00414   0.00000   0.00000  -0.00000
  54        6D-1       -0.00000   0.00000  -0.00382  -0.00000   0.00000
  55        6D+2       -0.00125   0.00000   0.00000   0.00014   0.00371
  56        6D-2        0.00000   0.00000   0.00000   0.00000   0.00000
                          41        42        43        44        45
  41        3PX         0.26553
  42        3PY         0.00000   0.39555
  43        3PZ         0.00000  -0.00000   0.18598
  44        4S          0.00000   0.00000   0.05451   0.51285
  45        4PX         0.23977   0.00000   0.00000   0.00000   0.21650
  46        4PY         0.00000   0.35670   0.00000   0.00000   0.00000
  47        4PZ         0.00000  -0.00000   0.14773   0.03939   0.00000
  48        5S          0.00000   0.00000   0.06894  -0.00498   0.00000
  49        5PX         0.04738   0.00000   0.00000   0.00000   0.04278
  50        5PY         0.00000   0.07923   0.00000   0.00000   0.00000
  51        5PZ         0.00000  -0.00000  -0.00188   0.01771   0.00000
  52        6D 0       -0.00000   0.00000  -0.00750   0.00299  -0.00000
  53        6D+1       -0.00596   0.00000   0.00000  -0.00000  -0.00538
  54        6D-1        0.00000  -0.00543  -0.00000   0.00000   0.00000
  55        6D+2        0.00000   0.00000   0.00019   0.00299   0.00000
  56        6D-2        0.00000   0.00000   0.00000   0.00000   0.00000
                          46        47        48        49        50
  46        4PY         0.32170
  47        4PZ        -0.00000   0.11738
  48        5S          0.00000   0.05496   0.02694
  49        5PX         0.00000   0.00000   0.00000   0.00845
  50        5PY         0.07154   0.00000   0.00000   0.00000   0.01619
  51        5PZ        -0.00000  -0.00163  -0.00173   0.00000  -0.00000
  52        6D 0        0.00000  -0.00600  -0.00307  -0.00000   0.00000
  53        6D+1        0.00000   0.00000   0.00000  -0.00106   0.00000
  54        6D-1       -0.00488  -0.00000  -0.00000   0.00000  -0.00102
  55        6D+2        0.00000   0.00012  -0.00008   0.00000   0.00000
  56        6D-2        0.00000   0.00000   0.00000   0.00000   0.00000
                          51        52        53        54        55
  51        5PZ         0.00087
  52        6D 0        0.00032   0.00037
  53        6D+1       -0.00000   0.00000   0.00013
  54        6D-1        0.00000  -0.00000   0.00000   0.00009
  55        6D+2        0.00011   0.00002   0.00000   0.00000   0.00002
  56        6D-2        0.00000   0.00000   0.00000   0.00000   0.00000
                          56
  56        6D-2        0.00000
          Condensed to atoms (all electrons):
               1          2          3          4
     1  C    5.156919   0.351542   0.351542   0.244311
     2  H    0.351542   0.511757  -0.044167  -0.012938
     3  H    0.351542  -0.044167   0.511757  -0.012938
     4  O    0.244311  -0.012938  -0.012938   8.064864
 Mulliken charges:
               1
     1  C   -0.104314
     2  H    0.193806
     3  H    0.193806
     4  O   -0.283299
 Sum of Mulliken charges =  -0.00000
 Mulliken charges with hydrogens summed into heavy atoms:
               1
     1  C    0.283299
     4  O   -0.283299
 Electronic spatial extent (au):  <R**2>=             93.6695
 Charge=             -0.0000 electrons
 Dipole moment (field-independent basis, Debye):
    X=             -0.0000    Y=              0.0000    Z=             -4.2692  Tot=              4.2692
 Quadrupole moment (field-independent basis, Debye-Ang):
   XX=            -13.0854   YY=            -12.0747   ZZ=            -10.4747
   XY=              0.0000   XZ=              0.0000   YZ=              0.0000
 Traceless Quadrupole moment (field-independent basis, Debye-Ang):
   XX=             -1.2071   YY=             -0.1965   ZZ=              1.4036
   XY=              0.0000   XZ=              0.0000   YZ=              0.0000
 Octapole moment (field-independent basis, Debye-Ang**2):
  XXX=              0.0000  YYY=             -0.0000  ZZZ=             -3.1073  XYY=             -0.0000
  XXY=              0.0000  XXZ=              0.4065  XZZ=             -0.0000  YZZ=              0.0000
  YYZ=             -2.7608  XYZ=             -0.0000
 Hexadecapole moment (field-independent basis, Debye-Ang**3):
 XXXX=            -14.3228 YYYY=            -18.6436 ZZZZ=            -81.0538 XXXY=             -0.0000
 XXXZ=             -0.0000 YYYX=             -0.0000 YYYZ=              0.0000 ZZZX=              0.0000
 ZZZY=             -0.0000 XXYY=             -5.9504 XXZZ=            -17.2107 YYZZ=            -15.0461
 XXYZ=              0.0000 YYXZ=              0.0000 ZZXY=              0.0000
 N-N= 2.268509906236D+01 E-N=-3.137665030606D+02  KE= 1.133088045535D+02
 Symmetry A1   KE= 1.026318045734D+02
 Symmetry A2   KE= 2.354403775400D-35
 Symmetry B1   KE= 3.779922026640D+00
 Symmetry B2   KE= 6.897077953493D+00
 Leave Link  601 at Fri Sep 17 10:53:13 2021, MaxMem=   268435456 cpu:               0.0 elap:               0.0
 (Enter /software/gaussian/g16-a03/l9999.exe)
 Electronic transition elements 
                 1             2             3             4             5 
      1  -0.114286D+03 -0.114216D+03 -0.114209D+03 -0.114201D+03 -0.114181D+03
      2   0.000000D+00  0.000000D+00  0.000000D+00  0.100974D-01 -0.251064D+00
      3   0.000000D+00  0.000000D+00 -0.152052D+00  0.000000D+00  0.000000D+00
      4   0.000000D+00  0.579157D+00  0.000000D+00  0.000000D+00  0.000000D+00
      5   0.000000D+00  0.000000D+00  0.000000D+00 -0.233959D-01  0.389917D-01
      6   0.000000D+00  0.000000D+00  0.154477D-01  0.000000D+00  0.000000D+00
      7   0.000000D+00 -0.561592D-01  0.000000D+00  0.000000D+00  0.000000D+00
      8   0.000000D+00  0.000000D+00  0.619453D+00  0.000000D+00  0.000000D+00
      9   0.000000D+00  0.000000D+00  0.000000D+00 -0.200150D+01  0.124100D+00
     10   0.938101D+00  0.000000D+00  0.000000D+00  0.000000D+00  0.000000D+00
     11   0.000000D+00  0.411947D-01  0.000000D+00  0.000000D+00  0.000000D+00
     12   0.000000D+00 -0.722053D-02  0.000000D+00  0.000000D+00  0.000000D+00
     13   0.000000D+00 -0.259004D-01  0.000000D+00  0.000000D+00  0.000000D+00
     14  -0.235071D-01  0.000000D+00  0.000000D+00  0.000000D+00  0.000000D+00
     15   0.000000D+00  0.000000D+00  0.000000D+00 -0.125507D-01  0.125320D+00
     16   0.000000D+00  0.000000D+00  0.256414D-01  0.000000D+00  0.000000D+00
                 6             7             8             9            10 
      1  -0.114079D+03 -0.114078D+03 -0.114064D+03 -0.114036D+03 -0.114022D+03
      2   0.000000D+00  0.000000D+00 -0.602309D+00  0.000000D+00  0.000000D+00
      3   0.000000D+00 -0.117022D+00  0.000000D+00  0.000000D+00  0.000000D+00
      4   0.000000D+00  0.000000D+00  0.000000D+00 -0.356923D+00  0.000000D+00
      5   0.000000D+00  0.000000D+00  0.162696D+00  0.000000D+00  0.000000D+00
      6   0.000000D+00  0.246220D-01  0.000000D+00  0.000000D+00  0.000000D+00
      7   0.000000D+00  0.000000D+00  0.000000D+00  0.101945D+00  0.000000D+00
      8   0.000000D+00 -0.292291D+00  0.000000D+00  0.000000D+00  0.000000D+00
      9   0.000000D+00  0.000000D+00 -0.140180D+00  0.000000D+00  0.000000D+00
     10  -0.109693D+01  0.000000D+00  0.000000D+00  0.000000D+00  0.237966D-01
     11   0.000000D+00  0.000000D+00  0.000000D+00  0.317566D-01  0.000000D+00
     12   0.000000D+00  0.000000D+00  0.000000D+00  0.123096D+00  0.000000D+00
     13   0.000000D+00  0.000000D+00  0.000000D+00 -0.196933D+00  0.000000D+00
     14   0.172054D+00  0.000000D+00  0.000000D+00  0.000000D+00  0.282233D+00
     15   0.000000D+00  0.000000D+00 -0.187281D+00  0.000000D+00  0.000000D+00
     16   0.000000D+00  0.216784D+00  0.000000D+00  0.000000D+00  0.000000D+00
                11            12            13            14            15 
      1  -0.114019D+03 -0.114015D+03 -0.114005D+03 -0.114003D+03 -0.113998D+03
      2   0.000000D+00  0.000000D+00  0.000000D+00 -0.451125D+00  0.000000D+00
      3  -0.432329D+00  0.000000D+00  0.000000D+00  0.000000D+00  0.000000D+00
      4   0.000000D+00  0.000000D+00 -0.137268D+01  0.000000D+00 -0.672820D+00
      5   0.000000D+00  0.000000D+00  0.000000D+00  0.154761D+00  0.000000D+00
      6   0.135935D+00  0.000000D+00  0.000000D+00  0.000000D+00  0.000000D+00
      7   0.000000D+00  0.000000D+00  0.444163D+00  0.000000D+00  0.225620D+00
      8  -0.521621D+00  0.000000D+00  0.000000D+00  0.000000D+00  0.000000D+00
      9   0.000000D+00  0.000000D+00  0.000000D+00  0.248000D+00  0.000000D+00
     10   0.000000D+00 -0.150599D-02  0.000000D+00  0.000000D+00  0.000000D+00
     11   0.000000D+00  0.000000D+00 -0.441644D+00  0.000000D+00  0.649938D+00
     12   0.000000D+00  0.000000D+00 -0.535688D-01  0.000000D+00  0.497918D-01
     13   0.000000D+00  0.000000D+00 -0.641387D-01  0.000000D+00 -0.346716D+00
     14   0.000000D+00  0.723750D-01  0.000000D+00  0.000000D+00  0.000000D+00
     15   0.000000D+00  0.000000D+00  0.000000D+00  0.336485D+00  0.000000D+00
     16   0.252207D+00  0.000000D+00  0.000000D+00  0.000000D+00  0.000000D+00
                16            17            18            19            20 
      1  -0.113978D+03 -0.113977D+03 -0.113963D+03 -0.113951D+03 -0.113943D+03
      2   0.000000D+00  0.000000D+00  0.000000D+00 -0.448735D+00  0.000000D+00
      3   0.000000D+00  0.711581D-01 -0.243516D+00  0.000000D+00 -0.229381D+00
      4  -0.542228D+00  0.000000D+00  0.000000D+00  0.000000D+00  0.000000D+00
      5   0.000000D+00  0.000000D+00  0.000000D+00  0.152748D+00  0.000000D+00
      6   0.000000D+00 -0.303482D-01  0.945242D-01  0.000000D+00  0.879718D-01
      7   0.197427D+00  0.000000D+00  0.000000D+00  0.000000D+00  0.000000D+00
      8   0.000000D+00  0.819558D+00  0.164280D+00  0.000000D+00  0.764076D-01
      9   0.000000D+00  0.000000D+00  0.000000D+00  0.166801D+00  0.000000D+00
     10   0.000000D+00  0.000000D+00  0.000000D+00  0.000000D+00  0.000000D+00
     11   0.303299D+00  0.000000D+00  0.000000D+00  0.000000D+00  0.000000D+00
     12   0.198531D+00  0.000000D+00  0.000000D+00  0.000000D+00  0.000000D+00
     13   0.653197D+00  0.000000D+00  0.000000D+00  0.000000D+00  0.000000D+00
     14   0.000000D+00  0.000000D+00  0.000000D+00  0.000000D+00  0.000000D+00
     15   0.000000D+00  0.000000D+00  0.000000D+00 -0.672340D-01  0.000000D+00
     16   0.000000D+00  0.380749D+00 -0.331561D-01  0.000000D+00 -0.342905D+00
                21            22            23            24            25 
      1  -0.113942D+03 -0.113936D+03 -0.113923D+03 -0.113909D+03 -0.113899D+03
      2   0.000000D+00  0.000000D+00 -0.626689D-01  0.000000D+00  0.000000D+00
      3   0.000000D+00  0.000000D+00  0.000000D+00 -0.122958D+00  0.000000D+00
      4   0.000000D+00 -0.834823D+00  0.000000D+00  0.000000D+00  0.110111D+01
      5   0.000000D+00  0.000000D+00  0.192254D-01  0.000000D+00  0.000000D+00
      6   0.000000D+00  0.000000D+00  0.000000D+00  0.466642D-01  0.000000D+00
      7   0.000000D+00  0.329807D+00  0.000000D+00  0.000000D+00 -0.453013D+00
      8   0.000000D+00  0.000000D+00  0.000000D+00 -0.395009D-02  0.000000D+00
      9   0.000000D+00  0.000000D+00  0.647712D-01  0.000000D+00  0.000000D+00
     10  -0.768019D-01  0.000000D+00  0.000000D+00  0.000000D+00  0.000000D+00
     11   0.000000D+00 -0.111935D+00  0.000000D+00  0.000000D+00 -0.279348D+00
     12   0.000000D+00 -0.419913D+00  0.000000D+00  0.000000D+00  0.399669D+00
     13   0.000000D+00 -0.725709D-01  0.000000D+00  0.000000D+00 -0.300683D+00
     14  -0.277490D+00  0.000000D+00  0.000000D+00  0.000000D+00  0.000000D+00
     15   0.000000D+00  0.000000D+00 -0.165967D+00  0.000000D+00  0.000000D+00
     16   0.000000D+00  0.000000D+00  0.000000D+00  0.472936D+00  0.000000D+00
                26            27            28            29            30 
      1  -0.113890D+03 -0.113888D+03 -0.113881D+03 -0.113871D+03 -0.113860D+03
      2   0.000000D+00  0.625392D-01  0.000000D+00  0.000000D+00  0.000000D+00
      3   0.000000D+00  0.000000D+00 -0.661299D+00  0.000000D+00  0.000000D+00
      4   0.000000D+00  0.000000D+00  0.000000D+00  0.408743D+00 -0.466212D+00
      5   0.000000D+00 -0.172695D-01  0.000000D+00  0.000000D+00  0.000000D+00
      6   0.000000D+00  0.000000D+00  0.293357D+00  0.000000D+00  0.000000D+00
      7   0.000000D+00  0.000000D+00  0.000000D+00 -0.177839D+00  0.206913D+00
      8   0.000000D+00  0.000000D+00  0.766847D+00  0.000000D+00  0.000000D+00
      9   0.000000D+00  0.114815D+00  0.000000D+00  0.000000D+00  0.000000D+00
     10  -0.266811D-01  0.000000D+00  0.000000D+00  0.000000D+00  0.000000D+00
     11   0.000000D+00  0.000000D+00  0.000000D+00 -0.223576D+00 -0.354811D+00
     12   0.000000D+00  0.000000D+00  0.000000D+00  0.341320D-01  0.185010D+00
     13   0.000000D+00  0.000000D+00  0.000000D+00  0.163281D+00  0.192522D+00
     14   0.371395D+00  0.000000D+00  0.000000D+00  0.000000D+00  0.000000D+00
     15   0.000000D+00  0.405330D+00  0.000000D+00  0.000000D+00  0.000000D+00
     16   0.000000D+00  0.000000D+00 -0.845475D+00  0.000000D+00  0.000000D+00

 Test job not archived.
 1\1\GINC-BHD0007\SP\RB3LYP TD-FC\6-311+G(d,p)\C1H2O1\BWEIGHT\17-Sep-20
 21\0\\#p B3LYP/6-311+G** #p TD=(singlets,nstates=30)IOp(6/8=3) IOp(9/4
 0=4)\\Scan Step 277, Bond Length 1.885\\0,1\C,0,0.,0.,-0.52736\H,0,0.,
 0.93726,-1.11871\H,0,0.,-0.93726,-1.11871\O,0,0.,0.,1.35764\\Version=E
 S64L-G16RevA.03\State=1-A1\HF=-114.3294814\RMSD=5.546e-09\PG=C02V [C2(
 C1O1),SGV(H2)]\\@


 Sometimes the fool who rushes in gets the job done.
                                    -- Al Bernstein
 Job cpu time:       0 days  0 hours  0 minutes 25.8 seconds.
 Elapsed time:       0 days  0 hours  0 minutes 26.8 seconds.
 File lengths (MBytes):  RWF=     79 Int=      0 D2E=      0 Chk=     32 Scr=      1
 Normal termination of Gaussian 16 at Fri Sep 17 10:53:13 2021.
