 Entering Gaussian System, Link 0=g16
 Initial command:
 /software/gaussian/g16-c01/sse4/g16/l1.exe "/local_scratch/24665361/Gau-29461.inp" -scrdir="/local_scratch/24665361/"
 Entering Link 1 = /software/gaussian/g16-c01/sse4/g16/l1.exe PID=     29509.
  
 Copyright (c) 1988-2019, Gaussian, Inc.  All Rights Reserved.
  
 This is part of the Gaussian(R) 16 program.  It is based on
 the Gaussian(R) 09 system (copyright 2009, Gaussian, Inc.),
 the Gaussian(R) 03 system (copyright 2003, Gaussian, Inc.),
 the Gaussian(R) 98 system (copyright 1998, Gaussian, Inc.),
 the Gaussian(R) 94 system (copyright 1995, Gaussian, Inc.),
 the Gaussian 92(TM) system (copyright 1992, Gaussian, Inc.),
 the Gaussian 90(TM) system (copyright 1990, Gaussian, Inc.),
 the Gaussian 88(TM) system (copyright 1988, Gaussian, Inc.),
 the Gaussian 86(TM) system (copyright 1986, Carnegie Mellon
 University), and the Gaussian 82(TM) system (copyright 1983,
 Carnegie Mellon University). Gaussian is a federally registered
 trademark of Gaussian, Inc.
  
 This software contains proprietary and confidential information,
 including trade secrets, belonging to Gaussian, Inc.
  
 This software is provided under written license and may be
 used, copied, transmitted, or stored only in accord with that
 written license.
  
 The following legend is applicable only to US Government
 contracts under FAR:
  
                    RESTRICTED RIGHTS LEGEND
  
 Use, reproduction and disclosure by the US Government is
 subject to restrictions as set forth in subparagraphs (a)
 and (c) of the Commercial Computer Software - Restricted
 Rights clause in FAR 52.227-19.
  
 Gaussian, Inc.
 340 Quinnipiac St., Bldg. 40, Wallingford CT 06492
  
  
 ---------------------------------------------------------------
 Warning -- This program may not be used in any manner that
 competes with the business of Gaussian, Inc. or will provide
 assistance to any competitor of Gaussian, Inc.  The licensee
 of this program is prohibited from giving any competitor of
 Gaussian, Inc. access to this program.  By using this program,
 the user acknowledges that Gaussian, Inc. is engaged in the
 business of creating and licensing software in the field of
 computational chemistry and represents and warrants to the
 licensee that it is not a competitor of Gaussian, Inc. and that
 it will not use this program in any manner prohibited above.
 ---------------------------------------------------------------
  

 Cite this work as:
 Gaussian 16, Revision C.01,
 M. J. Frisch, G. W. Trucks, H. B. Schlegel, G. E. Scuseria, 
 M. A. Robb, J. R. Cheeseman, G. Scalmani, V. Barone, 
 G. A. Petersson, H. Nakatsuji, X. Li, M. Caricato, A. V. Marenich, 
 J. Bloino, B. G. Janesko, R. Gomperts, B. Mennucci, H. P. Hratchian, 
 J. V. Ortiz, A. F. Izmaylov, J. L. Sonnenberg, D. Williams-Young, 
 F. Ding, F. Lipparini, F. Egidi, J. Goings, B. Peng, A. Petrone, 
 T. Henderson, D. Ranasinghe, V. G. Zakrzewski, J. Gao, N. Rega, 
 G. Zheng, W. Liang, M. Hada, M. Ehara, K. Toyota, R. Fukuda, 
 J. Hasegawa, M. Ishida, T. Nakajima, Y. Honda, O. Kitao, H. Nakai, 
 T. Vreven, K. Throssell, J. A. Montgomery, Jr., J. E. Peralta, 
 F. Ogliaro, M. J. Bearpark, J. J. Heyd, E. N. Brothers, K. N. Kudin, 
 V. N. Staroverov, T. A. Keith, R. Kobayashi, J. Normand, 
 K. Raghavachari, A. P. Rendell, J. C. Burant, S. S. Iyengar, 
 J. Tomasi, M. Cossi, J. M. Millam, M. Klene, C. Adamo, R. Cammi, 
 J. W. Ochterski, R. L. Martin, K. Morokuma, O. Farkas, 
 J. B. Foresman, and D. J. Fox, Gaussian, Inc., Wallingford CT, 2019.
 
 ******************************************
 Gaussian 16:  ES64L-G16RevC.01  3-Jul-2019
                 2-May-2024 
 ******************************************
 %chk=geometry.chk
 %mem=1GB
 %nprocshared=12
 Will use up to   12 processors via shared memory.
 ----------------------------------------
 #P wB97XD/6-311+G* NoSymm #P Field=Z-214
 ----------------------------------------
 1/38=1,172=1/1;
 2/12=2,15=1,17=6,18=5,40=1/2;
 3/5=4,6=6,7=11,11=2,14=3,15=-214,25=1,30=1,74=-58/1,2,3;
 4//1;
 5/5=2,38=5/2;
 6/7=2,8=2,9=2,10=2,28=1/1;
 99/5=1,9=1/99;
 Leave Link    1 at Thu May  2 13:58:19 2024, MaxMem=   134217728 cpu:               1.7 elap:               1.7
 (Enter /software/gaussian/g16-c01/sse4/g16/l101.exe)
 -------
 TitleMe
 -------
 Symbolic Z-matrix:
 Charge =  1 Multiplicity = 1
 C                     0.5193    1.233    -0.0319 
 C                     1.9445    1.2692   -0.0367 
 C                     2.6204    0.0928   -0.025 
 C                    -0.196     0.0301    0.001 
 H                    -0.0207    2.1742   -0.0434 
 H                     2.4828    2.2089   -0.0361 
 H                    -1.2777    0.0399    0.0117 
 N                     4.0921    0.0959    0.0366 
 O                     4.6393   -1.0217    0.1446 
 O                     4.6649    1.1984   -0.0233 
 C                     0.4943   -1.1671    0.021 
 H                    -0.0325   -2.1149    0.0545 
 C                     1.9629   -1.2165   -0.0211 
 H                     2.4436   -1.9631    0.6151 
 Br                    2.173    -1.9491   -1.9062 
 
 ITRead=  0  0  0  0  0  0  0  0  0  0  0  0  0  0  0
 MicOpt= -1 -1 -1 -1 -1 -1 -1 -1 -1 -1 -1 -1 -1 -1 -1
 NAtoms=     15 NQM=       15 NQMF=       0 NMMI=      0 NMMIF=      0
                NMic=       0 NMicF=      0.
                    Isotopes and Nuclear Properties:
 (Nuclear quadrupole moments (NQMom) in fm**2, nuclear magnetic moments (NMagM)
  in nuclear magnetons)

  Atom         1           2           3           4           5           6           7           8           9          10
 IAtWgt=          12          12          12          12           1           1           1          14          16          16
 AtmWgt=  12.0000000  12.0000000  12.0000000  12.0000000   1.0078250   1.0078250   1.0078250  14.0030740  15.9949146  15.9949146
 NucSpn=           0           0           0           0           1           1           1           2           0           0
 AtZEff=  -0.0000000  -0.0000000  -0.0000000  -0.0000000  -0.0000000  -0.0000000  -0.0000000  -0.0000000  -0.0000000  -0.0000000
 NQMom=    0.0000000   0.0000000   0.0000000   0.0000000   0.0000000   0.0000000   0.0000000   2.0440000   0.0000000   0.0000000
 NMagM=    0.0000000   0.0000000   0.0000000   0.0000000   2.7928460   2.7928460   2.7928460   0.4037610   0.0000000   0.0000000
 AtZNuc=   6.0000000   6.0000000   6.0000000   6.0000000   1.0000000   1.0000000   1.0000000   7.0000000   8.0000000   8.0000000

  Atom        11          12          13          14          15
 IAtWgt=          12           1          12           1          79
 AtmWgt=  12.0000000   1.0078250  12.0000000   1.0078250  78.9183361
 NucSpn=           0           1           0           1           3
 AtZEff=  -0.0000000  -0.0000000  -0.0000000  -0.0000000  -0.0000000
 NQMom=    0.0000000   0.0000000   0.0000000   0.0000000  31.3000000
 NMagM=    0.0000000   2.7928460   0.0000000   2.7928460   2.1063990
 AtZNuc=   6.0000000   1.0000000   6.0000000   1.0000000  35.0000000
 Leave Link  101 at Thu May  2 13:58:21 2024, MaxMem=   134217728 cpu:               1.6 elap:               1.6
 (Enter /software/gaussian/g16-c01/sse4/g16/l202.exe)
                          Input orientation:                          
 ---------------------------------------------------------------------
 Center     Atomic      Atomic             Coordinates (Angstroms)
 Number     Number       Type             X           Y           Z
 ---------------------------------------------------------------------
      1          6           0        0.519300    1.233000   -0.031900
      2          6           0        1.944500    1.269200   -0.036700
      3          6           0        2.620400    0.092800   -0.025000
      4          6           0       -0.196000    0.030100    0.001000
      5          1           0       -0.020700    2.174200   -0.043400
      6          1           0        2.482800    2.208900   -0.036100
      7          1           0       -1.277700    0.039900    0.011700
      8          7           0        4.092100    0.095900    0.036600
      9          8           0        4.639300   -1.021700    0.144600
     10          8           0        4.664900    1.198400   -0.023300
     11          6           0        0.494300   -1.167100    0.021000
     12          1           0       -0.032500   -2.114900    0.054500
     13          6           0        1.962900   -1.216500   -0.021100
     14          1           0        2.443600   -1.963100    0.615100
     15         35           0        2.173000   -1.949100   -1.906200
 ---------------------------------------------------------------------
                    Distance matrix (angstroms):
                    1          2          3          4          5
     1  C    0.000000
     2  C    1.425668   0.000000
     3  C    2.390549   1.356796   0.000000
     4  C    1.399895   2.473566   2.817218   0.000000
     5  H    1.085168   2.163581   3.362733   2.151712   0.000000
     6  H    2.192654   1.082960   2.120598   3.453189   2.503751
     7  H    2.157452   3.449071   3.898632   1.081797   2.477564
     8  N    3.750012   2.448304   1.472992   4.288753   4.608780
     9  O    4.699917   3.541615   2.312322   4.950458   5.653735
    10  O    4.145753   2.721354   2.324292   4.999386   4.786171
    11  C    2.400813   2.835836   2.471794   1.382101   3.381369
    12  H    3.394169   3.920329   3.452266   2.151887   4.290233
    13  C    2.843264   2.485817   1.465124   2.493060   3.928360
    14  H    3.786370   3.334922   2.160489   3.364142   4.860416
    15  Br   4.046416   3.728900   2.812194   3.628609   5.028314
                    6          7          8          9         10
     6  H    0.000000
     7  H    4.341452   0.000000
     8  N    2.657047   5.370150   0.000000
     9  O    3.888434   6.012948   1.249048   0.000000
    10  O    2.404752   6.054572   1.243863   2.226587   0.000000
    11  C    3.918516   2.144043   3.813080   4.149391   4.794941
    12  H    5.003018   2.489080   4.679774   4.798846   5.748876
    13  C    3.464662   3.475788   2.501842   2.688591   3.623886
    14  H    4.222698   4.268978   2.700314   2.434893   3.916224
    15  Br   4.569706   4.420610   3.411663   3.338935   4.434144
                   11         12         13         14         15
    11  C    0.000000
    12  H    1.084880   0.000000
    13  C    1.470034   2.189625   0.000000
    14  H    2.187771   2.543302   1.092353   0.000000
    15  Br   2.672762   2.955683   2.033334   2.535818   0.000000
 Symmetry turned off by external request.
 Stoichiometry    C6H5BrNO2(1+)
 Framework group  C1[X(C6H5BrNO2)]
 Deg. of freedom    39
 Full point group                 C1      NOp   1
 Rotational constants (GHZ):           1.1632986           0.9594224           0.5957624
 Leave Link  202 at Thu May  2 13:58:22 2024, MaxMem=   134217728 cpu:               1.1 elap:               1.1
 (Enter /software/gaussian/g16-c01/sse4/g16/l301.exe)
 Standard basis: 6-311+G(d) (5D, 7F)
 Ernie: Thresh=  0.10000D-02 Tol=  0.10000D-05 Strict=F.
 The following finite field(s) will be applied:
 An electric field of              0.0000  0.0000 -0.0214
   261 basis functions,   443 primitive gaussians,   273 cartesian basis functions
    49 alpha electrons       49 beta electrons
       nuclear repulsion energy       772.8945969580 Hartrees.
 IExCor= 4639 DFT=T Ex+Corr=wB97XD ExCW=0 ScaHFX=  1.000000
 ScaDFX=  1.000000  1.000000  1.000000  1.000000 ScalE2=  1.000000  1.000000
 IRadAn=      5 IRanWt=     -1 IRanGd=            0 ICorTp=0 IEmpDi=121
 HFx  wShort=  0.000000 wLong=  0.200000 cFull=  0.222036 cShort=  0.000000 cLong=  0.777964
 DFx  wShort=  0.000000 wLong=  0.200000 cFull=  0.000000 cShort=  0.000000 cLong=  1.000000
 NAtoms=   15 NActive=   15 NUniq=   15 SFac= 1.00D+00 NAtFMM=   60 NAOKFM=F Big=F
 Integral buffers will be    131072 words long.
 Raffenetti 2 integral format.
 Two-electron integral symmetry is turned off.
 R6Disp:  Grimme-D2 Dispersion energy=       -0.0080346408 Hartrees.
 Nuclear repulsion after empirical dispersion term =      772.8865623173 Hartrees.
 Leave Link  301 at Thu May  2 13:58:24 2024, MaxMem=   134217728 cpu:               1.1 elap:               1.1
 (Enter /software/gaussian/g16-c01/sse4/g16/l302.exe)
 NPDir=0 NMtPBC=     1 NCelOv=     1 NCel=       1 NClECP=     1 NCelD=      1
         NCelK=      1 NCelE2=     1 NClLst=     1 CellRange=     0.0.
 One-electron integrals computed using PRISM.
 NBasis=   261 RedAO= T EigKep=  2.52D-06  NBF=   261
 NBsUse=   261 1.00D-06 EigRej= -1.00D+00 NBFU=   261
 Precomputing XC quadrature grid using
 IXCGrd= 4 IRadAn=           5 IRanWt=          -1 IRanGd=           0 AccXCQ= 0.00D+00.
 Generated NRdTot=       0 NPtTot=           0 NUsed=           0 NTot=          32
 NSgBfM=   273   273   273   273   273 MxSgAt=    15 MxSgA2=    15.
 Leave Link  302 at Thu May  2 13:58:46 2024, MaxMem=   134217728 cpu:              21.6 elap:              21.6
 (Enter /software/gaussian/g16-c01/sse4/g16/l303.exe)
 DipDrv:  MaxL=1.
 The nuclear repulsion energy is now       775.5331591304 hartrees.
 Leave Link  303 at Thu May  2 13:58:49 2024, MaxMem=   134217728 cpu:               3.3 elap:               3.3
 (Enter /software/gaussian/g16-c01/sse4/g16/l401.exe)
 ExpMin= 3.50D-02 ExpMax= 4.40D+05 ExpMxC= 1.51D+04 IAcc=3 IRadAn=         5 AccDes= 0.00D+00
 Harris functional with IExCor= 4639 and IRadAn=       5 diagonalized for initial guess.
 HarFok:  IExCor= 4639 AccDes= 0.00D+00 IRadAn=         5 IDoV= 1 UseB2=F ITyADJ=14
 ICtDFT=  3500011 ScaDFX=  1.000000  1.000000  1.000000  1.000000
 FoFCou: FMM=F IPFlag=           0 FMFlag=      100000 FMFlg1=           0
         NFxFlg=           0 DoJE=T BraDBF=F KetDBF=T FulRan=T
         wScrn=  0.000000 ICntrl=       500 IOpCl=  0 I1Cent=   200000004 NGrid=           0
         NMat0=    1 NMatS0=      1 NMatT0=    0 NMatD0=    1 NMtDS0=    0 NMtDT0=    0
 Symmetry not used in FoFCou.
 Harris En= -2970.67557720218    
 JPrj=0 DoOrth=F DoCkMO=F.
 Leave Link  401 at Thu May  2 13:59:21 2024, MaxMem=   134217728 cpu:              31.4 elap:              31.5
 (Enter /software/gaussian/g16-c01/sse4/g16/l502.exe)
 Two-electron integral symmetry not used.
 Closed shell SCF:
 Using DIIS extrapolation, IDIIS=  1040.
 NGot=   134217728 LenX=   134063053 LenY=   133988083
 Requested convergence on RMS density matrix=1.00D-08 within 128 cycles.
 Requested convergence on MAX density matrix=1.00D-06.
 Requested convergence on             energy=1.00D-06.
 No special actions if energy rises.
 Fock matrices will be formed incrementally for  20 cycles.

 Cycle   1  Pass 1  IDiag  1:
 FoFJK:  IHMeth= 1 ICntrl=       0 DoSepK=T KAlg= 0 I1Cent=           0 FoldK=F
 IRaf=         1 NMat=       1 IRICut=       1 DoRegI=T DoRafI=F ISym2E= 0 IDoP0=0 IntGTp=1.
 FoFCou: FMM=F IPFlag=           0 FMFlag=      100000 FMFlg1=           0
         NFxFlg=           0 DoJE=T BraDBF=F KetDBF=F FulRan=T
         wScrn=  0.000000 ICntrl=       500 IOpCl=  0 I1Cent=           0 NGrid=           0
         NMat0=    1 NMatS0=      1 NMatT0=    0 NMatD0=    1 NMtDS0=    0 NMtDT0=    0
 Symmetry not used in FoFCou.
 E= -3008.27857229533    
 DIIS: error= 2.92D-01 at cycle   1 NSaved=   1.
 NSaved= 1 IEnMin= 1 EnMin= -3008.27857229533     IErMin= 1 ErrMin= 2.92D-01
 ErrMax= 2.92D-01  0.00D+00 EMaxC= 1.00D-01 BMatC= 1.25D+01 BMatP= 1.25D+01
 IDIUse=3 WtCom= 0.00D+00 WtEn= 1.00D+00
 Coeff-Com:  0.100D+01
 Coeff-En:   0.100D+01
 Coeff:      0.100D+01
 Gap=    -0.529 Goal=   None    Shift=    0.000
 GapD=   -0.529 DampG=0.250 DampE=0.250 DampFc=0.2500 IDamp=-1.
 Damping current iteration by 2.50D-01
 RMSDP=2.32D+00 MaxDP=2.44D+02              OVMax= 7.51D-01

 Cycle   2  Pass 1  IDiag  1:
 RMSU=  3.03D-02    CP:  7.56D-01
 E= -3008.81116836443     Delta-E=       -0.532596069093 Rises=F Damp=T
 DIIS: error= 2.19D-01 at cycle   2 NSaved=   2.
 NSaved= 2 IEnMin= 2 EnMin= -3008.81116836443     IErMin= 2 ErrMin= 2.19D-01
 ErrMax= 2.19D-01  0.00D+00 EMaxC= 1.00D-01 BMatC= 5.62D+00 BMatP= 1.25D+01
 IDIUse=3 WtCom= 0.00D+00 WtEn= 1.00D+00
 Coeff-Com: -0.134D+01 0.234D+01
 Coeff-En:   0.191D+00 0.809D+00
 Coeff:      0.191D+00 0.809D+00
 Gap=     0.641 Goal=   None    Shift=    0.000
 RMSDP=1.74D+00 MaxDP=1.84D+02 DE=-5.33D-01 OVMax= 9.18D-01

 Cycle   3  Pass 1  IDiag  1:
 RMSU=  2.22D-02    CP:  2.05D-02  2.40D+00
 E= -3010.09590516717     Delta-E=       -1.284736802749 Rises=F Damp=F
 DIIS: error= 8.34D-02 at cycle   3 NSaved=   3.
 NSaved= 3 IEnMin= 3 EnMin= -3010.09590516717     IErMin= 3 ErrMin= 8.34D-02
 ErrMax= 8.34D-02  0.00D+00 EMaxC= 1.00D-01 BMatC= 1.42D+00 BMatP= 5.62D+00
 IDIUse=3 WtCom= 1.66D-01 WtEn= 8.34D-01
 Coeff-Com:  0.157D+00 0.799D-01 0.763D+00
 Coeff-En:   0.749D-01 0.000D+00 0.925D+00
 Coeff:      0.886D-01 0.133D-01 0.898D+00
 Gap=     0.313 Goal=   None    Shift=    0.000
 RMSDP=3.40D-02 MaxDP=2.80D+00 DE=-1.28D+00 OVMax= 2.79D-01

 Cycle   4  Pass 1  IDiag  1:
 RMSU=  2.76D-02    CP:  2.08D-02  1.75D+00  9.31D-01
 E= -3010.19105410897     Delta-E=       -0.095148941798 Rises=F Damp=F
 DIIS: error= 6.11D-02 at cycle   4 NSaved=   4.
 NSaved= 4 IEnMin= 4 EnMin= -3010.19105410897     IErMin= 4 ErrMin= 6.11D-02
 ErrMax= 6.11D-02  0.00D+00 EMaxC= 1.00D-01 BMatC= 8.99D-01 BMatP= 1.42D+00
 IDIUse=3 WtCom= 3.89D-01 WtEn= 6.11D-01
 Coeff-Com:  0.775D-01-0.622D-01 0.477D+00 0.508D+00
 Coeff-En:   0.000D+00 0.000D+00 0.439D+00 0.561D+00
 Coeff:      0.302D-01-0.242D-01 0.453D+00 0.541D+00
 Gap=     0.290 Goal=   None    Shift=    0.000
 RMSDP=1.81D-02 MaxDP=1.94D+00 DE=-9.51D-02 OVMax= 1.78D-01

 Cycle   5  Pass 1  IDiag  1:
 RMSU=  8.74D-03    CP:  1.72D-02  1.66D+00  8.81D-01  5.28D-01
 E= -3010.48062029977     Delta-E=       -0.289566190799 Rises=F Damp=F
 DIIS: error= 3.34D-02 at cycle   5 NSaved=   5.
 NSaved= 5 IEnMin= 5 EnMin= -3010.48062029977     IErMin= 5 ErrMin= 3.34D-02
 ErrMax= 3.34D-02  0.00D+00 EMaxC= 1.00D-01 BMatC= 8.46D-02 BMatP= 8.99D-01
 IDIUse=3 WtCom= 6.66D-01 WtEn= 3.34D-01
 Coeff-Com:  0.385D-01-0.414D-01 0.276D+00 0.343D+00 0.385D+00
 Coeff-En:   0.000D+00 0.000D+00 0.000D+00 0.111D+00 0.889D+00
 Coeff:      0.256D-01-0.276D-01 0.184D+00 0.265D+00 0.553D+00
 Gap=     0.282 Goal=   None    Shift=    0.000
 RMSDP=6.74D-03 MaxDP=5.92D-01 DE=-2.90D-01 OVMax= 1.64D-01

 Cycle   6  Pass 1  IDiag  1:
 RMSU=  3.94D-03    CP:  1.78D-02  1.52D+00  8.74D-01  6.04D-01  7.55D-01
 E= -3010.52132205483     Delta-E=       -0.040701755063 Rises=F Damp=F
 DIIS: error= 2.13D-02 at cycle   6 NSaved=   6.
 NSaved= 6 IEnMin= 6 EnMin= -3010.52132205483     IErMin= 6 ErrMin= 2.13D-02
 ErrMax= 2.13D-02  0.00D+00 EMaxC= 1.00D-01 BMatC= 2.96D-02 BMatP= 8.46D-02
 IDIUse=3 WtCom= 7.87D-01 WtEn= 2.13D-01
 Coeff-Com:  0.303D-02-0.447D-02 0.366D-01 0.633D-01 0.371D+00 0.530D+00
 Coeff-En:   0.000D+00 0.000D+00 0.000D+00 0.000D+00 0.293D+00 0.707D+00
 Coeff:      0.238D-02-0.352D-02 0.288D-01 0.498D-01 0.355D+00 0.568D+00
 Gap=     0.245 Goal=   None    Shift=    0.000
 RMSDP=2.93D-03 MaxDP=3.11D-01 DE=-4.07D-02 OVMax= 7.37D-02

 Cycle   7  Pass 1  IDiag  1:
 RMSU=  1.42D-03    CP:  1.84D-02  1.55D+00  8.94D-01  5.76D-01  8.95D-01
                    CP:  6.92D-01
 E= -3010.54078432841     Delta-E=       -0.019462273576 Rises=F Damp=F
 DIIS: error= 3.61D-03 at cycle   7 NSaved=   7.
 NSaved= 7 IEnMin= 7 EnMin= -3010.54078432841     IErMin= 7 ErrMin= 3.61D-03
 ErrMax= 3.61D-03  0.00D+00 EMaxC= 1.00D-01 BMatC= 1.24D-03 BMatP= 2.96D-02
 IDIUse=3 WtCom= 9.64D-01 WtEn= 3.61D-02
 Coeff-Com: -0.557D-03 0.365D-03-0.121D-01-0.955D-02 0.140D+00 0.322D+00
 Coeff-Com:  0.560D+00
 Coeff-En:   0.000D+00 0.000D+00 0.000D+00 0.000D+00 0.000D+00 0.000D+00
 Coeff-En:   0.100D+01
 Coeff:     -0.537D-03 0.352D-03-0.116D-01-0.920D-02 0.135D+00 0.310D+00
 Coeff:      0.576D+00
 Gap=     0.245 Goal=   None    Shift=    0.000
 RMSDP=9.59D-04 MaxDP=9.78D-02 DE=-1.95D-02 OVMax= 1.08D-02

 Cycle   8  Pass 1  IDiag  1:
 RMSU=  3.89D-04    CP:  1.82D-02  1.53D+00  8.82D-01  5.75D-01  9.17D-01
                    CP:  8.17D-01  8.47D-01
 E= -3010.54166577623     Delta-E=       -0.000881447820 Rises=F Damp=F
 DIIS: error= 6.65D-04 at cycle   8 NSaved=   8.
 NSaved= 8 IEnMin= 8 EnMin= -3010.54166577623     IErMin= 8 ErrMin= 6.65D-04
 ErrMax= 6.65D-04  0.00D+00 EMaxC= 1.00D-01 BMatC= 6.96D-05 BMatP= 1.24D-03
 IDIUse=3 WtCom= 9.93D-01 WtEn= 6.65D-03
 Coeff-Com: -0.184D-02 0.215D-02-0.842D-02-0.897D-02 0.156D-01 0.615D-01
 Coeff-Com:  0.252D+00 0.688D+00
 Coeff-En:   0.000D+00 0.000D+00 0.000D+00 0.000D+00 0.000D+00 0.000D+00
 Coeff-En:   0.000D+00 0.100D+01
 Coeff:     -0.183D-02 0.213D-02-0.836D-02-0.891D-02 0.155D-01 0.611D-01
 Coeff:      0.251D+00 0.690D+00
 Gap=     0.243 Goal=   None    Shift=    0.000
 RMSDP=2.70D-04 MaxDP=2.39D-02 DE=-8.81D-04 OVMax= 3.22D-03

 Cycle   9  Pass 1  IDiag  1:
 RMSU=  9.38D-05    CP:  1.83D-02  1.54D+00  8.83D-01  5.76D-01  9.25D-01
                    CP:  8.23D-01  9.08D-01  1.04D+00
 E= -3010.54172956353     Delta-E=       -0.000063787298 Rises=F Damp=F
 DIIS: error= 1.60D-04 at cycle   9 NSaved=   9.
 NSaved= 9 IEnMin= 9 EnMin= -3010.54172956353     IErMin= 9 ErrMin= 1.60D-04
 ErrMax= 1.60D-04  0.00D+00 EMaxC= 1.00D-01 BMatC= 5.94D-06 BMatP= 6.96D-05
 IDIUse=3 WtCom= 9.98D-01 WtEn= 1.60D-03
 Coeff-Com: -0.121D-02 0.160D-02-0.149D-02-0.157D-02-0.928D-02-0.150D-01
 Coeff-Com:  0.221D-01 0.251D+00 0.753D+00
 Coeff-En:   0.000D+00 0.000D+00 0.000D+00 0.000D+00 0.000D+00 0.000D+00
 Coeff-En:   0.000D+00 0.000D+00 0.100D+01
 Coeff:     -0.121D-02 0.159D-02-0.149D-02-0.156D-02-0.927D-02-0.150D-01
 Coeff:      0.221D-01 0.251D+00 0.754D+00
 Gap=     0.243 Goal=   None    Shift=    0.000
 RMSDP=1.25D-04 MaxDP=1.53D-02 DE=-6.38D-05 OVMax= 2.33D-03

 Cycle  10  Pass 1  IDiag  1:
 RMSU=  8.67D-05    CP:  1.83D-02  1.54D+00  8.82D-01  5.76D-01  9.19D-01
                    CP:  8.24D-01  8.93D-01  1.03D+00  1.04D+00
 E= -3010.54174153579     Delta-E=       -0.000011972263 Rises=F Damp=F
 DIIS: error= 8.77D-05 at cycle  10 NSaved=  10.
 NSaved=10 IEnMin=10 EnMin= -3010.54174153579     IErMin=10 ErrMin= 8.77D-05
 ErrMax= 8.77D-05  0.00D+00 EMaxC= 1.00D-01 BMatC= 1.55D-06 BMatP= 5.94D-06
 IDIUse=1 WtCom= 1.00D+00 WtEn= 0.00D+00
 Coeff-Com: -0.845D-03 0.119D-02 0.520D-03 0.714D-03-0.570D-02-0.143D-01
 Coeff-Com: -0.390D-01-0.498D-01 0.256D+00 0.851D+00
 Coeff:     -0.845D-03 0.119D-02 0.520D-03 0.714D-03-0.570D-02-0.143D-01
 Coeff:     -0.390D-01-0.498D-01 0.256D+00 0.851D+00
 Gap=     0.243 Goal=   None    Shift=    0.000
 RMSDP=7.18D-05 MaxDP=6.75D-03 DE=-1.20D-05 OVMax= 1.78D-03

 Cycle  11  Pass 1  IDiag  1:
 RMSU=  2.18D-05    CP:  1.83D-02  1.54D+00  8.82D-01  5.76D-01  9.15D-01
                    CP:  8.26D-01  8.85D-01  9.74D-01  1.18D+00  1.48D+00
 E= -3010.54174568827     Delta-E=       -0.000004152482 Rises=F Damp=F
 DIIS: error= 2.95D-05 at cycle  11 NSaved=  11.
 NSaved=11 IEnMin=11 EnMin= -3010.54174568827     IErMin=11 ErrMin= 2.95D-05
 ErrMax= 2.95D-05  0.00D+00 EMaxC= 1.00D-01 BMatC= 3.67D-07 BMatP= 1.55D-06
 IDIUse=1 WtCom= 1.00D+00 WtEn= 0.00D+00
 Coeff-Com: -0.468D-03 0.649D-03 0.261D-03 0.584D-03 0.479D-03-0.446D-03
 Coeff-Com: -0.170D-01-0.625D-01-0.662D-01 0.245D+00 0.899D+00
 Coeff:     -0.468D-03 0.649D-03 0.261D-03 0.584D-03 0.479D-03-0.446D-03
 Coeff:     -0.170D-01-0.625D-01-0.662D-01 0.245D+00 0.899D+00
 Gap=     0.244 Goal=   None    Shift=    0.000
 RMSDP=5.33D-05 MaxDP=5.23D-03 DE=-4.15D-06 OVMax= 1.15D-03

 Cycle  12  Pass 1  IDiag  1:
 RMSU=  1.04D-05    CP:  1.83D-02  1.54D+00  8.82D-01  5.76D-01  9.13D-01
                    CP:  8.26D-01  8.73D-01  9.59D-01  1.28D+00  1.76D+00
                    CP:  1.46D+00
 E= -3010.54174690970     Delta-E=       -0.000001221429 Rises=F Damp=F
 DIIS: error= 1.75D-05 at cycle  12 NSaved=  12.
 NSaved=12 IEnMin=12 EnMin= -3010.54174690970     IErMin=12 ErrMin= 1.75D-05
 ErrMax= 1.75D-05  0.00D+00 EMaxC= 1.00D-01 BMatC= 9.58D-08 BMatP= 3.67D-07
 IDIUse=1 WtCom= 1.00D+00 WtEn= 0.00D+00
 Coeff-Com: -0.165D-03 0.212D-03-0.114D-03 0.108D-03 0.155D-02 0.304D-02
 Coeff-Com:  0.436D-02-0.337D-02-0.794D-01-0.149D+00 0.279D+00 0.944D+00
 Coeff:     -0.165D-03 0.212D-03-0.114D-03 0.108D-03 0.155D-02 0.304D-02
 Coeff:      0.436D-02-0.337D-02-0.794D-01-0.149D+00 0.279D+00 0.944D+00
 Gap=     0.244 Goal=   None    Shift=    0.000
 RMSDP=3.04D-05 MaxDP=3.21D-03 DE=-1.22D-06 OVMax= 7.28D-04

 Cycle  13  Pass 1  IDiag  1:
 RMSU=  4.46D-06    CP:  1.83D-02  1.53D+00  8.82D-01  5.77D-01  9.11D-01
                    CP:  8.26D-01  8.68D-01  9.45D-01  1.30D+00  1.92D+00
                    CP:  1.85D+00  1.41D+00
 E= -3010.54174729379     Delta-E=       -0.000000384084 Rises=F Damp=F
 DIIS: error= 1.20D-05 at cycle  13 NSaved=  13.
 NSaved=13 IEnMin=13 EnMin= -3010.54174729379     IErMin=13 ErrMin= 1.20D-05
 ErrMax= 1.20D-05  0.00D+00 EMaxC= 1.00D-01 BMatC= 1.79D-08 BMatP= 9.58D-08
 IDIUse=1 WtCom= 1.00D+00 WtEn= 0.00D+00
 Coeff-Com: -0.245D-05 0.147D-06-0.571D-04-0.609D-04 0.234D-03 0.595D-03
 Coeff-Com:  0.569D-02 0.152D-01 0.340D-02-0.841D-01-0.177D+00 0.219D+00
 Coeff-Com:  0.102D+01
 Coeff:     -0.245D-05 0.147D-06-0.571D-04-0.609D-04 0.234D-03 0.595D-03
 Coeff:      0.569D-02 0.152D-01 0.340D-02-0.841D-01-0.177D+00 0.219D+00
 Coeff:      0.102D+01
 Gap=     0.244 Goal=   None    Shift=    0.000
 RMSDP=1.23D-05 MaxDP=1.24D-03 DE=-3.84D-07 OVMax= 3.58D-04

 Cycle  14  Pass 1  IDiag  1:
 RMSU=  2.25D-06    CP:  1.83D-02  1.53D+00  8.82D-01  5.77D-01  9.11D-01
                    CP:  8.26D-01  8.66D-01  9.42D-01  1.31D+00  1.98D+00
                    CP:  2.02D+00  1.82D+00  1.48D+00
 E= -3010.54174737857     Delta-E=       -0.000000084788 Rises=F Damp=F
 DIIS: error= 3.99D-06 at cycle  14 NSaved=  14.
 NSaved=14 IEnMin=14 EnMin= -3010.54174737857     IErMin=14 ErrMin= 3.99D-06
 ErrMax= 3.99D-06  0.00D+00 EMaxC= 1.00D-01 BMatC= 2.49D-09 BMatP= 1.79D-08
 IDIUse=1 WtCom= 1.00D+00 WtEn= 0.00D+00
 Coeff-Com:  0.252D-04-0.327D-04-0.169D-06-0.471D-04-0.225D-03-0.382D-03
 Coeff-Com:  0.134D-02 0.574D-02 0.158D-01-0.134D-02-0.113D+00-0.837D-01
 Coeff-Com:  0.364D+00 0.812D+00
 Coeff:      0.252D-04-0.327D-04-0.169D-06-0.471D-04-0.225D-03-0.382D-03
 Coeff:      0.134D-02 0.574D-02 0.158D-01-0.134D-02-0.113D+00-0.837D-01
 Coeff:      0.364D+00 0.812D+00
 Gap=     0.244 Goal=   None    Shift=    0.000
 RMSDP=2.76D-06 MaxDP=1.98D-04 DE=-8.48D-08 OVMax= 1.19D-04

 Cycle  15  Pass 1  IDiag  1:
 RMSU=  9.88D-07    CP:  1.83D-02  1.53D+00  8.82D-01  5.77D-01  9.11D-01
                    CP:  8.26D-01  8.66D-01  9.41D-01  1.31D+00  1.99D+00
                    CP:  2.08D+00  1.92D+00  1.71D+00  1.31D+00
 E= -3010.54174739083     Delta-E=       -0.000000012261 Rises=F Damp=F
 DIIS: error= 2.67D-06 at cycle  15 NSaved=  15.
 NSaved=15 IEnMin=15 EnMin= -3010.54174739083     IErMin=15 ErrMin= 2.67D-06
 ErrMax= 2.67D-06  0.00D+00 EMaxC= 1.00D-01 BMatC= 4.78D-10 BMatP= 2.49D-09
 IDIUse=1 WtCom= 1.00D+00 WtEn= 0.00D+00
 Coeff-Com:  0.174D-04-0.236D-04 0.683D-05 0.231D-05-0.488D-04-0.618D-04
 Coeff-Com: -0.991D-03-0.305D-02-0.199D-02 0.145D-01 0.354D-01-0.391D-01
 Coeff-Com: -0.182D+00-0.253D-01 0.120D+01
 Coeff:      0.174D-04-0.236D-04 0.683D-05 0.231D-05-0.488D-04-0.618D-04
 Coeff:     -0.991D-03-0.305D-02-0.199D-02 0.145D-01 0.354D-01-0.391D-01
 Coeff:     -0.182D+00-0.253D-01 0.120D+01
 Gap=     0.244 Goal=   None    Shift=    0.000
 RMSDP=2.84D-06 MaxDP=2.26D-04 DE=-1.23D-08 OVMax= 6.76D-05

 Cycle  16  Pass 1  IDiag  1:
 RMSU=  3.80D-07    CP:  1.83D-02  1.53D+00  8.82D-01  5.77D-01  9.11D-01
                    CP:  8.26D-01  8.67D-01  9.43D-01  1.32D+00  2.00D+00
                    CP:  2.09D+00  1.97D+00  1.82D+00  1.70D+00  1.39D+00
 E= -3010.54174739388     Delta-E=       -0.000000003043 Rises=F Damp=F
 DIIS: error= 8.81D-07 at cycle  16 NSaved=  16.
 NSaved=16 IEnMin=16 EnMin= -3010.54174739388     IErMin=16 ErrMin= 8.81D-07
 ErrMax= 8.81D-07  0.00D+00 EMaxC= 1.00D-01 BMatC= 1.12D-10 BMatP= 4.78D-10
 IDIUse=1 WtCom= 1.00D+00 WtEn= 0.00D+00
 Coeff-Com:  0.684D-05-0.961D-05 0.168D-06 0.365D-05 0.386D-04 0.855D-04
 Coeff-Com: -0.323D-03-0.141D-02-0.358D-02 0.958D-03 0.265D-01 0.121D-01
 Coeff-Com: -0.840D-01-0.170D+00 0.144D+00 0.108D+01
 Coeff:      0.684D-05-0.961D-05 0.168D-06 0.365D-05 0.386D-04 0.855D-04
 Coeff:     -0.323D-03-0.141D-02-0.358D-02 0.958D-03 0.265D-01 0.121D-01
 Coeff:     -0.840D-01-0.170D+00 0.144D+00 0.108D+01
 Gap=     0.244 Goal=   None    Shift=    0.000
 RMSDP=9.72D-07 MaxDP=6.98D-05 DE=-3.04D-09 OVMax= 2.71D-05

 Cycle  17  Pass 1  IDiag  1:
 RMSU=  1.89D-07    CP:  1.83D-02  1.53D+00  8.82D-01  5.77D-01  9.11D-01
                    CP:  8.26D-01  8.67D-01  9.43D-01  1.32D+00  2.00D+00
                    CP:  2.10D+00  1.98D+00  1.86D+00  1.80D+00  1.66D+00
                    CP:  1.33D+00
 E= -3010.54174739434     Delta-E=       -0.000000000464 Rises=F Damp=F
 DIIS: error= 2.56D-07 at cycle  17 NSaved=  17.
 NSaved=17 IEnMin=17 EnMin= -3010.54174739434     IErMin=17 ErrMin= 2.56D-07
 ErrMax= 2.56D-07  0.00D+00 EMaxC= 1.00D-01 BMatC= 1.82D-11 BMatP= 1.12D-10
 IDIUse=1 WtCom= 1.00D+00 WtEn= 0.00D+00
 Coeff-Com:  0.209D-05-0.288D-05-0.371D-06-0.210D-06 0.229D-04 0.408D-04
 Coeff-Com:  0.712D-04 0.683D-04-0.827D-03-0.240D-02 0.258D-02 0.102D-01
 Coeff-Com:  0.596D-02-0.507D-01-0.144D+00 0.311D+00 0.868D+00
 Coeff:      0.209D-05-0.288D-05-0.371D-06-0.210D-06 0.229D-04 0.408D-04
 Coeff:      0.712D-04 0.683D-04-0.827D-03-0.240D-02 0.258D-02 0.102D-01
 Coeff:      0.596D-02-0.507D-01-0.144D+00 0.311D+00 0.868D+00
 Gap=     0.244 Goal=   None    Shift=    0.000
 RMSDP=1.62D-07 MaxDP=9.18D-06 DE=-4.64D-10 OVMax= 7.41D-06

 Cycle  18  Pass 1  IDiag  1:
 RMSU=  5.09D-08    CP:  1.83D-02  1.53D+00  8.82D-01  5.77D-01  9.11D-01
                    CP:  8.26D-01  8.67D-01  9.43D-01  1.32D+00  2.00D+00
                    CP:  2.10D+00  1.98D+00  1.87D+00  1.81D+00  1.73D+00
                    CP:  1.44D+00  1.32D+00
 E= -3010.54174739438     Delta-E=       -0.000000000040 Rises=F Damp=F
 DIIS: error= 7.62D-08 at cycle  18 NSaved=  18.
 NSaved=18 IEnMin=18 EnMin= -3010.54174739438     IErMin=18 ErrMin= 7.62D-08
 ErrMax= 7.62D-08  0.00D+00 EMaxC= 1.00D-01 BMatC= 2.12D-12 BMatP= 1.82D-11
 IDIUse=1 WtCom= 1.00D+00 WtEn= 0.00D+00
 Coeff-Com:  0.197D-06-0.224D-06 0.542D-06-0.255D-06 0.271D-05 0.544D-06
 Coeff-Com:  0.597D-04 0.195D-03 0.251D-03-0.761D-03-0.298D-02 0.824D-03
 Coeff-Com:  0.141D-01 0.133D-01-0.489D-01-0.105D+00 0.178D+00 0.951D+00
 Coeff:      0.197D-06-0.224D-06 0.542D-06-0.255D-06 0.271D-05 0.544D-06
 Coeff:      0.597D-04 0.195D-03 0.251D-03-0.761D-03-0.298D-02 0.824D-03
 Coeff:      0.141D-01 0.133D-01-0.489D-01-0.105D+00 0.178D+00 0.951D+00
 Gap=     0.244 Goal=   None    Shift=    0.000
 RMSDP=6.45D-08 MaxDP=2.68D-06 DE=-4.00D-11 OVMax= 1.99D-06

 Cycle  19  Pass 1  IDiag  1:
 RMSU=  2.29D-08    CP:  1.83D-02  1.53D+00  8.82D-01  5.77D-01  9.11D-01
                    CP:  8.26D-01  8.67D-01  9.43D-01  1.32D+00  2.00D+00
                    CP:  2.10D+00  1.98D+00  1.87D+00  1.81D+00  1.74D+00
                    CP:  1.49D+00  1.46D+00  1.28D+00
 E= -3010.54174739439     Delta-E=       -0.000000000007 Rises=F Damp=F
 DIIS: error= 1.97D-08 at cycle  19 NSaved=  19.
 NSaved=19 IEnMin=19 EnMin= -3010.54174739439     IErMin=19 ErrMin= 1.97D-08
 ErrMax= 1.97D-08  0.00D+00 EMaxC= 1.00D-01 BMatC= 2.35D-13 BMatP= 2.12D-12
 IDIUse=1 WtCom= 1.00D+00 WtEn= 0.00D+00
 Coeff-Com:  0.440D-07-0.415D-07 0.227D-06-0.227D-07-0.131D-05-0.369D-05
 Coeff-Com:  0.402D-05 0.323D-04 0.123D-03 0.302D-04-0.976D-03-0.101D-02
 Coeff-Com:  0.217D-02 0.844D-02 0.107D-01-0.612D-01-0.573D-01 0.246D+00
 Coeff-Com:  0.853D+00
 Coeff:      0.440D-07-0.415D-07 0.227D-06-0.227D-07-0.131D-05-0.369D-05
 Coeff:      0.402D-05 0.323D-04 0.123D-03 0.302D-04-0.976D-03-0.101D-02
 Coeff:      0.217D-02 0.844D-02 0.107D-01-0.612D-01-0.573D-01 0.246D+00
 Coeff:      0.853D+00
 Gap=     0.244 Goal=   None    Shift=    0.000
 RMSDP=3.73D-08 MaxDP=3.07D-06 DE=-7.28D-12 OVMax= 5.22D-07

 Cycle  20  Pass 1  IDiag  1:
 RMSU=  8.83D-09    CP:  1.83D-02  1.53D+00  8.82D-01  5.77D-01  9.11D-01
                    CP:  8.26D-01  8.67D-01  9.43D-01  1.32D+00  2.00D+00
                    CP:  2.10D+00  1.98D+00  1.87D+00  1.81D+00  1.74D+00
                    CP:  1.49D+00  1.48D+00  1.39D+00  1.26D+00
 E= -3010.54174739443     Delta-E=       -0.000000000037 Rises=F Damp=F
 DIIS: error= 9.69D-09 at cycle  20 NSaved=  20.
 NSaved=20 IEnMin=20 EnMin= -3010.54174739443     IErMin=20 ErrMin= 9.69D-09
 ErrMax= 9.69D-09  0.00D+00 EMaxC= 1.00D-01 BMatC= 4.03D-14 BMatP= 2.35D-13
 IDIUse=1 WtCom= 1.00D+00 WtEn= 0.00D+00
 Coeff-Com: -0.678D-07 0.883D-07-0.921D-08 0.982D-07-0.587D-06-0.101D-05
 Coeff-Com: -0.997D-05-0.261D-04-0.829D-05 0.170D-03 0.304D-03-0.405D-03
 Coeff-Com: -0.195D-02-0.311D-03 0.116D-01-0.183D-02-0.445D-01-0.823D-01
 Coeff-Com:  0.246D+00 0.873D+00
 Coeff:     -0.678D-07 0.883D-07-0.921D-08 0.982D-07-0.587D-06-0.101D-05
 Coeff:     -0.997D-05-0.261D-04-0.829D-05 0.170D-03 0.304D-03-0.405D-03
 Coeff:     -0.195D-02-0.311D-03 0.116D-01-0.183D-02-0.445D-01-0.823D-01
 Coeff:      0.246D+00 0.873D+00
 Gap=     0.244 Goal=   None    Shift=    0.000
 RMSDP=1.09D-08 MaxDP=1.07D-06 DE=-3.73D-11 OVMax= 2.11D-07

 Cycle  21  Pass 1  IDiag  1:
 Restarting incremental Fock formation.
 E= -3010.54174739442     Delta-E=        0.000000000002 Rises=F Damp=F
 DIIS: error= 5.08D-09 at cycle  21 NSaved=  20.
 NSaved=20 IEnMin=19 EnMin= -3010.54174739443     IErMin=20 ErrMin= 5.08D-09
 ErrMax= 5.08D-09  0.00D+00 EMaxC= 1.00D-01 BMatC= 8.39D-15 BMatP= 4.03D-14
 IDIUse=1 WtCom= 1.00D+00 WtEn= 0.00D+00
 Coeff-Com: -0.261D-08-0.122D-07 0.396D-07 0.967D-07 0.262D-06-0.233D-05
 Coeff-Com: -0.117D-04-0.260D-04 0.305D-04 0.191D-03 0.432D-04-0.733D-03
 Coeff-Com: -0.139D-02 0.133D-02 0.898D-02 0.281D-02-0.499D-01-0.973D-01
 Coeff-Com:  0.143D+00 0.993D+00
 Coeff:     -0.261D-08-0.122D-07 0.396D-07 0.967D-07 0.262D-06-0.233D-05
 Coeff:     -0.117D-04-0.260D-04 0.305D-04 0.191D-03 0.432D-04-0.733D-03
 Coeff:     -0.139D-02 0.133D-02 0.898D-02 0.281D-02-0.499D-01-0.973D-01
 Coeff:      0.143D+00 0.993D+00
 Gap=     0.244 Goal=   None    Shift=    0.000
 RMSDP=7.43D-09 MaxDP=6.74D-07 DE= 1.82D-12 OVMax= 9.93D-08

 SCF Done:  E(RwB97XD) =  -3010.54174739     A.U. after   21 cycles
            NFock= 21  Conv=0.74D-08     -V/T= 2.0016
 KE= 3.005859656698D+03 PE=-8.702703703929D+03 EE= 1.910769140707D+03
 Leave Link  502 at Thu May  2 14:20:41 2024, MaxMem=   134217728 cpu:            1280.4 elap:            1280.7
 (Enter /software/gaussian/g16-c01/sse4/g16/l601.exe)
 Copying SCF densities to generalized density rwf, IOpCl= 0 IROHF=0.

 **********************************************************************

            Population analysis using the SCF Density.

 **********************************************************************

 Alpha  occ. eigenvalues -- -483.34909 -62.89975 -56.69606 -56.69122 -56.69118
 Alpha  occ. eigenvalues --  -19.46853 -19.46788 -14.86295 -10.60488 -10.60159
 Alpha  occ. eigenvalues --  -10.58623 -10.58498 -10.54635 -10.53934  -9.05812
 Alpha  occ. eigenvalues --   -6.88322  -6.86710  -6.86700  -2.98266  -2.97834
 Alpha  occ. eigenvalues --   -2.97825  -2.96534  -2.96533  -1.50508  -1.33452
 Alpha  occ. eigenvalues --   -1.23966  -1.14921  -1.13739  -1.07401  -1.01714
 Alpha  occ. eigenvalues --   -0.96751  -0.91812  -0.85840  -0.81912  -0.81235
 Alpha  occ. eigenvalues --   -0.80875  -0.79062  -0.77045  -0.76737  -0.74013
 Alpha  occ. eigenvalues --   -0.69860  -0.68864  -0.65390  -0.62578  -0.60595
 Alpha  occ. eigenvalues --   -0.58196  -0.57821  -0.56594  -0.56307
 Alpha virt. eigenvalues --   -0.31944  -0.21475  -0.19725  -0.17082  -0.14352
 Alpha virt. eigenvalues --   -0.13400  -0.11924  -0.09508  -0.08218  -0.07382
 Alpha virt. eigenvalues --   -0.05561  -0.05215  -0.03131  -0.02542  -0.01965
 Alpha virt. eigenvalues --   -0.01654   0.00104   0.00606   0.02065   0.02174
 Alpha virt. eigenvalues --    0.03815   0.04535   0.04766   0.05274   0.06737
 Alpha virt. eigenvalues --    0.07233   0.07619   0.08072   0.08388   0.09040
 Alpha virt. eigenvalues --    0.09797   0.10960   0.11244   0.11900   0.12899
 Alpha virt. eigenvalues --    0.13098   0.13319   0.14127   0.14714   0.15682
 Alpha virt. eigenvalues --    0.16365   0.17485   0.17942   0.18548   0.19290
 Alpha virt. eigenvalues --    0.20214   0.20752   0.21792   0.22144   0.23331
 Alpha virt. eigenvalues --    0.24028   0.25256   0.26557   0.28048   0.28580
 Alpha virt. eigenvalues --    0.30418   0.32730   0.33527   0.33675   0.35036
 Alpha virt. eigenvalues --    0.36433   0.37515   0.38318   0.39120   0.40556
 Alpha virt. eigenvalues --    0.43072   0.43766   0.44547   0.46211   0.46980
 Alpha virt. eigenvalues --    0.47589   0.49004   0.49300   0.50306   0.52757
 Alpha virt. eigenvalues --    0.53725   0.55170   0.57080   0.57463   0.59117
 Alpha virt. eigenvalues --    0.60002   0.61248   0.62753   0.65078   0.67140
 Alpha virt. eigenvalues --    0.70416   0.70627   0.72209   0.73006   0.73609
 Alpha virt. eigenvalues --    0.73903   0.76730   0.79132   0.80354   0.84202
 Alpha virt. eigenvalues --    0.85494   0.86915   0.90669   0.92822   0.97995
 Alpha virt. eigenvalues --    0.99570   1.01336   1.02874   1.04537   1.06099
 Alpha virt. eigenvalues --    1.07857   1.12101   1.12801   1.13404   1.17127
 Alpha virt. eigenvalues --    1.20508   1.22248   1.27156   1.32324   1.35288
 Alpha virt. eigenvalues --    1.35859   1.37939   1.41605   1.53658   1.55745
 Alpha virt. eigenvalues --    1.56468   1.58979   1.60233   1.63001   1.64460
 Alpha virt. eigenvalues --    1.67295   1.70236   1.73257   1.74292   1.78317
 Alpha virt. eigenvalues --    1.82944   1.84290   1.86199   1.90818   1.92986
 Alpha virt. eigenvalues --    1.96825   2.00713   2.01884   2.05849   2.07077
 Alpha virt. eigenvalues --    2.11246   2.13348   2.21374   2.22920   2.26497
 Alpha virt. eigenvalues --    2.32554   2.39107   2.40784   2.43536   2.52199
 Alpha virt. eigenvalues --    2.57158   2.62184   2.64888   2.67718   2.71151
 Alpha virt. eigenvalues --    2.72941   2.75739   2.76585   2.79798   2.80913
 Alpha virt. eigenvalues --    2.91894   2.97154   3.00520   3.04604   3.07841
 Alpha virt. eigenvalues --    3.13808   3.15365   3.16613   3.21838   3.25937
 Alpha virt. eigenvalues --    3.26935   3.37141   3.45534   3.49253   3.54014
 Alpha virt. eigenvalues --    3.56660   3.68306   3.73639   3.82494   3.86151
 Alpha virt. eigenvalues --    4.06003   4.06812   4.15800   4.19797   4.39779
 Alpha virt. eigenvalues --    4.44512   4.53416   4.59081   4.93031   4.95912
 Alpha virt. eigenvalues --    5.04712   5.09232   5.61424   6.14633   6.64134
 Alpha virt. eigenvalues --    7.44766   7.47156   7.57446  23.20888  23.60134
 Alpha virt. eigenvalues --   23.70018  23.76688  23.94547  24.00972  35.30869
 Alpha virt. eigenvalues --   47.90348  49.84646  49.93310 289.78025 289.80369
 Alpha virt. eigenvalues --  289.930341020.91590
          Condensed to atoms (all electrons):
               1          2          3          4          5          6
     1  C    8.397581  -3.199135   1.349596  -0.284335   0.309013   0.044241
     2  C   -3.199135  18.941307  -6.335583   0.795333  -0.038286   0.178639
     3  C    1.349596  -6.335583  20.452577  -1.734540   0.051233   0.132508
     4  C   -0.284335   0.795333  -1.734540   6.638830   0.001295  -0.017571
     5  H    0.309013  -0.038286   0.051233   0.001295   0.324946  -0.001475
     6  H    0.044241   0.178639   0.132508  -0.017571  -0.001475   0.306420
     7  H    0.016082  -0.020323   0.025760   0.320769  -0.002648  -0.000006
     8  N   -0.140900   0.618388  -1.755800   0.026582  -0.000859  -0.031412
     9  O   -0.049235   0.117300  -0.437705  -0.004759  -0.000044  -0.002295
    10  O    0.276116  -0.505522   0.051062  -0.037522   0.000092   0.021957
    11  C    1.055964  -1.673574   2.277514  -0.428648  -0.022201   0.010269
    12  H   -0.010517   0.009990   0.016285   0.000597   0.000010  -0.000018
    13  C   -1.639659  -2.919795  -7.728180   0.980062   0.026469   0.001460
    14  H   -0.004528   0.016428   0.028125   0.007153  -0.000021   0.000010
    15  Br  -0.065224  -0.075942  -0.293871   0.098749  -0.000143  -0.000564
               7          8          9         10         11         12
     1  C    0.016082  -0.140900  -0.049235   0.276116   1.055964  -0.010517
     2  C   -0.020323   0.618388   0.117300  -0.505522  -1.673574   0.009990
     3  C    0.025760  -1.755800  -0.437705   0.051062   2.277514   0.016285
     4  C    0.320769   0.026582  -0.004759  -0.037522  -0.428648   0.000597
     5  H   -0.002648  -0.000859  -0.000044   0.000092  -0.022201   0.000010
     6  H   -0.000006  -0.031412  -0.002295   0.021957   0.010269  -0.000018
     7  H    0.329474   0.000003   0.000016  -0.000017   0.027645  -0.002043
     8  N    0.000003   7.694728   0.149516   0.056684  -0.265690   0.000101
     9  O    0.000016   0.149516   7.808772   0.009179   0.212083   0.000082
    10  O   -0.000017   0.056684   0.009179   7.894355   0.042682   0.000003
    11  C    0.027645  -0.265690   0.212083   0.042682   8.676233   0.327468
    12  H   -0.002043   0.000101   0.000082   0.000003   0.327468   0.308346
    13  C   -0.035117   0.754041   0.137349   0.120265  -4.022876  -0.009899
    14  H    0.000012  -0.015156   0.001215  -0.001891  -0.021257  -0.002663
    15  Br  -0.000386   0.110461  -0.033849  -0.003483  -0.057012  -0.004143
              13         14         15
     1  C   -1.639659  -0.004528  -0.065224
     2  C   -2.919795   0.016428  -0.075942
     3  C   -7.728180   0.028125  -0.293871
     4  C    0.980062   0.007153   0.098749
     5  H    0.026469  -0.000021  -0.000143
     6  H    0.001460   0.000010  -0.000564
     7  H   -0.035117   0.000012  -0.000386
     8  N    0.754041  -0.015156   0.110461
     9  O    0.137349   0.001215  -0.033849
    10  O    0.120265  -0.001891  -0.003483
    11  C   -4.022876  -0.021257  -0.057012
    12  H   -0.009899  -0.002663  -0.004143
    13  C   19.956945   0.290349   0.359553
    14  H    0.290349   0.242845  -0.020590
    15  Br   0.359553  -0.020590  35.016945
 Mulliken charges:
               1
     1  C   -0.055060
     2  C    0.090774
     3  C   -0.098982
     4  C   -0.361997
     5  H    0.352619
     6  H    0.357838
     7  H    0.340779
     8  N   -0.200689
     9  O    0.092376
    10  O    0.076042
    11  C   -0.138599
    12  H    0.366401
    13  C   -0.270967
    14  H    0.479967
    15  Br  -0.030501
 Sum of Mulliken charges =   1.00000
 Mulliken charges with hydrogens summed into heavy atoms:
               1
     1  C    0.297559
     2  C    0.448611
     3  C   -0.098982
     4  C   -0.021218
     8  N   -0.200689
     9  O    0.092376
    10  O    0.076042
    11  C    0.227802
    13  C    0.208999
    15  Br  -0.030501
 Electronic spatial extent (au):  <R**2>=           3951.0912
 Charge=              1.0000 electrons
 Dipole moment (field-independent basis, Debye):
    X=              2.5013    Y=             -0.0726    Z=              3.0973  Tot=              3.9818
 Quadrupole moment (field-independent basis, Debye-Ang):
   XX=            -67.7762   YY=            -52.5230   ZZ=            -67.5373
   XY=             -1.3211   XZ=              5.3637   YZ=             -1.3110
 Traceless Quadrupole moment (field-independent basis, Debye-Ang):
   XX=             -5.1640   YY=             10.0891   ZZ=             -4.9251
   XY=             -1.3211   XZ=              5.3637   YZ=             -1.3110
 Octapole moment (field-independent basis, Debye-Ang**2):
  XXX=           -510.0805  YYY=             98.6922  ZZZ=            104.1241  XYY=           -140.3787
  XXY=             28.0228  XXZ=             50.1572  XZZ=           -144.2814  YZZ=             27.9187
  YYZ=             38.3308  XYZ=             -0.3850
 Hexadecapole moment (field-independent basis, Debye-Ang**3):
 XXXX=          -3422.6808 YYYY=           -718.1805 ZZZZ=           -451.1989 XXXY=            186.6866
 XXXZ=            269.5647 YYYX=            199.5345 YYYZ=           -196.6267 ZZZX=            212.2345
 ZZZY=           -178.2681 XXYY=           -632.9882 XXZZ=           -555.8829 YYZZ=           -197.4185
 XXYZ=            -62.6162 YYXZ=             76.5571 ZZXY=             52.3646
 N-N= 7.755331591304D+02 E-N=-8.702703703569D+03  KE= 3.005859656698D+03
 No NMR shielding tensors so no spin-rotation constants.
 Leave Link  601 at Thu May  2 14:20:49 2024, MaxMem=   134217728 cpu:               7.3 elap:               7.3
 (Enter /software/gaussian/g16-c01/sse4/g16/l9999.exe)
 Unable to Open any file for archive entry.
 1\1\GINC-BHX0015\SP\RwB97XD\6-311+G(d)\C6H5Br1N1O2(1+)\BWEIGHT\02-May-
 2024\0\\#P wB97XD/6-311+G* NoSymm #P Field=Z-214\\TitleMe\\1,1\C,0,0.5
 193,1.233,-0.0319\C,0,1.9445,1.2692,-0.0367\C,0,2.6204,0.0928,-0.025\C
 ,0,-0.196,0.0301,0.001\H,0,-0.0207,2.1742,-0.0434\H,0,2.4828,2.2089,-0
 .0361\H,0,-1.2777,0.0399,0.0117\N,0,4.0921,0.0959,0.0366\O,0,4.6393,-1
 .0217,0.1446\O,0,4.6649,1.1984,-0.0233\C,0,0.4943,-1.1671,0.021\H,0,-0
 .0325,-2.1149,0.0545\C,0,1.9629,-1.2165,-0.0211\H,0,2.4436,-1.9631,0.6
 151\Br,0,2.173,-1.9491,-1.9062\\Version=ES64L-G16RevC.01\HF=-3010.5417
 474\RMSD=7.432e-09\Dipole=-3.345125,1.1995551,2.4677809\Quadrupole=-3.
 8393006,7.5010154,-3.6617149,-0.9821812,3.9877872,-0.9747029\PG=C01 [X
 (C6H5Br1N1O2)]\\@
 The archive entry for this job was punched.


 KINETICS       FACT
 ---------  =  -------
 MECHANISM     FICTION
 Job cpu time:       0 days  0 hours 22 minutes 30.6 seconds.
 Elapsed time:       0 days  0 hours 22 minutes 30.8 seconds.
 File lengths (MBytes):  RWF=     40 Int=      0 D2E=      0 Chk=     32 Scr=      1
 Normal termination of Gaussian 16 at Thu May  2 14:20:50 2024.
