 Entering Gaussian System, Link 0=g16
 Initial command:
 /software/gaussian/g16-c01/sse4/g16/l1.exe "/local_scratch/24657557/Gau-10448.inp" -scrdir="/local_scratch/24657557/"
 Entering Link 1 = /software/gaussian/g16-c01/sse4/g16/l1.exe PID=     10449.
  
 Copyright (c) 1988-2019, Gaussian, Inc.  All Rights Reserved.
  
 This is part of the Gaussian(R) 16 program.  It is based on
 the Gaussian(R) 09 system (copyright 2009, Gaussian, Inc.),
 the Gaussian(R) 03 system (copyright 2003, Gaussian, Inc.),
 the Gaussian(R) 98 system (copyright 1998, Gaussian, Inc.),
 the Gaussian(R) 94 system (copyright 1995, Gaussian, Inc.),
 the Gaussian 92(TM) system (copyright 1992, Gaussian, Inc.),
 the Gaussian 90(TM) system (copyright 1990, Gaussian, Inc.),
 the Gaussian 88(TM) system (copyright 1988, Gaussian, Inc.),
 the Gaussian 86(TM) system (copyright 1986, Carnegie Mellon
 University), and the Gaussian 82(TM) system (copyright 1983,
 Carnegie Mellon University). Gaussian is a federally registered
 trademark of Gaussian, Inc.
  
 This software contains proprietary and confidential information,
 including trade secrets, belonging to Gaussian, Inc.
  
 This software is provided under written license and may be
 used, copied, transmitted, or stored only in accord with that
 written license.
  
 The following legend is applicable only to US Government
 contracts under FAR:
  
                    RESTRICTED RIGHTS LEGEND
  
 Use, reproduction and disclosure by the US Government is
 subject to restrictions as set forth in subparagraphs (a)
 and (c) of the Commercial Computer Software - Restricted
 Rights clause in FAR 52.227-19.
  
 Gaussian, Inc.
 340 Quinnipiac St., Bldg. 40, Wallingford CT 06492
  
  
 ---------------------------------------------------------------
 Warning -- This program may not be used in any manner that
 competes with the business of Gaussian, Inc. or will provide
 assistance to any competitor of Gaussian, Inc.  The licensee
 of this program is prohibited from giving any competitor of
 Gaussian, Inc. access to this program.  By using this program,
 the user acknowledges that Gaussian, Inc. is engaged in the
 business of creating and licensing software in the field of
 computational chemistry and represents and warrants to the
 licensee that it is not a competitor of Gaussian, Inc. and that
 it will not use this program in any manner prohibited above.
 ---------------------------------------------------------------
  

 Cite this work as:
 Gaussian 16, Revision C.01,
 M. J. Frisch, G. W. Trucks, H. B. Schlegel, G. E. Scuseria, 
 M. A. Robb, J. R. Cheeseman, G. Scalmani, V. Barone, 
 G. A. Petersson, H. Nakatsuji, X. Li, M. Caricato, A. V. Marenich, 
 J. Bloino, B. G. Janesko, R. Gomperts, B. Mennucci, H. P. Hratchian, 
 J. V. Ortiz, A. F. Izmaylov, J. L. Sonnenberg, D. Williams-Young, 
 F. Ding, F. Lipparini, F. Egidi, J. Goings, B. Peng, A. Petrone, 
 T. Henderson, D. Ranasinghe, V. G. Zakrzewski, J. Gao, N. Rega, 
 G. Zheng, W. Liang, M. Hada, M. Ehara, K. Toyota, R. Fukuda, 
 J. Hasegawa, M. Ishida, T. Nakajima, Y. Honda, O. Kitao, H. Nakai, 
 T. Vreven, K. Throssell, J. A. Montgomery, Jr., J. E. Peralta, 
 F. Ogliaro, M. J. Bearpark, J. J. Heyd, E. N. Brothers, K. N. Kudin, 
 V. N. Staroverov, T. A. Keith, R. Kobayashi, J. Normand, 
 K. Raghavachari, A. P. Rendell, J. C. Burant, S. S. Iyengar, 
 J. Tomasi, M. Cossi, J. M. Millam, M. Klene, C. Adamo, R. Cammi, 
 J. W. Ochterski, R. L. Martin, K. Morokuma, O. Farkas, 
 J. B. Foresman, and D. J. Fox, Gaussian, Inc., Wallingford CT, 2019.
 
 ******************************************
 Gaussian 16:  ES64L-G16RevC.01  3-Jul-2019
                 1-May-2024 
 ******************************************
 %chk=geometry.chk
 %mem=9GB
 %nprocshared=12
 Will use up to   12 processors via shared memory.
 ---------------------------------------
 #P wB97XD/6-311+G* NoSymm #P Field=Z-38
 ---------------------------------------
 1/38=1,172=1/1;
 2/12=2,15=1,17=6,18=5,40=1/2;
 3/5=4,6=6,7=11,11=2,14=3,15=-38,25=1,30=1,74=-58/1,2,3;
 4//1;
 5/5=2,38=5/2;
 6/7=2,8=2,9=2,10=2,28=1/1;
 99/5=1,9=1/99;
 Leave Link    1 at Wed May  1 15:05:01 2024, MaxMem=  1207959552 cpu:               1.2 elap:               1.2
 (Enter /software/gaussian/g16-c01/sse4/g16/l101.exe)
 -------
 TitleMe
 -------
 Symbolic Z-matrix:
 Charge =  1 Multiplicity = 1
 C                     0.0295    1.3397    0.0682 
 C                     1.4348    1.2867    0.0064 
 C                     2.1118    0.0511   -0.0054 
 C                     1.4451   -1.1372    0.0312 
 C                    -0.6879    0.1682    0.11 
 H                    -0.4713    2.2984    0.0781 
 H                     2.0273    2.1965   -0.0322 
 H                     1.9897   -2.0764    0.0232 
 H                    -1.7716    0.1804    0.1582 
 N                     3.5864    0.051    -0.0675 
 O                     4.1471   -1.0597   -0.0881 
 O                     4.145     1.1639   -0.0901 
 C                    -0.0236   -1.1458    0.0835 
 H                    -0.4367   -1.8725    0.7889 
 Br                   -0.5359   -1.8697   -1.7408 
 
 ITRead=  0  0  0  0  0  0  0  0  0  0  0  0  0  0  0
 MicOpt= -1 -1 -1 -1 -1 -1 -1 -1 -1 -1 -1 -1 -1 -1 -1
 NAtoms=     15 NQM=       15 NQMF=       0 NMMI=      0 NMMIF=      0
                NMic=       0 NMicF=      0.
                    Isotopes and Nuclear Properties:
 (Nuclear quadrupole moments (NQMom) in fm**2, nuclear magnetic moments (NMagM)
  in nuclear magnetons)

  Atom         1           2           3           4           5           6           7           8           9          10
 IAtWgt=          12          12          12          12          12           1           1           1           1          14
 AtmWgt=  12.0000000  12.0000000  12.0000000  12.0000000  12.0000000   1.0078250   1.0078250   1.0078250   1.0078250  14.0030740
 NucSpn=           0           0           0           0           0           1           1           1           1           2
 AtZEff=  -0.0000000  -0.0000000  -0.0000000  -0.0000000  -0.0000000  -0.0000000  -0.0000000  -0.0000000  -0.0000000  -0.0000000
 NQMom=    0.0000000   0.0000000   0.0000000   0.0000000   0.0000000   0.0000000   0.0000000   0.0000000   0.0000000   2.0440000
 NMagM=    0.0000000   0.0000000   0.0000000   0.0000000   0.0000000   2.7928460   2.7928460   2.7928460   2.7928460   0.4037610
 AtZNuc=   6.0000000   6.0000000   6.0000000   6.0000000   6.0000000   1.0000000   1.0000000   1.0000000   1.0000000   7.0000000

  Atom        11          12          13          14          15
 IAtWgt=          16          16          12           1          79
 AtmWgt=  15.9949146  15.9949146  12.0000000   1.0078250  78.9183361
 NucSpn=           0           0           0           1           3
 AtZEff=  -0.0000000  -0.0000000  -0.0000000  -0.0000000  -0.0000000
 NQMom=    0.0000000   0.0000000   0.0000000   0.0000000  31.3000000
 NMagM=    0.0000000   0.0000000   0.0000000   2.7928460   2.1063990
 AtZNuc=   8.0000000   8.0000000   6.0000000   1.0000000  35.0000000
 Leave Link  101 at Wed May  1 15:05:02 2024, MaxMem=  1207959552 cpu:               1.4 elap:               1.4
 (Enter /software/gaussian/g16-c01/sse4/g16/l202.exe)
                          Input orientation:                          
 ---------------------------------------------------------------------
 Center     Atomic      Atomic             Coordinates (Angstroms)
 Number     Number       Type             X           Y           Z
 ---------------------------------------------------------------------
      1          6           0        0.029500    1.339700    0.068200
      2          6           0        1.434800    1.286700    0.006400
      3          6           0        2.111800    0.051100   -0.005400
      4          6           0        1.445100   -1.137200    0.031200
      5          6           0       -0.687900    0.168200    0.110000
      6          1           0       -0.471300    2.298400    0.078100
      7          1           0        2.027300    2.196500   -0.032200
      8          1           0        1.989700   -2.076400    0.023200
      9          1           0       -1.771600    0.180400    0.158200
     10          7           0        3.586400    0.051000   -0.067500
     11          8           0        4.147100   -1.059700   -0.088100
     12          8           0        4.145000    1.163900   -0.090100
     13          6           0       -0.023600   -1.145800    0.083500
     14          1           0       -0.436700   -1.872500    0.788900
     15         35           0       -0.535900   -1.869700   -1.740800
 ---------------------------------------------------------------------
                    Distance matrix (angstroms):
                    1          2          3          4          5
     1  C    0.000000
     2  C    1.407656   0.000000
     3  C    2.449874   1.408963   0.000000
     4  C    2.853126   2.424049   1.363043   0.000000
     5  C    1.374344   2.401589   2.804523   2.501993   0.000000
     6  H    1.081667   2.159142   3.424870   3.934226   2.141421
     7  H    2.176095   1.086408   2.147231   3.384750   3.392128
     8  H    3.938800   3.408612   2.131193   1.085702   3.495040
     9  H    2.143837   3.395283   3.888995   3.478413   1.084840
    10  N    3.785591   2.482297   1.475907   2.450862   4.279589
    11  O    4.768247   3.587631   2.320164   2.705743   4.992415
    12  O    4.122294   2.714696   2.319353   3.549540   4.938459
    13  C    2.486114   2.837240   2.449573   1.469656   1.472614
    14  H    3.324903   3.754379   3.290289   2.157764   2.165286
    15  Br   3.727252   4.110867   3.702891   2.756973   2.757100
                    6          7          8          9         10
     6  H    0.000000
     7  H    2.503108   0.000000
     8  H    5.019802   4.273425   0.000000
     9  H    2.486588   4.304945   4.388479   0.000000
    10  N    4.640790   2.652397   2.661486   5.364313   0.000000
    11  O    5.712624   3.885809   2.387560   6.052233   1.244373
    12  O    4.756638   2.356750   3.893289   6.002923   1.245428
    13  C    3.473180   3.923079   2.218790   2.195425   3.806210
    14  H    4.231175   4.827242   2.552506   2.528663   4.540772
    15  Br   4.548146   5.101303   3.087568   3.055498   4.845862
                   11         12         13         14         15
    11  O    0.000000
    12  O    2.223602   0.000000
    13  C    4.175117   4.768865   0.000000
    14  H    4.737193   5.566358   1.093770   0.000000
    15  Br   5.031700   5.817075   2.028436   2.531646   0.000000
 Symmetry turned off by external request.
 Stoichiometry    C6H5BrNO2(1+)
 Framework group  C1[X(C6H5BrNO2)]
 Deg. of freedom    39
 Full point group                 C1      NOp   1
 Rotational constants (GHZ):           1.8252210           0.5518633           0.4576002
 Leave Link  202 at Wed May  1 15:05:03 2024, MaxMem=  1207959552 cpu:               1.1 elap:               1.1
 (Enter /software/gaussian/g16-c01/sse4/g16/l301.exe)
 Standard basis: 6-311+G(d) (5D, 7F)
 Ernie: Thresh=  0.10000D-02 Tol=  0.10000D-05 Strict=F.
 The following finite field(s) will be applied:
 An electric field of              0.0000  0.0000 -0.0038
   261 basis functions,   443 primitive gaussians,   273 cartesian basis functions
    49 alpha electrons       49 beta electrons
       nuclear repulsion energy       739.2122215416 Hartrees.
 IExCor= 4639 DFT=T Ex+Corr=wB97XD ExCW=0 ScaHFX=  1.000000
 ScaDFX=  1.000000  1.000000  1.000000  1.000000 ScalE2=  1.000000  1.000000
 IRadAn=      5 IRanWt=     -1 IRanGd=            0 ICorTp=0 IEmpDi=121
 HFx  wShort=  0.000000 wLong=  0.200000 cFull=  0.222036 cShort=  0.000000 cLong=  0.777964
 DFx  wShort=  0.000000 wLong=  0.200000 cFull=  0.000000 cShort=  0.000000 cLong=  1.000000
 NAtoms=   15 NActive=   15 NUniq=   15 SFac= 1.00D+00 NAtFMM=   60 NAOKFM=F Big=F
 Integral buffers will be    131072 words long.
 Raffenetti 2 integral format.
 Two-electron integral symmetry is turned off.
 R6Disp:  Grimme-D2 Dispersion energy=       -0.0077368520 Hartrees.
 Nuclear repulsion after empirical dispersion term =      739.2044846896 Hartrees.
 Leave Link  301 at Wed May  1 15:05:04 2024, MaxMem=  1207959552 cpu:               1.0 elap:               1.0
 (Enter /software/gaussian/g16-c01/sse4/g16/l302.exe)
 NPDir=0 NMtPBC=     1 NCelOv=     1 NCel=       1 NClECP=     1 NCelD=      1
         NCelK=      1 NCelE2=     1 NClLst=     1 CellRange=     0.0.
 One-electron integrals computed using PRISM.
 NBasis=   261 RedAO= T EigKep=  2.35D-06  NBF=   261
 NBsUse=   261 1.00D-06 EigRej= -1.00D+00 NBFU=   261
 Precomputing XC quadrature grid using
 IXCGrd= 4 IRadAn=           5 IRanWt=          -1 IRanGd=           0 AccXCQ= 0.00D+00.
 Generated NRdTot=       0 NPtTot=           0 NUsed=           0 NTot=          32
 NSgBfM=   273   273   273   273   273 MxSgAt=    15 MxSgA2=    15.
 Leave Link  302 at Wed May  1 15:05:25 2024, MaxMem=  1207959552 cpu:              21.0 elap:              20.9
 (Enter /software/gaussian/g16-c01/sse4/g16/l303.exe)
 DipDrv:  MaxL=1.
 The nuclear repulsion energy is now       739.6356761606 hartrees.
 Leave Link  303 at Wed May  1 15:05:28 2024, MaxMem=  1207959552 cpu:               3.1 elap:               3.1
 (Enter /software/gaussian/g16-c01/sse4/g16/l401.exe)
 ExpMin= 3.50D-02 ExpMax= 4.40D+05 ExpMxC= 1.51D+04 IAcc=3 IRadAn=         5 AccDes= 0.00D+00
 Harris functional with IExCor= 4639 and IRadAn=       5 diagonalized for initial guess.
 HarFok:  IExCor= 4639 AccDes= 0.00D+00 IRadAn=         5 IDoV= 1 UseB2=F ITyADJ=14
 ICtDFT=  3500011 ScaDFX=  1.000000  1.000000  1.000000  1.000000
 FoFCou: FMM=F IPFlag=           0 FMFlag=      100000 FMFlg1=           0
         NFxFlg=           0 DoJE=T BraDBF=F KetDBF=T FulRan=T
         wScrn=  0.000000 ICntrl=       500 IOpCl=  0 I1Cent=   200000004 NGrid=           0
         NMat0=    1 NMatS0=      1 NMatT0=    0 NMatD0=    1 NMtDS0=    0 NMtDT0=    0
 Symmetry not used in FoFCou.
 Harris En= -2970.59871863335    
 JPrj=0 DoOrth=F DoCkMO=F.
 Leave Link  401 at Wed May  1 15:05:57 2024, MaxMem=  1207959552 cpu:              29.2 elap:              29.2
 (Enter /software/gaussian/g16-c01/sse4/g16/l502.exe)
 Two-electron integral symmetry not used.
 Closed shell SCF:
 Using DIIS extrapolation, IDIIS=  1040.
 NGot=  1207959552 LenX=  1207804877 LenY=  1207729907
 Requested convergence on RMS density matrix=1.00D-08 within 128 cycles.
 Requested convergence on MAX density matrix=1.00D-06.
 Requested convergence on             energy=1.00D-06.
 No special actions if energy rises.
 Fock matrices will be formed incrementally for  20 cycles.

 Cycle   1  Pass 1  IDiag  1:
 FoFJK:  IHMeth= 1 ICntrl=       0 DoSepK=T KAlg= 0 I1Cent=           0 FoldK=F
 IRaf=         1 NMat=       1 IRICut=       1 DoRegI=T DoRafI=F ISym2E= 0 IDoP0=0 IntGTp=1.
 FoFCou: FMM=F IPFlag=           0 FMFlag=      100000 FMFlg1=           0
         NFxFlg=           0 DoJE=T BraDBF=F KetDBF=F FulRan=T
         wScrn=  0.000000 ICntrl=       500 IOpCl=  0 I1Cent=           0 NGrid=           0
         NMat0=    1 NMatS0=      1 NMatT0=    0 NMatD0=    1 NMtDS0=    0 NMtDT0=    0
 Symmetry not used in FoFCou.
 E= -3009.72642625367    
 DIIS: error= 3.20D-01 at cycle   1 NSaved=   1.
 NSaved= 1 IEnMin= 1 EnMin= -3009.72642625367     IErMin= 1 ErrMin= 3.20D-01
 ErrMax= 3.20D-01  0.00D+00 EMaxC= 1.00D-01 BMatC= 1.19D+01 BMatP= 1.19D+01
 IDIUse=3 WtCom= 0.00D+00 WtEn= 1.00D+00
 Coeff-Com:  0.100D+01
 Coeff-En:   0.100D+01
 Coeff:      0.100D+01
 Gap=     0.323 Goal=   None    Shift=    0.000
 GapD=    0.323 DampG=1.000 DampE=0.250 DampFc=0.2500 IDamp=-1.
 Damping current iteration by 2.50D-01
 RMSDP=3.83D-02 MaxDP=3.62D+00              OVMax= 2.56D-01

 Cycle   2  Pass 1  IDiag  1:
 RMSU=  3.95D-03    CP:  9.01D-01
 E= -3010.00829197837     Delta-E=       -0.281865724703 Rises=F Damp=T
 DIIS: error= 2.25D-01 at cycle   2 NSaved=   2.
 NSaved= 2 IEnMin= 2 EnMin= -3010.00829197837     IErMin= 2 ErrMin= 2.25D-01
 ErrMax= 2.25D-01  0.00D+00 EMaxC= 1.00D-01 BMatC= 5.45D+00 BMatP= 1.19D+01
 IDIUse=3 WtCom= 0.00D+00 WtEn= 1.00D+00
 Coeff-Com: -0.185D+01 0.285D+01
 Coeff-En:   0.000D+00 0.100D+01
 Coeff:      0.000D+00 0.100D+01
 Gap=     0.295 Goal=   None    Shift=    0.000
 RMSDP=3.01D-02 MaxDP=2.83D+00 DE=-2.82D-01 OVMax= 7.58D-02

 Cycle   3  Pass 1  IDiag  1:
 RMSU=  4.19D-03    CP:  5.79D-01  3.00D+00
 E= -3010.38842634880     Delta-E=       -0.380134370426 Rises=F Damp=F
 DIIS: error= 6.54D-02 at cycle   3 NSaved=   3.
 NSaved= 3 IEnMin= 3 EnMin= -3010.38842634880     IErMin= 3 ErrMin= 6.54D-02
 ErrMax= 6.54D-02  0.00D+00 EMaxC= 1.00D-01 BMatC= 7.25D-01 BMatP= 5.45D+00
 IDIUse=3 WtCom= 3.46D-01 WtEn= 6.54D-01
 Coeff-Com:  0.278D+01-0.366D+01 0.188D+01
 Coeff-En:   0.196D-01 0.000D+00 0.980D+00
 Coeff:      0.975D+00-0.127D+01 0.129D+01
 Gap=     0.261 Goal=   None    Shift=    0.000
 RMSDP=8.20D-03 MaxDP=4.36D-01 DE=-3.80D-01 OVMax= 6.53D-02

 Cycle   4  Pass 1  IDiag  1:
 RMSU=  4.56D-03    CP:  5.95D-01  2.14D+00  2.10D+00
 E= -3010.48960857428     Delta-E=       -0.101182225482 Rises=F Damp=F
 DIIS: error= 3.85D-02 at cycle   4 NSaved=   4.
 NSaved= 4 IEnMin= 4 EnMin= -3010.48960857428     IErMin= 4 ErrMin= 3.85D-02
 ErrMax= 3.85D-02  0.00D+00 EMaxC= 1.00D-01 BMatC= 2.32D-01 BMatP= 7.25D-01
 IDIUse=3 WtCom= 6.15D-01 WtEn= 3.85D-01
 Coeff-Com: -0.174D+00 0.245D+00 0.279D+00 0.651D+00
 Coeff-En:   0.000D+00 0.000D+00 0.198D+00 0.802D+00
 Coeff:     -0.107D+00 0.150D+00 0.247D+00 0.709D+00
 Gap=     0.262 Goal=   None    Shift=    0.000
 RMSDP=3.29D-03 MaxDP=2.36D-01 DE=-1.01D-01 OVMax= 2.62D-02

 Cycle   5  Pass 1  IDiag  1:
 RMSU=  1.20D-03    CP:  5.67D-01  2.54D+00  1.95D+00  8.93D-01
 E= -3010.53416038464     Delta-E=       -0.044551810365 Rises=F Damp=F
 DIIS: error= 6.85D-03 at cycle   5 NSaved=   5.
 NSaved= 5 IEnMin= 5 EnMin= -3010.53416038464     IErMin= 5 ErrMin= 6.85D-03
 ErrMax= 6.85D-03  0.00D+00 EMaxC= 1.00D-01 BMatC= 7.37D-03 BMatP= 2.32D-01
 IDIUse=3 WtCom= 9.32D-01 WtEn= 6.85D-02
 Coeff-Com: -0.134D+00 0.182D+00 0.459D-01 0.321D+00 0.586D+00
 Coeff-En:   0.000D+00 0.000D+00 0.000D+00 0.000D+00 0.100D+01
 Coeff:     -0.125D+00 0.169D+00 0.427D-01 0.299D+00 0.614D+00
 Gap=     0.260 Goal=   None    Shift=    0.000
 RMSDP=5.59D-04 MaxDP=3.54D-02 DE=-4.46D-02 OVMax= 1.05D-02

 Cycle   6  Pass 1  IDiag  1:
 RMSU=  4.29D-04    CP:  5.66D-01  2.53D+00  1.95D+00  8.84D-01  7.15D-01
 E= -3010.53563242238     Delta-E=       -0.001472037736 Rises=F Damp=F
 DIIS: error= 1.44D-03 at cycle   6 NSaved=   6.
 NSaved= 6 IEnMin= 6 EnMin= -3010.53563242238     IErMin= 6 ErrMin= 1.44D-03
 ErrMax= 1.44D-03  0.00D+00 EMaxC= 1.00D-01 BMatC= 2.03D-04 BMatP= 7.37D-03
 IDIUse=3 WtCom= 9.86D-01 WtEn= 1.44D-02
 Coeff-Com: -0.889D-01 0.119D+00-0.273D-02 0.151D+00 0.371D+00 0.450D+00
 Coeff-En:   0.000D+00 0.000D+00 0.000D+00 0.000D+00 0.000D+00 0.100D+01
 Coeff:     -0.876D-01 0.118D+00-0.269D-02 0.149D+00 0.366D+00 0.458D+00
 Gap=     0.258 Goal=   None    Shift=    0.000
 RMSDP=1.87D-04 MaxDP=1.20D-02 DE=-1.47D-03 OVMax= 6.24D-03

 Cycle   7  Pass 1  IDiag  1:
 RMSU=  1.18D-04    CP:  5.66D-01  2.51D+00  1.96D+00  8.91D-01  8.06D-01
                    CP:  8.56D-01
 E= -3010.53577583310     Delta-E=       -0.000143410727 Rises=F Damp=F
 DIIS: error= 5.03D-04 at cycle   7 NSaved=   7.
 NSaved= 7 IEnMin= 7 EnMin= -3010.53577583310     IErMin= 7 ErrMin= 5.03D-04
 ErrMax= 5.03D-04  0.00D+00 EMaxC= 1.00D-01 BMatC= 2.30D-05 BMatP= 2.03D-04
 IDIUse=3 WtCom= 9.95D-01 WtEn= 5.03D-03
 Coeff-Com: -0.354D-01 0.471D-01-0.133D-01 0.339D-01 0.105D+00 0.264D+00
 Coeff-Com:  0.599D+00
 Coeff-En:   0.000D+00 0.000D+00 0.000D+00 0.000D+00 0.000D+00 0.000D+00
 Coeff-En:   0.100D+01
 Coeff:     -0.352D-01 0.469D-01-0.132D-01 0.337D-01 0.104D+00 0.262D+00
 Coeff:      0.601D+00
 Gap=     0.258 Goal=   None    Shift=    0.000
 RMSDP=9.59D-05 MaxDP=7.38D-03 DE=-1.43D-04 OVMax= 2.63D-03

 Cycle   8  Pass 1  IDiag  1:
 RMSU=  5.16D-05    CP:  5.66D-01  2.50D+00  1.97D+00  8.98D-01  8.40D-01
                    CP:  9.01D-01  8.98D-01
 E= -3010.53579839586     Delta-E=       -0.000022562758 Rises=F Damp=F
 DIIS: error= 1.10D-04 at cycle   8 NSaved=   8.
 NSaved= 8 IEnMin= 8 EnMin= -3010.53579839586     IErMin= 8 ErrMin= 1.10D-04
 ErrMax= 1.10D-04  0.00D+00 EMaxC= 1.00D-01 BMatC= 2.24D-06 BMatP= 2.30D-05
 IDIUse=3 WtCom= 9.99D-01 WtEn= 1.10D-03
 Coeff-Com:  0.656D-02-0.898D-02-0.289D-02-0.163D-01-0.412D-01-0.299D-01
 Coeff-Com:  0.157D+00 0.936D+00
 Coeff-En:   0.000D+00 0.000D+00 0.000D+00 0.000D+00 0.000D+00 0.000D+00
 Coeff-En:   0.000D+00 0.100D+01
 Coeff:      0.655D-02-0.897D-02-0.289D-02-0.163D-01-0.412D-01-0.299D-01
 Coeff:      0.157D+00 0.936D+00
 Gap=     0.258 Goal=   None    Shift=    0.000
 RMSDP=5.62D-05 MaxDP=4.38D-03 DE=-2.26D-05 OVMax= 2.14D-03

 Cycle   9  Pass 1  IDiag  1:
 RMSU=  2.22D-05    CP:  5.66D-01  2.50D+00  1.97D+00  8.98D-01  8.45D-01
                    CP:  9.77D-01  1.09D+00  1.25D+00
 E= -3010.53580368993     Delta-E=       -0.000005294066 Rises=F Damp=F
 DIIS: error= 4.63D-05 at cycle   9 NSaved=   9.
 NSaved= 9 IEnMin= 9 EnMin= -3010.53580368993     IErMin= 9 ErrMin= 4.63D-05
 ErrMax= 4.63D-05  0.00D+00 EMaxC= 1.00D-01 BMatC= 2.49D-07 BMatP= 2.24D-06
 IDIUse=1 WtCom= 1.00D+00 WtEn= 0.00D+00
 Coeff-Com:  0.669D-02-0.897D-02 0.817D-03-0.961D-02-0.246D-01-0.462D-01
 Coeff-Com: -0.408D-01 0.284D+00 0.838D+00
 Coeff:      0.669D-02-0.897D-02 0.817D-03-0.961D-02-0.246D-01-0.462D-01
 Coeff:     -0.408D-01 0.284D+00 0.838D+00
 Gap=     0.258 Goal=   None    Shift=    0.000
 RMSDP=1.63D-05 MaxDP=9.09D-04 DE=-5.29D-06 OVMax= 9.84D-04

 Cycle  10  Pass 1  IDiag  1:
 RMSU=  7.28D-06    CP:  5.66D-01  2.50D+00  1.97D+00  8.98D-01  8.50D-01
                    CP:  9.91D-01  1.14D+00  1.36D+00  1.11D+00
 E= -3010.53580454252     Delta-E=       -0.000000852589 Rises=F Damp=F
 DIIS: error= 1.62D-05 at cycle  10 NSaved=  10.
 NSaved=10 IEnMin=10 EnMin= -3010.53580454252     IErMin=10 ErrMin= 1.62D-05
 ErrMax= 1.62D-05  0.00D+00 EMaxC= 1.00D-01 BMatC= 5.57D-08 BMatP= 2.49D-07
 IDIUse=1 WtCom= 1.00D+00 WtEn= 0.00D+00
 Coeff-Com:  0.387D-03-0.495D-03 0.365D-03-0.134D-03 0.146D-02-0.537D-02
 Coeff-Com: -0.335D-01-0.611D-01 0.237D+00 0.861D+00
 Coeff:      0.387D-03-0.495D-03 0.365D-03-0.134D-03 0.146D-02-0.537D-02
 Coeff:     -0.335D-01-0.611D-01 0.237D+00 0.861D+00
 Gap=     0.258 Goal=   None    Shift=    0.000
 RMSDP=8.55D-06 MaxDP=5.53D-04 DE=-8.53D-07 OVMax= 3.86D-04

 Cycle  11  Pass 1  IDiag  1:
 RMSU=  4.27D-06    CP:  5.66D-01  2.50D+00  1.97D+00  8.98D-01  8.49D-01
                    CP:  9.99D-01  1.14D+00  1.38D+00  1.27D+00  1.13D+00
 E= -3010.53580467568     Delta-E=       -0.000000133157 Rises=F Damp=F
 DIIS: error= 6.80D-06 at cycle  11 NSaved=  11.
 NSaved=11 IEnMin=11 EnMin= -3010.53580467568     IErMin=11 ErrMin= 6.80D-06
 ErrMax= 6.80D-06  0.00D+00 EMaxC= 1.00D-01 BMatC= 3.62D-09 BMatP= 5.57D-08
 IDIUse=1 WtCom= 1.00D+00 WtEn= 0.00D+00
 Coeff-Com: -0.301D-03 0.405D-03 0.484D-04 0.795D-03 0.263D-02 0.462D-02
 Coeff-Com:  0.383D-02-0.320D-01-0.943D-01 0.304D-01 0.108D+01
 Coeff:     -0.301D-03 0.405D-03 0.484D-04 0.795D-03 0.263D-02 0.462D-02
 Coeff:      0.383D-02-0.320D-01-0.943D-01 0.304D-01 0.108D+01
 Gap=     0.258 Goal=   None    Shift=    0.000
 RMSDP=3.05D-06 MaxDP=1.36D-04 DE=-1.33D-07 OVMax= 1.85D-04

 Cycle  12  Pass 1  IDiag  1:
 RMSU=  1.06D-06    CP:  5.66D-01  2.50D+00  1.97D+00  8.98D-01  8.49D-01
                    CP:  1.00D+00  1.14D+00  1.38D+00  1.33D+00  1.32D+00
                    CP:  1.29D+00
 E= -3010.53580469590     Delta-E=       -0.000000020229 Rises=F Damp=F
 DIIS: error= 2.20D-06 at cycle  12 NSaved=  12.
 NSaved=12 IEnMin=12 EnMin= -3010.53580469590     IErMin=12 ErrMin= 2.20D-06
 ErrMax= 2.20D-06  0.00D+00 EMaxC= 1.00D-01 BMatC= 1.21D-09 BMatP= 3.62D-09
 IDIUse=1 WtCom= 1.00D+00 WtEn= 0.00D+00
 Coeff-Com: -0.179D-03 0.237D-03-0.144D-04 0.380D-03 0.820D-03 0.254D-02
 Coeff-Com:  0.653D-02-0.537D-02-0.777D-01-0.116D+00 0.507D+00 0.682D+00
 Coeff:     -0.179D-03 0.237D-03-0.144D-04 0.380D-03 0.820D-03 0.254D-02
 Coeff:      0.653D-02-0.537D-02-0.777D-01-0.116D+00 0.507D+00 0.682D+00
 Gap=     0.258 Goal=   None    Shift=    0.000
 RMSDP=1.30D-06 MaxDP=1.17D-04 DE=-2.02D-08 OVMax= 5.04D-05

 Cycle  13  Pass 1  IDiag  1:
 RMSU=  3.71D-07    CP:  5.66D-01  2.50D+00  1.97D+00  8.97D-01  8.49D-01
                    CP:  1.00D+00  1.14D+00  1.38D+00  1.34D+00  1.35D+00
                    CP:  1.45D+00  8.69D-01
 E= -3010.53580469847     Delta-E=       -0.000000002567 Rises=F Damp=F
 DIIS: error= 7.11D-07 at cycle  13 NSaved=  13.
 NSaved=13 IEnMin=13 EnMin= -3010.53580469847     IErMin=13 ErrMin= 7.11D-07
 ErrMax= 7.11D-07  0.00D+00 EMaxC= 1.00D-01 BMatC= 1.13D-10 BMatP= 1.21D-09
 IDIUse=1 WtCom= 1.00D+00 WtEn= 0.00D+00
 Coeff-Com: -0.310D-04 0.415D-04-0.857D-05-0.505D-05-0.279D-03-0.444D-03
 Coeff-Com:  0.189D-03 0.267D-02 0.208D-03-0.199D-01-0.394D-01 0.161D+00
 Coeff-Com:  0.896D+00
 Coeff:     -0.310D-04 0.415D-04-0.857D-05-0.505D-05-0.279D-03-0.444D-03
 Coeff:      0.189D-03 0.267D-02 0.208D-03-0.199D-01-0.394D-01 0.161D+00
 Coeff:      0.896D+00
 Gap=     0.258 Goal=   None    Shift=    0.000
 RMSDP=3.62D-07 MaxDP=2.37D-05 DE=-2.57D-09 OVMax= 1.09D-05

 Cycle  14  Pass 1  IDiag  1:
 RMSU=  1.96D-07    CP:  5.66D-01  2.50D+00  1.97D+00  8.97D-01  8.49D-01
                    CP:  1.00D+00  1.14D+00  1.38D+00  1.34D+00  1.35D+00
                    CP:  1.48D+00  1.01D+00  1.12D+00
 E= -3010.53580469868     Delta-E=       -0.000000000210 Rises=F Damp=F
 DIIS: error= 2.35D-07 at cycle  14 NSaved=  14.
 NSaved=14 IEnMin=14 EnMin= -3010.53580469868     IErMin=14 ErrMin= 2.35D-07
 ErrMax= 2.35D-07  0.00D+00 EMaxC= 1.00D-01 BMatC= 1.51D-11 BMatP= 1.13D-10
 IDIUse=1 WtCom= 1.00D+00 WtEn= 0.00D+00
 Coeff-Com: -0.102D-05 0.160D-05-0.416D-05-0.403D-04-0.205D-03-0.503D-03
 Coeff-Com: -0.717D-03 0.195D-02 0.994D-02 0.600D-02-0.878D-01-0.109D-01
 Coeff-Com:  0.340D+00 0.742D+00
 Coeff:     -0.102D-05 0.160D-05-0.416D-05-0.403D-04-0.205D-03-0.503D-03
 Coeff:     -0.717D-03 0.195D-02 0.994D-02 0.600D-02-0.878D-01-0.109D-01
 Coeff:      0.340D+00 0.742D+00
 Gap=     0.258 Goal=   None    Shift=    0.000
 RMSDP=1.14D-07 MaxDP=7.24D-06 DE=-2.10D-10 OVMax= 2.83D-06

 Cycle  15  Pass 1  IDiag  1:
 RMSU=  4.60D-08    CP:  5.66D-01  2.50D+00  1.97D+00  8.97D-01  8.49D-01
                    CP:  1.00D+00  1.14D+00  1.38D+00  1.35D+00  1.35D+00
                    CP:  1.49D+00  1.06D+00  1.20D+00  1.13D+00
 E= -3010.53580469876     Delta-E=       -0.000000000083 Rises=F Damp=F
 DIIS: error= 1.01D-07 at cycle  15 NSaved=  15.
 NSaved=15 IEnMin=15 EnMin= -3010.53580469876     IErMin=15 ErrMin= 1.01D-07
 ErrMax= 1.01D-07  0.00D+00 EMaxC= 1.00D-01 BMatC= 1.89D-12 BMatP= 1.51D-11
 IDIUse=1 WtCom= 1.00D+00 WtEn= 0.00D+00
 Coeff-Com:  0.422D-05-0.562D-05 0.110D-06-0.596D-05 0.110D-04-0.327D-04
 Coeff-Com: -0.165D-03 0.151D-04 0.182D-02 0.457D-02-0.141D-01-0.178D-01
 Coeff-Com: -0.809D-01 0.158D+00 0.949D+00
 Coeff:      0.422D-05-0.562D-05 0.110D-06-0.596D-05 0.110D-04-0.327D-04
 Coeff:     -0.165D-03 0.151D-04 0.182D-02 0.457D-02-0.141D-01-0.178D-01
 Coeff:     -0.809D-01 0.158D+00 0.949D+00
 Gap=     0.258 Goal=   None    Shift=    0.000
 RMSDP=4.88D-08 MaxDP=2.48D-06 DE=-8.28D-11 OVMax= 2.04D-06

 Cycle  16  Pass 1  IDiag  1:
 RMSU=  2.15D-08    CP:  5.66D-01  2.50D+00  1.97D+00  8.97D-01  8.49D-01
                    CP:  1.00D+00  1.14D+00  1.38D+00  1.35D+00  1.35D+00
                    CP:  1.49D+00  1.07D+00  1.23D+00  1.26D+00  1.18D+00
 E= -3010.53580469874     Delta-E=        0.000000000026 Rises=F Damp=F
 DIIS: error= 2.69D-08 at cycle  16 NSaved=  16.
 NSaved=16 IEnMin=15 EnMin= -3010.53580469876     IErMin=16 ErrMin= 2.69D-08
 ErrMax= 2.69D-08  0.00D+00 EMaxC= 1.00D-01 BMatC= 4.80D-13 BMatP= 1.89D-12
 IDIUse=1 WtCom= 1.00D+00 WtEn= 0.00D+00
 Coeff-Com:  0.120D-05-0.162D-05 0.702D-06 0.448D-05 0.335D-04 0.610D-04
 Coeff-Com:  0.403D-04-0.300D-03-0.935D-03 0.916D-03 0.736D-02 0.373D-03
 Coeff-Com: -0.747D-01-0.751D-01 0.296D+00 0.847D+00
 Coeff:      0.120D-05-0.162D-05 0.702D-06 0.448D-05 0.335D-04 0.610D-04
 Coeff:      0.403D-04-0.300D-03-0.935D-03 0.916D-03 0.736D-02 0.373D-03
 Coeff:     -0.747D-01-0.751D-01 0.296D+00 0.847D+00
 Gap=     0.258 Goal=   None    Shift=    0.000
 RMSDP=2.54D-08 MaxDP=9.54D-07 DE= 2.64D-11 OVMax= 1.03D-06

 Cycle  17  Pass 1  IDiag  1:
 RMSU=  7.55D-09    CP:  5.66D-01  2.50D+00  1.97D+00  8.97D-01  8.49D-01
                    CP:  1.00D+00  1.14D+00  1.38D+00  1.35D+00  1.35D+00
                    CP:  1.49D+00  1.09D+00  1.22D+00  1.31D+00  1.47D+00
                    CP:  1.22D+00
 E= -3010.53580469876     Delta-E=       -0.000000000025 Rises=F Damp=F
 DIIS: error= 1.83D-08 at cycle  17 NSaved=  17.
 NSaved=17 IEnMin=15 EnMin= -3010.53580469876     IErMin=17 ErrMin= 1.83D-08
 ErrMax= 1.83D-08  0.00D+00 EMaxC= 1.00D-01 BMatC= 8.25D-14 BMatP= 4.80D-13
 IDIUse=1 WtCom= 1.00D+00 WtEn= 0.00D+00
 Coeff-Com: -0.209D-06 0.276D-06 0.192D-06 0.134D-05 0.257D-05 0.126D-04
 Coeff-Com:  0.295D-04-0.273D-04-0.463D-03-0.429D-03 0.296D-02 0.480D-02
 Coeff-Com:  0.252D-03-0.550D-01-0.131D+00 0.140D+00 0.104D+01
 Coeff:     -0.209D-06 0.276D-06 0.192D-06 0.134D-05 0.257D-05 0.126D-04
 Coeff:      0.295D-04-0.273D-04-0.463D-03-0.429D-03 0.296D-02 0.480D-02
 Coeff:      0.252D-03-0.550D-01-0.131D+00 0.140D+00 0.104D+01
 Gap=     0.258 Goal=   None    Shift=    0.000
 RMSDP=1.41D-08 MaxDP=7.44D-07 DE=-2.55D-11 OVMax= 6.73D-07

 Cycle  18  Pass 1  IDiag  1:
 RMSU=  4.11D-09    CP:  5.66D-01  2.50D+00  1.97D+00  8.97D-01  8.49D-01
                    CP:  1.00D+00  1.14D+00  1.38D+00  1.34D+00  1.35D+00
                    CP:  1.49D+00  1.09D+00  1.22D+00  1.34D+00  1.58D+00
                    CP:  1.51D+00  1.41D+00
 E= -3010.53580469873     Delta-E=        0.000000000032 Rises=F Damp=F
 DIIS: error= 5.54D-09 at cycle  18 NSaved=  18.
 NSaved=18 IEnMin=15 EnMin= -3010.53580469876     IErMin=18 ErrMin= 5.54D-09
 ErrMax= 5.54D-09  0.00D+00 EMaxC= 1.00D-01 BMatC= 2.27D-14 BMatP= 8.25D-14
 IDIUse=1 WtCom= 1.00D+00 WtEn= 0.00D+00
 Coeff-Com: -0.558D-07 0.765D-07-0.102D-06-0.126D-05-0.892D-05-0.141D-04
 Coeff-Com: -0.515D-05 0.921D-04 0.122D-03-0.361D-03-0.165D-02 0.177D-02
 Coeff-Com:  0.214D-01 0.719D-02-0.102D+00-0.220D+00 0.280D+00 0.101D+01
 Coeff:     -0.558D-07 0.765D-07-0.102D-06-0.126D-05-0.892D-05-0.141D-04
 Coeff:     -0.515D-05 0.921D-04 0.122D-03-0.361D-03-0.165D-02 0.177D-02
 Coeff:      0.214D-01 0.719D-02-0.102D+00-0.220D+00 0.280D+00 0.101D+01
 Gap=     0.258 Goal=   None    Shift=    0.000
 RMSDP=7.02D-09 MaxDP=3.07D-07 DE= 3.18D-11 OVMax= 2.95D-07

 SCF Done:  E(RwB97XD) =  -3010.53580470     A.U. after   18 cycles
            NFock= 18  Conv=0.70D-08     -V/T= 2.0016
 KE= 3.005857187362D+03 PE=-8.632675071109D+03 EE= 1.876646402887D+03
 Leave Link  502 at Wed May  1 15:22:29 2024, MaxMem=  1207959552 cpu:             991.7 elap:             991.8
 (Enter /software/gaussian/g16-c01/sse4/g16/l601.exe)
 Copying SCF densities to generalized density rwf, IOpCl= 0 IROHF=0.

 **********************************************************************

            Population analysis using the SCF Density.

 **********************************************************************

 Alpha  occ. eigenvalues -- -483.31673 -62.86708 -56.66387 -56.65834 -56.65832
 Alpha  occ. eigenvalues --  -19.45819 -19.45743 -14.85322 -10.58399 -10.57511
 Alpha  occ. eigenvalues --  -10.57152 -10.56964 -10.56698 -10.52888  -9.02522
 Alpha  occ. eigenvalues --   -6.85161  -6.83348  -6.83334  -2.95075  -2.94593
 Alpha  occ. eigenvalues --   -2.94580  -2.93129  -2.93129  -1.49581  -1.32556
 Alpha  occ. eigenvalues --   -1.22633  -1.14134  -1.11730  -1.04692  -1.00986
 Alpha  occ. eigenvalues --   -0.95450  -0.90906  -0.85211  -0.80694  -0.80592
 Alpha  occ. eigenvalues --   -0.79930  -0.78229  -0.76037  -0.75863  -0.72381
 Alpha  occ. eigenvalues --   -0.69306  -0.67506  -0.63773  -0.60281  -0.57232
 Alpha  occ. eigenvalues --   -0.56792  -0.56105  -0.55612  -0.55484
 Alpha virt. eigenvalues --   -0.29673  -0.21246  -0.15823  -0.13395  -0.08754
 Alpha virt. eigenvalues --   -0.06032  -0.05989  -0.05236  -0.04176  -0.03296
 Alpha virt. eigenvalues --   -0.02797  -0.02453  -0.01778  -0.01407  -0.00641
 Alpha virt. eigenvalues --    0.00842   0.01384   0.01715   0.02591   0.02671
 Alpha virt. eigenvalues --    0.04485   0.05082   0.05299   0.05975   0.06919
 Alpha virt. eigenvalues --    0.07160   0.07410   0.07818   0.08693   0.09364
 Alpha virt. eigenvalues --    0.10626   0.11099   0.11364   0.11896   0.12518
 Alpha virt. eigenvalues --    0.12742   0.13173   0.13723   0.15160   0.16222
 Alpha virt. eigenvalues --    0.16532   0.17314   0.17870   0.18624   0.19173
 Alpha virt. eigenvalues --    0.19338   0.20896   0.21521   0.21688   0.24451
 Alpha virt. eigenvalues --    0.25357   0.27767   0.28003   0.28932   0.30447
 Alpha virt. eigenvalues --    0.32477   0.33534   0.33851   0.34762   0.36130
 Alpha virt. eigenvalues --    0.37185   0.37967   0.38966   0.40612   0.41444
 Alpha virt. eigenvalues --    0.42560   0.43740   0.44348   0.46479   0.47372
 Alpha virt. eigenvalues --    0.47819   0.49936   0.50663   0.52103   0.53570
 Alpha virt. eigenvalues --    0.54140   0.55097   0.56616   0.56957   0.59453
 Alpha virt. eigenvalues --    0.61173   0.62232   0.63978   0.66629   0.68568
 Alpha virt. eigenvalues --    0.70217   0.71979   0.72650   0.73211   0.74241
 Alpha virt. eigenvalues --    0.74415   0.79346   0.79882   0.82737   0.85047
 Alpha virt. eigenvalues --    0.86237   0.87952   0.91824   0.92965   0.98517
 Alpha virt. eigenvalues --    0.99604   1.01027   1.04598   1.05356   1.06521
 Alpha virt. eigenvalues --    1.09023   1.11014   1.11995   1.12456   1.14246
 Alpha virt. eigenvalues --    1.22058   1.24518   1.26744   1.32938   1.36475
 Alpha virt. eigenvalues --    1.36857   1.37952   1.45047   1.54354   1.57093
 Alpha virt. eigenvalues --    1.58470   1.58740   1.60598   1.62364   1.66259
 Alpha virt. eigenvalues --    1.69121   1.69645   1.73517   1.75293   1.79008
 Alpha virt. eigenvalues --    1.81092   1.85450   1.87315   1.92896   1.95028
 Alpha virt. eigenvalues --    1.97674   2.02896   2.03753   2.06595   2.07938
 Alpha virt. eigenvalues --    2.09502   2.14683   2.20379   2.22663   2.29366
 Alpha virt. eigenvalues --    2.37610   2.41150   2.42581   2.43493   2.52454
 Alpha virt. eigenvalues --    2.56676   2.63021   2.66061   2.68183   2.71733
 Alpha virt. eigenvalues --    2.73390   2.76511   2.77347   2.81027   2.81702
 Alpha virt. eigenvalues --    2.93423   2.96277   3.00677   3.05518   3.08889
 Alpha virt. eigenvalues --    3.12983   3.14910   3.19050   3.23684   3.24286
 Alpha virt. eigenvalues --    3.27381   3.39123   3.47619   3.51218   3.54467
 Alpha virt. eigenvalues --    3.56843   3.69956   3.74137   3.82128   3.87113
 Alpha virt. eigenvalues --    4.08364   4.08601   4.16158   4.21363   4.42204
 Alpha virt. eigenvalues --    4.44381   4.57379   4.59897   4.93228   4.95897
 Alpha virt. eigenvalues --    5.04544   5.08711   5.62856   6.15799   6.64108
 Alpha virt. eigenvalues --    7.47031   7.48611   7.58430  23.21246  23.61251
 Alpha virt. eigenvalues --   23.69437  23.79405  23.96007  24.01360  35.32635
 Alpha virt. eigenvalues --   47.90718  49.85607  49.94417 289.80057 289.81725
 Alpha virt. eigenvalues --  289.941761020.91154
          Condensed to atoms (all electrons):
               1          2          3          4          5          6
     1  C    8.854559  -2.402289   0.312347  -1.639949  -0.636613   0.311672
     2  C   -2.402289  12.924560  -1.921754  -2.434679   0.810140  -0.015119
     3  C    0.312347  -1.921754  13.044909  -3.064317  -1.334326   0.023085
     4  C   -1.639949  -2.434679  -3.064317  14.504271   1.314907   0.011688
     5  C   -0.636613   0.810140  -1.334326   1.314907   7.387359   0.013348
     6  H    0.311672  -0.015119   0.023085   0.011688   0.013348   0.334654
     7  H    0.068087   0.230207   0.078166  -0.032401  -0.019252  -0.001804
     8  H    0.003760  -0.010890   0.072636   0.249756  -0.018563   0.000001
     9  H    0.030073  -0.013145   0.004275  -0.006968   0.311409  -0.002289
    10  N   -0.151264   0.346190  -0.933483   0.341708   0.023110  -0.000619
    11  O    0.012893  -0.064742  -0.257980  -0.015382  -0.054988  -0.000026
    12  O    0.327531  -0.035135  -0.275487  -0.096346  -0.043191   0.000011
    13  C    1.455369  -1.933592   0.920710  -3.416603  -1.804341  -0.009338
    14  H   -0.008794  -0.001996   0.003743  -0.071229  -0.025678  -0.000049
    15  Br   0.047349  -0.007614   0.048131   0.063371   0.060623  -0.000446
               7          8          9         10         11         12
     1  C    0.068087   0.003760   0.030073  -0.151264   0.012893   0.327531
     2  C    0.230207  -0.010890  -0.013145   0.346190  -0.064742  -0.035135
     3  C    0.078166   0.072636   0.004275  -0.933483  -0.257980  -0.275487
     4  C   -0.032401   0.249756  -0.006968   0.341708  -0.015382  -0.096346
     5  C   -0.019252  -0.018563   0.311409   0.023110  -0.054988  -0.043191
     6  H   -0.001804   0.000001  -0.002289  -0.000619  -0.000026   0.000011
     7  H    0.301124  -0.000006   0.000010  -0.025981  -0.001492   0.022430
     8  H   -0.000006   0.292940   0.000090  -0.023877   0.022404  -0.000830
     9  H    0.000010   0.000090   0.323562   0.000356   0.000009   0.000006
    10  N   -0.025981  -0.023877   0.000356   7.360269   0.183866   0.152737
    11  O   -0.001492   0.022404   0.000009   0.183866   7.840863   0.001007
    12  O    0.022430  -0.000830   0.000006   0.152737   0.001007   7.874741
    13  C    0.014431   0.039717   0.005248  -0.170881   0.302749   0.042709
    14  H   -0.000014  -0.003547  -0.004959   0.000071  -0.000307  -0.000086
    15  Br  -0.000129   0.001568   0.000001   0.004362  -0.000135   0.001980
              13         14         15
     1  C    1.455369  -0.008794   0.047349
     2  C   -1.933592  -0.001996  -0.007614
     3  C    0.920710   0.003743   0.048131
     4  C   -3.416603  -0.071229   0.063371
     5  C   -1.804341  -0.025678   0.060623
     6  H   -0.009338  -0.000049  -0.000446
     7  H    0.014431  -0.000014  -0.000129
     8  H    0.039717  -0.003547   0.001568
     9  H    0.005248  -0.004959   0.000001
    10  N   -0.170881   0.000071   0.004362
    11  O    0.302749  -0.000307  -0.000135
    12  O    0.042709  -0.000086   0.001980
    13  C   10.669751   0.409076  -0.053512
    14  H    0.409076   0.323945  -0.037361
    15  Br  -0.053512  -0.037361  34.731836
 Mulliken charges:
               1
     1  C   -0.584730
     2  C    0.529858
     3  C   -0.720655
     4  C    0.292174
     5  C    0.016054
     6  H    0.335230
     7  H    0.366624
     8  H    0.374840
     9  H    0.352322
    10  N   -0.106562
    11  O    0.031259
    12  O    0.027922
    13  C   -0.471494
    14  H    0.417185
    15  Br   0.139975
 Sum of Mulliken charges =   1.00000
 Mulliken charges with hydrogens summed into heavy atoms:
               1
     1  C   -0.249501
     2  C    0.896481
     3  C   -0.720655
     4  C    0.667014
     5  C    0.368376
    10  N   -0.106562
    11  O    0.031259
    12  O    0.027922
    13  C   -0.054309
    15  Br   0.139975
 Electronic spatial extent (au):  <R**2>=           2798.9621
 Charge=              1.0000 electrons
 Dipole moment (field-independent basis, Debye):
    X=             -0.7364    Y=             -0.4440    Z=              0.6373  Tot=              1.0703
 Quadrupole moment (field-independent basis, Debye-Ang):
   XX=            -71.1203   YY=            -52.1871   ZZ=            -63.3392
   XY=              1.1957   XZ=              1.4137   YZ=              1.1002
 Traceless Quadrupole moment (field-independent basis, Debye-Ang):
   XX=             -8.9048   YY=             10.0284   ZZ=             -1.1237
   XY=              1.1957   XZ=              1.4137   YZ=              1.1002
 Octapole moment (field-independent basis, Debye-Ang**2):
  XXX=           -298.7932  YYY=             88.5988  ZZZ=             80.3295  XYY=            -75.7497
  XXY=             30.2174  XXZ=             34.4275  XZZ=            -77.7258  YZZ=             17.7049
  YYZ=             27.3553  XYZ=             -3.0041
 Hexadecapole moment (field-independent basis, Debye-Ang**3):
 XXXX=          -2276.7801 YYYY=           -678.6359 ZZZZ=           -354.1488 XXXY=            -68.7957
 XXXZ=            -15.5112 YYYX=            -60.2752 YYYZ=           -158.6716 ZZZX=            -18.6466
 ZZZY=           -139.6865 XXYY=           -456.1126 XXZZ=           -371.1991 YYZZ=           -166.4249
 XXYZ=            -55.0550 YYXZ=             -2.0785 ZZXY=             -9.3601
 N-N= 7.396356761606D+02 E-N=-8.632675072679D+03  KE= 3.005857187362D+03
 No NMR shielding tensors so no spin-rotation constants.
 Leave Link  601 at Wed May  1 15:22:37 2024, MaxMem=  1207959552 cpu:               7.5 elap:               7.5
 (Enter /software/gaussian/g16-c01/sse4/g16/l9999.exe)
 Unable to Open any file for archive entry.
 1\1\GINC-BHX0023\SP\RwB97XD\6-311+G(d)\C6H5Br1N1O2(1+)\BWEIGHT\01-May-
 2024\0\\#P wB97XD/6-311+G* NoSymm #P Field=Z-38\\TitleMe\\1,1\C,0,0.02
 95,1.3397,0.0682\C,0,1.4348,1.2867,0.0064\C,0,2.1118,0.0511,-0.0054\C,
 0,1.4451,-1.1372,0.0312\C,0,-0.6879,0.1682,0.11\H,0,-0.4713,2.2984,0.0
 781\H,0,2.0273,2.1965,-0.0322\H,0,1.9897,-2.0764,0.0232\H,0,-1.7716,0.
 1804,0.1582\N,0,3.5864,0.051,-0.0675\O,0,4.1471,-1.0597,-0.0881\O,0,4.
 145,1.1639,-0.0901\C,0,-0.0236,-1.1458,0.0835\H,0,-0.4367,-1.8725,0.78
 89\Br,0,-0.5359,-1.8697,-1.7408\\Version=ES64L-G16RevC.01\HF=-3010.535
 8047\RMSD=7.023e-09\Dipole=-2.1962472,0.9734038,1.3969241\Quadrupole=-
 6.6204717,7.4558804,-0.8354087,0.8889495,1.0510285,0.8179813\PG=C01 [X
 (C6H5Br1N1O2)]\\@
 The archive entry for this job was punched.


 NATURE WILL TELL YOU A DIRECT LIE IF SHE CAN.

                                -- CHARLES DARWIN
 Job cpu time:       0 days  0 hours 17 minutes 37.8 seconds.
 Elapsed time:       0 days  0 hours 17 minutes 38.0 seconds.
 File lengths (MBytes):  RWF=     40 Int=      0 D2E=      0 Chk=     32 Scr=      1
 Normal termination of Gaussian 16 at Wed May  1 15:22:38 2024.
