 Entering Gaussian System, Link 0=g16
 Initial command:
 /software/gaussian/g16-a03/l1.exe "/local_scratch/6484889/Gau-24020.inp" -scrdir="/local_scratch/6484889/"
 Entering Link 1 = /software/gaussian/g16-a03/l1.exe PID=     24021.
  
 Copyright (c) 1988,1990,1992,1993,1995,1998,2003,2009,2016,
            Gaussian, Inc.  All Rights Reserved.
  
 This is part of the Gaussian(R) 16 program.  It is based on
 the Gaussian(R) 09 system (copyright 2009, Gaussian, Inc.),
 the Gaussian(R) 03 system (copyright 2003, Gaussian, Inc.),
 the Gaussian(R) 98 system (copyright 1998, Gaussian, Inc.),
 the Gaussian(R) 94 system (copyright 1995, Gaussian, Inc.),
 the Gaussian 92(TM) system (copyright 1992, Gaussian, Inc.),
 the Gaussian 90(TM) system (copyright 1990, Gaussian, Inc.),
 the Gaussian 88(TM) system (copyright 1988, Gaussian, Inc.),
 the Gaussian 86(TM) system (copyright 1986, Carnegie Mellon
 University), and the Gaussian 82(TM) system (copyright 1983,
 Carnegie Mellon University). Gaussian is a federally registered
 trademark of Gaussian, Inc.
  
 This software contains proprietary and confidential information,
 including trade secrets, belonging to Gaussian, Inc.
  
 This software is provided under written license and may be
 used, copied, transmitted, or stored only in accord with that
 written license.
  
 The following legend is applicable only to US Government
 contracts under FAR:
  
                    RESTRICTED RIGHTS LEGEND
  
 Use, reproduction and disclosure by the US Government is
 subject to restrictions as set forth in subparagraphs (a)
 and (c) of the Commercial Computer Software - Restricted
 Rights clause in FAR 52.227-19.
  
 Gaussian, Inc.
 340 Quinnipiac St., Bldg. 40, Wallingford CT 06492
  
  
 ---------------------------------------------------------------
 Warning -- This program may not be used in any manner that
 competes with the business of Gaussian, Inc. or will provide
 assistance to any competitor of Gaussian, Inc.  The licensee
 of this program is prohibited from giving any competitor of
 Gaussian, Inc. access to this program.  By using this program,
 the user acknowledges that Gaussian, Inc. is engaged in the
 business of creating and licensing software in the field of
 computational chemistry and represents and warrants to the
 licensee that it is not a competitor of Gaussian, Inc. and that
 it will not use this program in any manner prohibited above.
 ---------------------------------------------------------------
  

 Cite this work as:
 Gaussian 16, Revision A.03,
 M. J. Frisch, G. W. Trucks, H. B. Schlegel, G. E. Scuseria, 
 M. A. Robb, J. R. Cheeseman, G. Scalmani, V. Barone, 
 G. A. Petersson, H. Nakatsuji, X. Li, M. Caricato, A. V. Marenich, 
 J. Bloino, B. G. Janesko, R. Gomperts, B. Mennucci, H. P. Hratchian, 
 J. V. Ortiz, A. F. Izmaylov, J. L. Sonnenberg, D. Williams-Young, 
 F. Ding, F. Lipparini, F. Egidi, J. Goings, B. Peng, A. Petrone, 
 T. Henderson, D. Ranasinghe, V. G. Zakrzewski, J. Gao, N. Rega, 
 G. Zheng, W. Liang, M. Hada, M. Ehara, K. Toyota, R. Fukuda, 
 J. Hasegawa, M. Ishida, T. Nakajima, Y. Honda, O. Kitao, H. Nakai, 
 T. Vreven, K. Throssell, J. A. Montgomery, Jr., J. E. Peralta, 
 F. Ogliaro, M. J. Bearpark, J. J. Heyd, E. N. Brothers, K. N. Kudin, 
 V. N. Staroverov, T. A. Keith, R. Kobayashi, J. Normand, 
 K. Raghavachari, A. P. Rendell, J. C. Burant, S. S. Iyengar, 
 J. Tomasi, M. Cossi, J. M. Millam, M. Klene, C. Adamo, R. Cammi, 
 J. W. Ochterski, R. L. Martin, K. Morokuma, O. Farkas, 
 J. B. Foresman, and D. J. Fox, Gaussian, Inc., Wallingford CT, 2016.
 
 ******************************************
 Gaussian 16:  ES64L-G16RevA.03 25-Dec-2016
                17-Sep-2021 
 ******************************************
 %chk=geometry.chk
 %mem=2GB
 %nprocshared=1
 Will use up to    1 processors via shared memory.
 --------------------------------------------------------------------
 #p B3LYP/6-311+G** #p TD=(singlets,nstates=30)IOp(6/8=3) IOp(9/40=4)
 --------------------------------------------------------------------
 1/38=1,172=1/1;
 2/12=2,17=6,18=5,40=1/2;
 3/5=4,6=6,7=111,11=9,25=1,30=1,74=-5/1,2,3,8;
 4//1;
 5/5=2,38=5/2;
 8/6=1,10=2,108=30/1;
 9/40=4,41=30,42=1,48=1,70=2/14;
 6/7=2,8=3,9=2,10=2/1;
 99/5=1,9=1/99;
 Leave Link    1 at Fri Sep 17 10:52:20 2021, MaxMem=   268435456 cpu:               0.0 elap:               0.1
 (Enter /software/gaussian/g16-a03/l101.exe)
 -------------------------------
 Scan Step 158, Bond Length 1.29
 -------------------------------
 Symbolic Z-matrix:
 Charge =  0 Multiplicity = 1
 C                     0.        0.       -0.52736 
 H                     0.        0.93726  -1.11871 
 H                     0.       -0.93726  -1.11871 
 O                     0.        0.        0.76264 
 
 ITRead=  0  0  0  0
 MicOpt= -1 -1 -1 -1
 NAtoms=      4 NQM=        4 NQMF=       0 NMMI=      0 NMMIF=      0
                NMic=       0 NMicF=      0.
                    Isotopes and Nuclear Properties:
 (Nuclear quadrupole moments (NQMom) in fm**2, nuclear magnetic moments (NMagM)
  in nuclear magnetons)

  Atom         1           2           3           4
 IAtWgt=          12           1           1          16
 AtmWgt=  12.0000000   1.0078250   1.0078250  15.9949146
 NucSpn=           0           1           1           0
 AtZEff=  -0.0000000  -0.0000000  -0.0000000  -0.0000000
 NQMom=    0.0000000   0.0000000   0.0000000   0.0000000
 NMagM=    0.0000000   2.7928460   2.7928460   0.0000000
 AtZNuc=   6.0000000   1.0000000   1.0000000   8.0000000
 Leave Link  101 at Fri Sep 17 10:52:21 2021, MaxMem=   268435456 cpu:               0.1 elap:               0.1
 (Enter /software/gaussian/g16-a03/l202.exe)
                          Input orientation:                          
 ---------------------------------------------------------------------
 Center     Atomic      Atomic             Coordinates (Angstroms)
 Number     Number       Type             X           Y           Z
 ---------------------------------------------------------------------
      1          6           0        0.000000    0.000000   -0.527360
      2          1           0        0.000000    0.937260   -1.118710
      3          1           0        0.000000   -0.937260   -1.118710
      4          8           0        0.000000    0.000000    0.762640
 ---------------------------------------------------------------------
                    Distance matrix (angstroms):
                    1          2          3          4
     1  C    0.000000
     2  H    1.108220   0.000000
     3  H    1.108220   1.874520   0.000000
     4  O    1.290000   2.101888   2.101888   0.000000
 Stoichiometry    CH2O
 Framework group  C2V[C2(CO),SGV(H2)]
 Deg. of freedom     3
 Full point group                 C2V     NOp   4
 Largest Abelian subgroup         C2V     NOp   4
 Largest concise Abelian subgroup C2      NOp   2
                         Standard orientation:                         
 ---------------------------------------------------------------------
 Center     Atomic      Atomic             Coordinates (Angstroms)
 Number     Number       Type             X           Y           Z
 ---------------------------------------------------------------------
      1          6           0        0.000000    0.000000   -0.571081
      2          1           0        0.000000    0.937260   -1.162431
      3          1           0       -0.000000   -0.937260   -1.162431
      4          8           0        0.000000   -0.000000    0.718919
 ---------------------------------------------------------------------
 Rotational constants (GHZ):         285.4183527          34.3155849          30.6326497
 Leave Link  202 at Fri Sep 17 10:52:21 2021, MaxMem=   268435456 cpu:               0.0 elap:               0.0
 (Enter /software/gaussian/g16-a03/l301.exe)
 Standard basis: 6-311+G(d,p) (5D, 7F)
 Ernie: Thresh=  0.10000D-02 Tol=  0.10000D-05 Strict=F.
 There are    29 symmetry adapted cartesian basis functions of A1  symmetry.
 There are     3 symmetry adapted cartesian basis functions of A2  symmetry.
 There are    11 symmetry adapted cartesian basis functions of B1  symmetry.
 There are    15 symmetry adapted cartesian basis functions of B2  symmetry.
 There are    27 symmetry adapted basis functions of A1  symmetry.
 There are     3 symmetry adapted basis functions of A2  symmetry.
 There are    11 symmetry adapted basis functions of B1  symmetry.
 There are    15 symmetry adapted basis functions of B2  symmetry.
    56 basis functions,    88 primitive gaussians,    58 cartesian basis functions
     8 alpha electrons        8 beta electrons
       nuclear repulsion energy        29.7308437416 Hartrees.
 IExCor=  402 DFT=T Ex+Corr=B3LYP ExCW=0 ScaHFX=  0.200000
 ScaDFX=  0.800000  0.720000  1.000000  0.810000 ScalE2=  1.000000  1.000000
 IRadAn=      5 IRanWt=     -1 IRanGd=            0 ICorTp=0 IEmpDi=  4
 NAtoms=    4 NActive=    4 NUniq=    3 SFac= 1.78D+00 NAtFMM=   60 NAOKFM=F Big=F
 Integral buffers will be    131072 words long.
 Regular integral format.
 Two-electron integral symmetry is turned on.
 Leave Link  301 at Fri Sep 17 10:52:21 2021, MaxMem=   268435456 cpu:               0.0 elap:               0.1
 (Enter /software/gaussian/g16-a03/l302.exe)
 NPDir=0 NMtPBC=     1 NCelOv=     1 NCel=       1 NClECP=     1 NCelD=      1
         NCelK=      1 NCelE2=     1 NClLst=     1 CellRange=     0.0.
 One-electron integrals computed using PRISM.
 One-electron integral symmetry used in STVInt
 NBasis=    56 RedAO= T EigKep=  5.09D-03  NBF=    27     3    11    15
 NBsUse=    56 1.00D-06 EigRej= -1.00D+00 NBFU=    27     3    11    15
 Precomputing XC quadrature grid using
 IXCGrd= 4 IRadAn=           5 IRanWt=          -1 IRanGd=           0 AccXCQ= 0.00D+00.
 Generated NRdTot=       0 NPtTot=           0 NUsed=           0 NTot=          32
 NSgBfM=    58    58    58    58    58 MxSgAt=     4 MxSgA2=     4.
 Leave Link  302 at Fri Sep 17 10:52:21 2021, MaxMem=   268435456 cpu:               0.1 elap:               0.1
 (Enter /software/gaussian/g16-a03/l303.exe)
 DipDrv:  MaxL=1.
 Leave Link  303 at Fri Sep 17 10:52:21 2021, MaxMem=   268435456 cpu:               0.0 elap:               0.0
 (Enter /software/gaussian/g16-a03/l308.exe)
 Leave Link  308 at Fri Sep 17 10:52:21 2021, MaxMem=   268435456 cpu:               0.0 elap:               0.0
 (Enter /software/gaussian/g16-a03/l401.exe)
 ExpMin= 4.38D-02 ExpMax= 8.59D+03 ExpMxC= 1.30D+03 IAcc=3 IRadAn=         5 AccDes= 0.00D+00
 Harris functional with IExCor=  402 and IRadAn=       5 diagonalized for initial guess.
 HarFok:  IExCor=  402 AccDes= 0.00D+00 IRadAn=         5 IDoV= 1 UseB2=F ITyADJ=14
 ICtDFT=  3500011 ScaDFX=  1.000000  1.000000  1.000000  1.000000
 FoFCou: FMM=F IPFlag=           0 FMFlag=      100000 FMFlg1=           0
         NFxFlg=           0 DoJE=T BraDBF=F KetDBF=T FulRan=T
         wScrn=  0.000000 ICntrl=       500 IOpCl=  0 I1Cent=   200000004 NGrid=           0
         NMat0=    1 NMatS0=      1 NMatT0=    0 NMatD0=    1 NMtDS0=    0 NMtDT0=    0
 Petite list used in FoFCou.
 Harris En= -114.540933056062    
 JPrj=0 DoOrth=F DoCkMO=F.
 Initial guess orbital symmetries:
       Occupied  (A1) (A1) (A1) (A1) (B2) (A1) (B1) (B2)
       Virtual   (B1) (A1) (A1) (B2) (B1) (A1) (B2) (A1) (B1) (A1)
                 (B2) (A1) (A1) (B2) (B1) (A1) (B2) (A1) (A1) (A2)
                 (B1) (B2) (B1) (A1) (B2) (A1) (B2) (A1) (B1) (A2)
                 (A1) (B2) (A1) (B2) (B1) (A1) (A2) (A1) (A1) (B1)
                 (B2) (B2) (A1) (B1) (B2) (A1) (A1) (A1)
 The electronic state of the initial guess is 1-A1.
 Leave Link  401 at Fri Sep 17 10:52:21 2021, MaxMem=   268435456 cpu:               0.3 elap:               0.3
 (Enter /software/gaussian/g16-a03/l502.exe)
 Keep R1 ints in memory in symmetry-blocked form, NReq=2159909.
 FoFCou: FMM=F IPFlag=           0 FMFlag=           0 FMFlg1=           0
         NFxFlg=           0 DoJE=F BraDBF=F KetDBF=F FulRan=T
         wScrn=  0.000000 ICntrl=       600 IOpCl=  0 I1Cent=           0 NGrid=           0
         NMat0=    1 NMatS0=   1596 NMatT0=    0 NMatD0=    1 NMtDS0=    0 NMtDT0=    0
 Petite list used in FoFCou.
 Closed shell SCF:
 Using DIIS extrapolation, IDIIS=  1040.
 NGot=   268435456 LenX=   268074384 LenY=   268070579
 Requested convergence on RMS density matrix=1.00D-08 within 128 cycles.
 Requested convergence on MAX density matrix=1.00D-06.
 Requested convergence on             energy=1.00D-06.
 No special actions if energy rises.

 Cycle   1  Pass 1  IDiag  1:
 E= -114.477510600600    
 DIIS: error= 4.58D-02 at cycle   1 NSaved=   1.
 NSaved= 1 IEnMin= 1 EnMin= -114.477510600600     IErMin= 1 ErrMin= 4.58D-02
 ErrMax= 4.58D-02  0.00D+00 EMaxC= 1.00D-01 BMatC= 7.43D-02 BMatP= 7.43D-02
 IDIUse=3 WtCom= 5.42D-01 WtEn= 4.58D-01
 Coeff-Com:  0.100D+01
 Coeff-En:   0.100D+01
 Coeff:      0.100D+01
 Gap=     0.124 Goal=   None    Shift=    0.000
 GapD=    0.124 DampG=1.000 DampE=0.500 DampFc=0.5000 IDamp=-1.
 Damping current iteration by 5.00D-01
 RMSDP=1.07D-02 MaxDP=8.84D-02              OVMax= 3.46D-01

 Cycle   2  Pass 1  IDiag  1:
 E= -114.455323457676     Delta-E=        0.022187142923 Rises=F Damp=T
 DIIS: error= 4.02D-02 at cycle   2 NSaved=   2.
 NSaved= 2 IEnMin= 1 EnMin= -114.477510600600     IErMin= 2 ErrMin= 4.02D-02
 ErrMax= 4.02D-02  0.00D+00 EMaxC= 1.00D-01 BMatC= 3.99D-02 BMatP= 7.43D-02
 IDIUse=3 WtCom= 5.98D-01 WtEn= 4.02D-01
 Coeff-Com:  0.412D+00 0.588D+00
 Coeff-En:   0.603D+00 0.397D+00
 Coeff:      0.489D+00 0.511D+00
 Gap=     0.185 Goal=   None    Shift=    0.000
 RMSDP=2.21D-03 MaxDP=2.78D-02 DE= 2.22D-02 OVMax= 2.47D-01

 Cycle   3  Pass 1  IDiag  1:
 E= -114.529116207151     Delta-E=       -0.073792749475 Rises=F Damp=F
 DIIS: error= 8.17D-03 at cycle   3 NSaved=   3.
 NSaved= 3 IEnMin= 3 EnMin= -114.529116207151     IErMin= 3 ErrMin= 8.17D-03
 ErrMax= 8.17D-03  0.00D+00 EMaxC= 1.00D-01 BMatC= 2.92D-03 BMatP= 3.99D-02
 IDIUse=3 WtCom= 9.18D-01 WtEn= 8.17D-02
 Coeff-Com:  0.179D+00 0.130D+00 0.691D+00
 Coeff-En:   0.000D+00 0.000D+00 0.100D+01
 Coeff:      0.164D+00 0.120D+00 0.716D+00
 Gap=     0.198 Goal=   None    Shift=    0.000
 RMSDP=8.70D-04 MaxDP=1.63D-02 DE=-7.38D-02 OVMax= 1.90D-02

 Cycle   4  Pass 1  IDiag  1:
 E= -114.531284968040     Delta-E=       -0.002168760888 Rises=F Damp=F
 DIIS: error= 3.46D-03 at cycle   4 NSaved=   4.
 NSaved= 4 IEnMin= 4 EnMin= -114.531284968040     IErMin= 4 ErrMin= 3.46D-03
 ErrMax= 3.46D-03  0.00D+00 EMaxC= 1.00D-01 BMatC= 3.16D-04 BMatP= 2.92D-03
 IDIUse=3 WtCom= 9.65D-01 WtEn= 3.46D-02
 Coeff-Com:  0.294D-01-0.922D-02 0.297D+00 0.682D+00
 Coeff-En:   0.000D+00 0.000D+00 0.000D+00 0.100D+01
 Coeff:      0.284D-01-0.890D-02 0.287D+00 0.693D+00
 Gap=     0.200 Goal=   None    Shift=    0.000
 RMSDP=2.24D-04 MaxDP=5.09D-03 DE=-2.17D-03 OVMax= 5.78D-03

 Cycle   5  Pass 1  IDiag  1:
 E= -114.531578924581     Delta-E=       -0.000293956541 Rises=F Damp=F
 DIIS: error= 5.28D-04 at cycle   5 NSaved=   5.
 NSaved= 5 IEnMin= 5 EnMin= -114.531578924581     IErMin= 5 ErrMin= 5.28D-04
 ErrMax= 5.28D-04  0.00D+00 EMaxC= 1.00D-01 BMatC= 8.04D-06 BMatP= 3.16D-04
 IDIUse=3 WtCom= 9.95D-01 WtEn= 5.28D-03
 Coeff-Com:  0.481D-02-0.117D-01 0.555D-01 0.182D+00 0.770D+00
 Coeff-En:   0.000D+00 0.000D+00 0.000D+00 0.000D+00 0.100D+01
 Coeff:      0.479D-02-0.117D-01 0.552D-01 0.181D+00 0.771D+00
 Gap=     0.200 Goal=   None    Shift=    0.000
 RMSDP=3.27D-05 MaxDP=2.23D-04 DE=-2.94D-04 OVMax= 7.78D-04

 Cycle   6  Pass 1  IDiag  1:
 E= -114.531585661687     Delta-E=       -0.000006737106 Rises=F Damp=F
 DIIS: error= 7.42D-05 at cycle   6 NSaved=   6.
 NSaved= 6 IEnMin= 6 EnMin= -114.531585661687     IErMin= 6 ErrMin= 7.42D-05
 ErrMax= 7.42D-05  0.00D+00 EMaxC= 1.00D-01 BMatC= 1.43D-07 BMatP= 8.04D-06
 IDIUse=1 WtCom= 1.00D+00 WtEn= 0.00D+00
 Coeff-Com:  0.440D-03-0.114D-02-0.119D-03-0.428D-02-0.200D-01 0.103D+01
 Coeff:      0.440D-03-0.114D-02-0.119D-03-0.428D-02-0.200D-01 0.103D+01
 Gap=     0.200 Goal=   None    Shift=    0.000
 RMSDP=5.66D-06 MaxDP=5.08D-05 DE=-6.74D-06 OVMax= 1.18D-04

 Cycle   7  Pass 1  IDiag  1:
 E= -114.531585781246     Delta-E=       -0.000000119559 Rises=F Damp=F
 DIIS: error= 2.37D-06 at cycle   7 NSaved=   7.
 NSaved= 7 IEnMin= 7 EnMin= -114.531585781246     IErMin= 7 ErrMin= 2.37D-06
 ErrMax= 2.37D-06  0.00D+00 EMaxC= 1.00D-01 BMatC= 3.96D-10 BMatP= 1.43D-07
 IDIUse=1 WtCom= 1.00D+00 WtEn= 0.00D+00
 Coeff-Com:  0.331D-04-0.437D-04-0.493D-04-0.130D-02-0.740D-02 0.610D-01
 Coeff-Com:  0.948D+00
 Coeff:      0.331D-04-0.437D-04-0.493D-04-0.130D-02-0.740D-02 0.610D-01
 Coeff:      0.948D+00
 Gap=     0.200 Goal=   None    Shift=    0.000
 RMSDP=2.00D-07 MaxDP=3.84D-06 DE=-1.20D-07 OVMax= 4.63D-06

 Cycle   8  Pass 1  IDiag  1:
 E= -114.531585781510     Delta-E=       -0.000000000264 Rises=F Damp=F
 DIIS: error= 1.68D-06 at cycle   8 NSaved=   8.
 NSaved= 8 IEnMin= 8 EnMin= -114.531585781510     IErMin= 8 ErrMin= 1.68D-06
 ErrMax= 1.68D-06  0.00D+00 EMaxC= 1.00D-01 BMatC= 7.33D-11 BMatP= 3.96D-10
 IDIUse=1 WtCom= 1.00D+00 WtEn= 0.00D+00
 Coeff-Com:  0.576D-05-0.366D-05 0.108D-04-0.833D-04-0.101D-03-0.177D-01
 Coeff-Com:  0.582D-01 0.960D+00
 Coeff:      0.576D-05-0.366D-05 0.108D-04-0.833D-04-0.101D-03-0.177D-01
 Coeff:      0.582D-01 0.960D+00
 Gap=     0.200 Goal=   None    Shift=    0.000
 RMSDP=1.26D-07 MaxDP=9.96D-07 DE=-2.64D-10 OVMax= 2.80D-06

 Cycle   9  Pass 1  IDiag  1:
 E= -114.531585781572     Delta-E=       -0.000000000062 Rises=F Damp=F
 DIIS: error= 6.30D-08 at cycle   9 NSaved=   9.
 NSaved= 9 IEnMin= 9 EnMin= -114.531585781572     IErMin= 9 ErrMin= 6.30D-08
 ErrMax= 6.30D-08  0.00D+00 EMaxC= 1.00D-01 BMatC= 1.98D-13 BMatP= 7.33D-11
 IDIUse=1 WtCom= 1.00D+00 WtEn= 0.00D+00
 Coeff-Com:  0.918D-06-0.839D-06 0.228D-05 0.398D-06 0.784D-04-0.288D-02
 Coeff-Com: -0.194D-02 0.108D+00 0.897D+00
 Coeff:      0.918D-06-0.839D-06 0.228D-05 0.398D-06 0.784D-04-0.288D-02
 Coeff:     -0.194D-02 0.108D+00 0.897D+00
 Gap=     0.200 Goal=   None    Shift=    0.000
 RMSDP=3.64D-09 MaxDP=5.72D-08 DE=-6.16D-11 OVMax= 9.12D-08

 SCF Done:  E(RB3LYP) =  -114.531585782     A.U. after    9 cycles
            NFock=  9  Conv=0.36D-08     -V/T= 2.0060
 KE= 1.138453949796D+02 PE=-3.283202287859D+02 EE= 7.021240428305D+01
 Leave Link  502 at Fri Sep 17 10:52:23 2021, MaxMem=   268435456 cpu:               1.5 elap:               1.8
 (Enter /software/gaussian/g16-a03/l801.exe)
 DoSCS=F DFT=T ScalE2(SS,OS)=  1.000000  1.000000
 ExpMin= 4.38D-02 ExpMax= 8.59D+03 ExpMxC= 1.30D+03 IAcc=3 IRadAn=         5 AccDes= 0.00D+00
 HarFok:  IExCor=  205 AccDes= 0.00D+00 IRadAn=         5 IDoV=-2 UseB2=F ITyADJ=14
 ICtDFT= 12500011 ScaDFX=  1.000000  1.000000  1.000000  1.000000
 Largest valence mixing into a core orbital is  4.91D-05
 Largest core mixing into a valence orbital is  1.04D-05
 Range of M.O.s used for correlation:     3    56
 NBasis=    56 NAE=     8 NBE=     8 NFC=     2 NFV=     0
 NROrb=     54 NOA=     6 NOB=     6 NVA=    48 NVB=    48
 Leave Link  801 at Fri Sep 17 10:52:23 2021, MaxMem=   268435456 cpu:               0.2 elap:               0.2
 (Enter /software/gaussian/g16-a03/l914.exe)
 RHF ground state
 Keep R1, R2, and R3 ints in memory in symmetry-blocked form, NReq=6042848.
 FoFCou: FMM=F IPFlag=           0 FMFlag=           0 FMFlg1=           0
         NFxFlg=           0 DoJE=F BraDBF=F KetDBF=F FulRan=T
         wScrn=  0.000000 ICntrl=       600 IOpCl=  0 I1Cent=           0 NGrid=           0
         NMat0=    1 NMatS0=   1596 NMatT0=    0 NMatD0=    1 NMtDS0=    0 NMtDT0=    0
 Petite list used in FoFCou.
 MDV=   268435456 DFT=T DoStab=F Mixed=T DoRPA=T DoScal=F NonHer=T
 Making orbital integer symmetry assigments:
 Orbital symmetries:
       Occupied  (A1) (A1) (A1) (A1) (B2) (A1) (B1) (B2)
       Virtual   (B1) (A1) (A1) (B2) (B1) (A1) (B2) (A1) (B1) (B2)
                 (A1) (A1) (A1) (B2) (B1) (A1) (B2) (A1) (A2) (A1)
                 (B1) (B2) (B1) (A1) (B2) (A1) (B2) (A1) (B1) (A2)
                 (A1) (B2) (A1) (B2) (A1) (B1) (A2) (A1) (A1) (B1)
                 (B2) (B2) (A1) (B1) (B2) (A1) (A1) (A1)
   120 initial guesses have been made.
 Convergence on wavefunction:    0.001000000000000
 Davidson Disk Diagonalization:  ConvIn= 1.00D-03 SkipCon=T Conv= 1.00D-03.
 Max sub-space:  1728 roots to seek:   120 dimension of matrix:          576
 Iteration     1 Dimension   120 NMult     0 NNew    120
 CISAX will form   120 AO SS matrices at one time.
 NMat=   120 NSing=   120 JSym2X=-1.
 New state      3 was old state      4
 New state      4 was old state      5
 New state      5 was old state      7
 New state      6 was old state      3
 New state      7 was old state      6
 New state      8 was old state      9
 New state      9 was old state      8
 New state     14 was old state     15
 New state     15 was old state     16
 New state     16 was old state     14
 New state     17 was old state     20
 New state     18 was old state     17
 New state     19 was old state     18
 New state     20 was old state     19
 New state     24 was old state     25
 New state     25 was old state     24
 New state     26 was old state     27
 New state     27 was old state     26
 New state     29 was old state     30
 New state     30 was old state     31
 Excitation Energies [eV] at current iteration:
 Root      1 :     3.463912187176565
 Root      2 :     6.937216081110359
 Root      3 :     7.689015266132285
 Root      4 :     7.954281464327836
 Root      5 :     8.183941563229560
 Root      6 :     8.441886926783932
 Root      7 :     8.475284384600096
 Root      8 :     9.262030897329378
 Root      9 :     9.683957693780055
 Root     10 :    10.300914907022260
 Root     11 :    10.524082580277950
 Root     12 :    10.683746733746280
 Root     13 :    11.375536507152900
 Root     14 :    11.472970825055980
 Root     15 :    11.528342618273040
 Root     16 :    12.079301502368030
 Root     17 :    12.355013266931920
 Root     18 :    12.358996794955240
 Root     19 :    12.507650627716080
 Root     20 :    12.566739117263900
 Root     21 :    12.812070272375420
 Root     22 :    13.035836595451690
 Root     23 :    13.117777306130200
 Root     24 :    13.200993347182800
 Root     25 :    13.498850146373850
 Root     26 :    13.793173492237480
 Root     27 :    13.899807324573850
 Root     28 :    14.111081859875560
 Root     29 :    14.309421782886260
 Root     30 :    14.667551907720360
 Root     31 :    14.835124629533780
 Root     32 :    15.249615751801580
 Root     33 :    15.476358868761130
 Root     34 :    15.637517936137540
 Root     35 :    15.675258626588820
 Root     36 :    16.056006423406810
 Root     37 :    16.120100108997370
 Root     38 :    16.563007075879860
 Root     39 :    16.890678250636370
 Root     40 :    16.969254452530550
 Root     41 :    17.371693395838000
 Root     42 :    17.461440668762840
 Root     43 :    17.606760465712720
 Root     44 :    17.622378114960660
 Root     45 :    17.899212170127320
 Root     46 :    18.078319466638870
 Root     47 :    18.106718342235760
 Root     48 :    18.335244797989090
 Root     49 :    18.453188272030880
 Root     50 :    18.655287061968590
 Root     51 :    19.057453773720650
 Root     52 :    19.165476131835310
 Root     53 :    19.192176312982050
 Root     54 :    20.101891310339450
 Root     55 :    20.548747154362640
 Root     56 :    20.722550646983400
 Root     57 :    21.011058059873850
 Root     58 :    21.027659073011960
 Root     59 :    21.260586288028210
 Root     60 :    21.442542017683210
 Root     61 :    22.036457524756290
 Root     62 :    22.134426854761180
 Root     63 :    22.803902264098500
 Root     64 :    22.828492192108730
 Root     65 :    23.257704367760220
 Root     66 :    23.313438874826280
 Root     67 :    23.346100261739370
 Root     68 :    23.695888173758680
 Root     69 :    23.922464203862740
 Root     70 :    24.430057225356090
 Root     71 :    24.524660678635240
 Root     72 :    24.560882850159500
 Root     73 :    24.860008356630880
 Root     74 :    25.083167390905840
 Root     75 :    25.443542860156990
 Root     76 :    25.539944618517290
 Root     77 :    25.549790841640130
 Root     78 :    27.086320122405180
 Root     79 :    27.192752313859610
 Root     80 :    27.383829906095260
 Root     81 :    27.386438285465690
 Root     82 :    27.643371646390640
 Root     83 :    28.241570270628860
 Root     84 :    28.268426815652630
 Root     85 :    28.650245617288950
 Root     86 :    28.805703022788750
 Root     87 :    29.330108832402320
 Root     88 :    29.852626602870480
 Root     89 :    29.855395692621150
 Root     90 :    30.099098397526910
 Root     91 :    30.395829475974680
 Root     92 :    31.548036651981320
 Root     93 :    31.931908904030710
 Root     94 :    32.426049215644380
 Root     95 :    32.779027707386210
 Root     96 :    32.896720699047380
 Root     97 :    33.092747349400790
 Root     98 :    33.270945411420100
 Root     99 :    33.390659887403550
 Root    100 :    33.421223756535800
 Root    101 :    33.491158691049610
 Root    102 :    33.881000720382610
 Root    103 :    34.270305502629700
 Root    104 :    35.390955613657200
 Root    105 :    35.962099626892840
 Root    106 :    36.169639001069920
 Root    107 :    36.596458361527290
 Root    108 :    37.548834261862370
 Root    109 :    37.710930935880730
 Root    110 :    38.006886082235190
 Root    111 :    38.119801412327160
 Root    112 :    38.457708525349060
 Root    113 :    38.919382390856800
 Root    114 :    38.966658602053780
 Root    115 :    39.643943081390970
 Root    116 :    39.752872421056320
 Root    117 :    39.970158418817910
 Root    118 :    40.290618337119750
 Root    119 :    40.604644374738600
 Root    120 :    44.983777987972540
 Iteration     2 Dimension   180 NMult   120 NNew     60
 CISAX will form    60 AO SS matrices at one time.
 NMat=    60 NSing=    60 JSym2X=-1.
 Root      1 not converged, maximum delta is    0.005537428269499
 Root      2 not converged, maximum delta is    0.001905831974462
 Root      3 not converged, maximum delta is    0.004401870879935
 Root      4 not converged, maximum delta is    0.011736257511251
 Root      5 not converged, maximum delta is    0.012753834802936
 Root      6 not converged, maximum delta is    0.017268906877051
 Root      7 not converged, maximum delta is    0.001154852991648
 Root      8 not converged, maximum delta is    0.010441121784820
 Root      9 not converged, maximum delta is    0.001988555212065
 Root     10 not converged, maximum delta is    0.003446667875405
 Root     11 not converged, maximum delta is    0.005147143668778
 Root     12 not converged, maximum delta is    0.001833264807512
 Root     13 not converged, maximum delta is    0.011457627301060
 Root     14 not converged, maximum delta is    0.013252469677364
 Root     15 not converged, maximum delta is    0.001973351904561
 Root     16 not converged, maximum delta is    0.019744457414081
 New state     17 was old state     18
 Root     17 not converged, maximum delta is    0.015738664385493
 New state     18 was old state     17
 Root     18 not converged, maximum delta is    0.001688404978672
 Root     19 not converged, maximum delta is    0.017014239019442
 Root     20 not converged, maximum delta is    0.017678984125038
 Root     21 not converged, maximum delta is    0.004035216984591
 Root     22 not converged, maximum delta is    0.002483213359674
 Root     23 not converged, maximum delta is    0.008841654544203
 Root     24 not converged, maximum delta is    0.008964038541890
 Root     25 not converged, maximum delta is    0.008321254083332
 Root     26 not converged, maximum delta is    0.004356171189590
 Root     27 not converged, maximum delta is    0.009056743594835
 Root     28 not converged, maximum delta is    0.002045742370681
 Root     29 not converged, maximum delta is    0.019632373078843
 Root     30 not converged, maximum delta is    0.005615733232173
 Excitation Energies [eV] at current iteration:
 Root      1 :     3.452364239260297   Change is   -0.011547947916268
 Root      2 :     6.935579749298425   Change is   -0.001636331811934
 Root      3 :     7.679451302341236   Change is   -0.009563963791050
 Root      4 :     7.951609684927758   Change is   -0.002671779400077
 Root      5 :     8.124272302069858   Change is   -0.059669261159701
 Root      6 :     8.377569643893716   Change is   -0.064317282890215
 Root      7 :     8.474942104535714   Change is   -0.000342280064382
 Root      8 :     9.248349873771053   Change is   -0.013681023558325
 Root      9 :     9.682998450910670   Change is   -0.000959242869385
 Root     10 :    10.291977132510640   Change is   -0.008937774511618
 Root     11 :    10.517349352913470   Change is   -0.006733227364474
 Root     12 :    10.683183720645910   Change is   -0.000563013100378
 Root     13 :    11.365231974998470   Change is   -0.010304532154426
 Root     14 :    11.465304118453330   Change is   -0.007666706602648
 Root     15 :    11.525774469883600   Change is   -0.002568148389438
 Root     16 :    12.053917303615820   Change is   -0.025384198752212
 Root     17 :    12.347179841320880   Change is   -0.011816953634354
 Root     18 :    12.354142752212480   Change is   -0.000870514719444
 Root     19 :    12.504780211284510   Change is   -0.002870416431569
 Root     20 :    12.560772656293190   Change is   -0.005966460970706
 Root     21 :    12.808164666177810   Change is   -0.003905606197605
 Root     22 :    13.034399593474750   Change is   -0.001437001976941
 Root     23 :    13.100024045948190   Change is   -0.017753260182006
 Root     24 :    13.161662286241790   Change is   -0.039331060941003
 Root     25 :    13.490682299824180   Change is   -0.008167846549665
 Root     26 :    13.790638576576110   Change is   -0.002534915661373
 Root     27 :    13.887139519241110   Change is   -0.012667805332736
 Root     28 :    14.110397232598630   Change is   -0.000684627276932
 Root     29 :    14.304375361483290   Change is   -0.005046421402972
 Root     30 :    14.660296789055980   Change is   -0.007255118664379
 Iteration     3 Dimension   236 NMult   180 NNew     56
 CISAX will form    56 AO SS matrices at one time.
 NMat=    56 NSing=    56 JSym2X=-1.
 Root      1 has converged.
 Root      2 has converged.
 Root      3 has converged.
 Root      4 has converged.
 Root      5 has converged.
 Root      6 has converged.
 Root      7 has converged.
 Root      8 has converged.
 Root      9 has converged.
 Root     10 has converged.
 Root     11 has converged.
 Root     12 has converged.
 Root     13 has converged.
 Root     14 has converged.
 Root     15 has converged.
 Root     16 has converged.
 Root     17 has converged.
 Root     18 has converged.
 Root     19 has converged.
 Root     20 has converged.
 Root     21 has converged.
 Root     22 has converged.
 Root     23 has converged.
 Root     24 has converged.
 Root     25 has converged.
 Root     26 has converged.
 Root     27 has converged.
 Root     28 has converged.
 Root     29 has converged.
 Root     30 has converged.
 Excitation Energies [eV] at current iteration:
 Root      1 :     3.452363124880836   Change is   -0.000001114379461
 Root      2 :     6.935578529177897   Change is   -0.000001220120528
 Root      3 :     7.679444587660793   Change is   -0.000006714680443
 Root      4 :     7.951607094256014   Change is   -0.000002590671745
 Root      5 :     8.124206573241567   Change is   -0.000065728828292
 Root      6 :     8.377486711903325   Change is   -0.000082931990393
 Root      7 :     8.474942066601328   Change is   -0.000000037934386
 Root      8 :     9.248340366876336   Change is   -0.000009506894717
 Root      9 :     9.682997767021542   Change is   -0.000000683889127
 Root     10 :    10.291968842536750   Change is   -0.000008289973891
 Root     11 :    10.517339843131610   Change is   -0.000009509781860
 Root     12 :    10.683183443673280   Change is   -0.000000276972623
 Root     13 :    11.365209398896100   Change is   -0.000022576102377
 Root     14 :    11.465283145594970   Change is   -0.000020972858364
 Root     15 :    11.525766340299720   Change is   -0.000008129583883
 Root     16 :    12.053847690778320   Change is   -0.000069612837491
 Root     17 :    12.347143078927170   Change is   -0.000036762393713
 Root     18 :    12.354142090119800   Change is   -0.000000662092678
 Root     19 :    12.504775865088680   Change is   -0.000004346195836
 Root     20 :    12.560758762565130   Change is   -0.000013893728066
 Root     21 :    12.808158398763160   Change is   -0.000006267414654
 Root     22 :    13.034397021603920   Change is   -0.000002571870830
 Root     23 :    13.099963600586210   Change is   -0.000060445361983
 Root     24 :    13.161589062007850   Change is   -0.000073224233944
 Root     25 :    13.490672588420430   Change is   -0.000009711403751
 Root     26 :    13.790633842955320   Change is   -0.000004733620786
 Root     27 :    13.887112259268150   Change is   -0.000027259972963
 Root     28 :    14.110396099151030   Change is   -0.000001133447601
 Root     29 :    14.304366556392050   Change is   -0.000008805091240
 Root     30 :    14.660279735589750   Change is   -0.000017053466236
 Convergence achieved on expansion vectors.
 ***********************************************************************
 Excited states from <AA,BB:AA,BB> singles matrix:
 ***********************************************************************
 
 1PDM for each excited state written to RWF  633
 Ground to excited state transition densities written to RWF  633
 Ground to excited state transition electric dipole moments (Au):
       state          X           Y           Z        Dip. S.      Osc.
         1         0.0000      0.0000     -0.0000      0.0000      0.0000
         2         0.0000      0.3467     -0.0000      0.1202      0.0204
         3         0.0000      0.3851      0.0000      0.1483      0.0279
         4         0.0000      0.0000     -0.4222      0.1782      0.0347
         5         0.0793     -0.0000     -0.0000      0.0063      0.0013
         6         0.0000     -0.0000      0.8679      0.7532      0.1546
         7        -0.0000      0.0000     -0.0000      0.0000      0.0000
         8        -0.0000     -0.0000     -0.0000      0.0000      0.0000
         9        -0.4095      0.0000      0.0000      0.1677      0.0398
        10        -0.0000      0.5511      0.0000      0.3037      0.0766
        11         0.4613      0.0000      0.0000      0.2128      0.0548
        12         0.0000      0.0000      0.0000      0.0000      0.0000
        13         0.0000     -0.0000     -0.2011      0.0405      0.0113
        14        -0.0000     -0.0000     -0.0808      0.0065      0.0018
        15         0.0000     -0.0564     -0.0000      0.0032      0.0009
        16         0.0000      0.0000     -0.4934      0.2434      0.0719
        17        -0.0000     -0.0000      1.0369      1.0752      0.3253
        18        -0.0000     -0.0000      0.0000      0.0000      0.0000
        19        -0.0000     -0.3742     -0.0000      0.1400      0.0429
        20         0.0000     -0.5931     -0.0000      0.3517      0.1082
        21         0.2601      0.0000      0.0000      0.0677      0.0212
        22        -0.2062     -0.0000      0.0000      0.0425      0.0136
        23        -0.0000      0.0000     -0.4818      0.2321      0.0745
        24        -0.0000     -0.1006     -0.0000      0.0101      0.0033
        25        -0.0000      0.3227      0.0000      0.1042      0.0344
        26        -0.0000      0.0000     -0.0000      0.0000      0.0000
        27         0.0000      0.0000      0.1135      0.0129      0.0044
        28         0.0000      0.0000      0.0000      0.0000      0.0000
        29         0.0102      0.0000     -0.0000      0.0001      0.0000
        30         0.0000      0.0000      0.2894      0.0838      0.0301
 Ground to excited state transition velocity dipole moments (Au):
       state          X           Y           Z        Dip. S.      Osc.
         1         0.0000     -0.0000     -0.0000      0.0000      0.0000
         2         0.0000     -0.0903     -0.0000      0.0081      0.0213
         3        -0.0000     -0.1132     -0.0000      0.0128      0.0303
         4        -0.0000      0.0000      0.1211      0.0147      0.0335
         5        -0.0373     -0.0000      0.0000      0.0014      0.0031
         6        -0.0000      0.0000     -0.2554      0.0652      0.1413
         7         0.0000     -0.0000      0.0000      0.0000      0.0000
         8         0.0000      0.0000     -0.0000      0.0000      0.0000
         9         0.1497     -0.0000     -0.0000      0.0224      0.0420
        10         0.0000     -0.2077     -0.0000      0.0431      0.0760
        11        -0.1860     -0.0000     -0.0000      0.0346      0.0597
        12        -0.0000     -0.0000     -0.0000      0.0000      0.0000
        13         0.0000      0.0000      0.0892      0.0080      0.0127
        14         0.0000     -0.0000      0.0334      0.0011      0.0018
        15        -0.0000      0.0026      0.0000      0.0000      0.0000
        16         0.0000     -0.0000      0.2099      0.0441      0.0663
        17         0.0000      0.0000     -0.4776      0.2281      0.3351
        18         0.0000      0.0000     -0.0000      0.0000      0.0000
        19         0.0000      0.1695      0.0000      0.0287      0.0417
        20        -0.0000      0.2712      0.0000      0.0736      0.1062
        21        -0.1010     -0.0000     -0.0000      0.0102      0.0145
        22         0.0939      0.0000     -0.0000      0.0088      0.0123
        23         0.0000     -0.0000      0.2233      0.0499      0.0691
        24         0.0000      0.0496      0.0000      0.0025      0.0034
        25         0.0000     -0.1613     -0.0000      0.0260      0.0350
        26         0.0000      0.0000      0.0000      0.0000      0.0000
        27        -0.0000     -0.0000     -0.0509      0.0026      0.0034
        28        -0.0000     -0.0000     -0.0000      0.0000      0.0000
        29         0.0014     -0.0000      0.0000      0.0000      0.0000
        30        -0.0000      0.0000     -0.1545      0.0239      0.0295
 Ground to excited state transition magnetic dipole moments (Au):
       state          X           Y           Z
         1        -0.0000      0.0000      1.1803
         2        -0.4083     -0.0000      0.0000
         3         0.6543     -0.0000      0.0000
         4        -0.0000     -0.0000     -0.0000
         5        -0.0000     -1.5973      0.0000
         6        -0.0000     -0.0000     -0.0000
         7        -0.0000      0.0000     -0.0354
         8         0.0000      0.0000     -0.7511
         9        -0.0000      0.0019      0.0000
        10        -0.7759     -0.0000      0.0000
        11        -0.0000      0.1017     -0.0000
        12        -0.0000     -0.0000      0.0364
        13        -0.0000      0.0000      0.0000
        14        -0.0000      0.0000      0.0000
        15         0.4959      0.0000     -0.0000
        16         0.0000      0.0000     -0.0000
        17         0.0000      0.0000     -0.0000
        18        -0.0000     -0.0000     -0.0171
        19        -0.1923      0.0000      0.0000
        20         0.3587     -0.0000     -0.0000
        21        -0.0000     -0.1196     -0.0000
        22         0.0000      0.2906      0.0000
        23         0.0000      0.0000      0.0000
        24        -0.5127      0.0000      0.0000
        25        -0.5543      0.0000     -0.0000
        26        -0.0000     -0.0000     -0.0170
        27         0.0000      0.0000     -0.0000
        28        -0.0000     -0.0000      0.0337
        29        -0.0000     -0.1342      0.0000
        30         0.0000      0.0000     -0.0000
 Ground to excited state transition velocity quadrupole moments (Au):
       state          XX          YY          ZZ          XY          XZ          YZ
         1        -0.0000     -0.0000     -0.0000     -0.0779      0.0000      0.0000
         2        -0.0000     -0.0000      0.0000     -0.0000      0.0000      0.4626
         3        -0.0000     -0.0000     -0.0000     -0.0000     -0.0000     -0.0406
         4        -0.0218     -0.2597     -0.2693     -0.0000     -0.0000      0.0000
         5        -0.0000     -0.0000     -0.0000     -0.0000     -0.3053     -0.0000
         6         0.2133     -0.0093     -0.1671      0.0000      0.0000      0.0000
         7         0.0000     -0.0000     -0.0000     -0.0500      0.0000      0.0000
         8         0.0000     -0.0000     -0.0000      0.2092      0.0000     -0.0000
         9        -0.0000      0.0000      0.0000     -0.0000     -0.1385      0.0000
        10         0.0000     -0.0000      0.0000     -0.0000      0.0000      0.4715
        11        -0.0000     -0.0000     -0.0000     -0.0000     -0.2854      0.0000
        12        -0.0000      0.0000      0.0000      0.2819     -0.0000     -0.0000
        13         0.6974     -0.0150     -0.0662     -0.0000      0.0000      0.0000
        14         0.2498     -0.1302      0.1448     -0.0000      0.0000     -0.0000
        15         0.0000     -0.0000     -0.0000     -0.0000      0.0000      0.3350
        16        -0.2851     -0.6833     -0.6534     -0.0000      0.0000      0.0000
        17        -0.0566      0.2757      0.3639      0.0000     -0.0000     -0.0000
        18         0.0000      0.0000      0.0000      0.3469     -0.0000      0.0000
        19         0.0000     -0.0000     -0.0000     -0.0000     -0.0000     -0.2401
        20         0.0000     -0.0000     -0.0000      0.0000      0.0000     -0.6698
        21        -0.0000      0.0000      0.0000     -0.0000      0.0597      0.0000
        22         0.0000     -0.0000     -0.0000      0.0000     -0.0132     -0.0000
        23         0.1754      0.5148      0.2465     -0.0000     -0.0000     -0.0000
        24         0.0000      0.0000      0.0000      0.0000      0.0000      0.1475
        25        -0.0000     -0.0000     -0.0000     -0.0000     -0.0000     -0.2774
        26         0.0000      0.0000      0.0000     -0.2522     -0.0000     -0.0000
        27         0.3274      1.0887      0.2679     -0.0000      0.0000     -0.0000
        28         0.0000      0.0000      0.0000      0.3171     -0.0000      0.0000
        29         0.0000     -0.0000     -0.0000      0.0000      0.0406     -0.0000
        30        -0.1837      0.4502     -0.1527      0.0000     -0.0000     -0.0000
 <0|del|b> * <b|rxdel|0> + <0|del|b> * <b|delr+rdel|0>
 Rotatory Strengths (R) in cgs (10**-40 erg-esu-cm/Gauss)
       state          XX          YY          ZZ    R(velocity)    E-M Angle
         1        -0.0000     -0.0000     -0.0000     -0.0000       90.00
         2         0.0000      0.0000     -0.0000     -0.0000       90.00
         3         0.0000     -0.0000      0.0000      0.0000       90.00
         4        -0.0000     -0.0000      0.0000     -0.0000       90.00
         5         0.0000      0.0000      0.0000      0.0000       90.00
         6        -0.0000      0.0000      0.0000      0.0000       90.00
         7        -0.0000      0.0000     -0.0000     -0.0000       90.00
         8         0.0000      0.0000      0.0000      0.0000       90.00
         9        -0.0000     -0.0000     -0.0000     -0.0000       90.00
        10         0.0000     -0.0000     -0.0000     -0.0000       90.00
        11        -0.0000      0.0000      0.0000      0.0000       90.00
        12        -0.0000      0.0000     -0.0000     -0.0000       90.00
        13         0.0000      0.0000     -0.0000      0.0000       90.00
        14        -0.0000      0.0000     -0.0000      0.0000       90.00
        15         0.0000     -0.0000     -0.0000     -0.0000       90.00
        16        -0.0000      0.0000     -0.0000     -0.0000       90.00
        17        -0.0000      0.0000      0.0000      0.0000       90.00
        18        -0.0000      0.0000     -0.0000      0.0000       90.00
        19         0.0000     -0.0000     -0.0000     -0.0000       90.00
        20        -0.0000      0.0000     -0.0000     -0.0000       90.00
        21         0.0000      0.0000      0.0000      0.0000       90.00
        22         0.0000      0.0000      0.0000      0.0000       90.00
        23        -0.0000      0.0000      0.0000      0.0000       90.00
        24         0.0000     -0.0000     -0.0000     -0.0000       90.00
        25        -0.0000     -0.0000     -0.0000     -0.0000       90.00
        26        -0.0000      0.0000     -0.0000     -0.0000       90.00
        27         0.0000     -0.0000     -0.0000      0.0000       90.00
        28        -0.0000      0.0000      0.0000     -0.0000       90.00
        29         0.0000     -0.0000      0.0000      0.0000       90.00
        30         0.0000      0.0000     -0.0000      0.0000       90.00
 1/2[<0|r|b>*<b|rxdel|0> + (<0|rxdel|b>*<b|r|0>)*]
 Rotatory Strengths (R) in cgs (10**-40 erg-esu-cm/Gauss)
       state          XX          YY          ZZ     R(length)
         1         0.0000     -0.0000      0.0000      0.0000
         2         0.0000      0.0000      0.0000      0.0000
         3        -0.0000      0.0000     -0.0000      0.0000
         4         0.0000      0.0000     -0.0000     -0.0000
         5         0.0000     -0.0000      0.0000     -0.0000
         6         0.0000     -0.0000      0.0000      0.0000
         7        -0.0000     -0.0000     -0.0000     -0.0000
         8         0.0000      0.0000     -0.0000     -0.0000
         9        -0.0000     -0.0000     -0.0000     -0.0000
        10        -0.0000      0.0000     -0.0000     -0.0000
        11         0.0000     -0.0000      0.0000      0.0000
        12         0.0000      0.0000     -0.0000     -0.0000
        13         0.0000      0.0000      0.0000      0.0000
        14        -0.0000      0.0000      0.0000      0.0000
        15        -0.0000      0.0000     -0.0000     -0.0000
        16        -0.0000     -0.0000     -0.0000     -0.0000
        17         0.0000      0.0000      0.0000      0.0000
        18        -0.0000     -0.0000      0.0000      0.0000
        19        -0.0000      0.0000      0.0000     -0.0000
        20        -0.0000     -0.0000     -0.0000     -0.0000
        21         0.0000      0.0000      0.0000      0.0000
        22         0.0000      0.0000     -0.0000      0.0000
        23         0.0000     -0.0000      0.0000      0.0000
        24        -0.0000      0.0000      0.0000     -0.0000
        25        -0.0000     -0.0000      0.0000     -0.0000
        26        -0.0000      0.0000     -0.0000     -0.0000
        27        -0.0000     -0.0000      0.0000      0.0000
        28         0.0000      0.0000     -0.0000     -0.0000
        29         0.0000      0.0000      0.0000      0.0000
        30        -0.0000     -0.0000      0.0000      0.0000
  1/2[<0|del|b>*<b|r|0> + (<0|r|b>*<b|del|0>)*] (Au)
       state          X           Y           Z        Dip. S.   Osc.(frdel)
         1         0.0000     -0.0000      0.0000     -0.0000     -0.0000
         2         0.0000     -0.0313      0.0000      0.0313      0.0209
         3        -0.0000     -0.0436     -0.0000      0.0436      0.0291
         4        -0.0000      0.0000     -0.0511      0.0511      0.0341
         5        -0.0030      0.0000     -0.0000      0.0030      0.0020
         6        -0.0000     -0.0000     -0.2217      0.2217      0.1478
         7        -0.0000     -0.0000     -0.0000      0.0000      0.0000
         8        -0.0000     -0.0000      0.0000      0.0000      0.0000
         9        -0.0613     -0.0000     -0.0000      0.0613      0.0409
        10        -0.0000     -0.1144     -0.0000      0.1144      0.0763
        11        -0.0858     -0.0000     -0.0000      0.0858      0.0572
        12        -0.0000     -0.0000     -0.0000      0.0000      0.0000
        13         0.0000     -0.0000     -0.0179      0.0179      0.0120
        14        -0.0000      0.0000     -0.0027      0.0027      0.0018
        15        -0.0000     -0.0001     -0.0000      0.0001      0.0001
        16         0.0000     -0.0000     -0.1036      0.1036      0.0690
        17        -0.0000     -0.0000     -0.4952      0.4952      0.3302
        18        -0.0000     -0.0000     -0.0000      0.0000      0.0000
        19        -0.0000     -0.0634     -0.0000      0.0634      0.0423
        20        -0.0000     -0.1608     -0.0000      0.1608      0.1072
        21        -0.0263     -0.0000     -0.0000      0.0263      0.0175
        22        -0.0194     -0.0000     -0.0000      0.0194      0.0129
        23        -0.0000     -0.0000     -0.1076      0.1076      0.0717
        24        -0.0000     -0.0050     -0.0000      0.0050      0.0033
        25        -0.0000     -0.0521     -0.0000      0.0521      0.0347
        26        -0.0000      0.0000     -0.0000      0.0000      0.0000
        27        -0.0000     -0.0000     -0.0058      0.0058      0.0039
        28        -0.0000     -0.0000     -0.0000      0.0000      0.0000
        29         0.0000     -0.0000     -0.0000     -0.0000     -0.0000
        30        -0.0000      0.0000     -0.0447      0.0447      0.0298

 Excitation energies and oscillator strengths:
 
 Excited State   1:      Singlet-A2     3.4524 eV  359.13 nm  f=0.0000  <S**2>=0.000
       3 -> 27         0.00219
       3 -> 38         0.00183
       3 -> 45         0.00273
       4 -> 27         0.00158
       4 -> 38        -0.00045
       4 -> 45        -0.00138
       5 ->  9         0.01921
       5 -> 13        -0.00165
       5 -> 17         0.00514
       5 -> 23         0.00053
       5 -> 29         0.00430
       5 -> 31        -0.00164
       5 -> 37         0.00298
       5 -> 44         0.00056
       5 -> 48         0.00014
       5 -> 52         0.00069
       6 -> 27        -0.00031
       6 -> 38        -0.00088
       6 -> 45         0.00176
       7 -> 12        -0.00063
       7 -> 15         0.00330
       7 -> 18        -0.00309
       7 -> 22         0.00033
       7 -> 25         0.00140
       7 -> 30        -0.00102
       7 -> 33         0.00045
       7 -> 35         0.00018
       7 -> 40         0.00017
       7 -> 42        -0.00012
       7 -> 49         0.00025
       7 -> 50         0.00032
       7 -> 53         0.00048
       8 ->  9         0.70620
       8 -> 13        -0.03343
       8 -> 17         0.02262
       8 -> 23        -0.00890
       8 -> 29         0.00993
       8 -> 31        -0.00172
       8 -> 37         0.00024
       8 -> 48        -0.00027
       8 -> 52         0.00179
       3 <- 27         0.00136
       3 <- 38         0.00149
       3 <- 45         0.00281
       4 <- 27         0.00236
       4 <- 38         0.00011
       4 <- 45        -0.00115
       5 <-  9        -0.00054
       5 <- 13        -0.00078
       5 <- 17        -0.00101
       5 <- 23         0.00050
       5 <- 29        -0.00071
       5 <- 31         0.00075
       5 <- 37         0.00147
       5 <- 44         0.00021
       5 <- 48         0.00014
       5 <- 52         0.00018
       6 <- 27         0.00029
       6 <- 38        -0.00077
       6 <- 45         0.00137
       7 <- 12        -0.00061
       7 <- 15        -0.00797
       7 <- 18         0.00097
       7 <- 22         0.00746
       7 <- 30         0.00391
       7 <- 33        -0.00121
       7 <- 35         0.00216
       7 <- 40         0.00091
       7 <- 50         0.00021
       7 <- 53         0.00135
       8 <-  9        -0.02835
       8 <- 13         0.00235
       8 <- 17        -0.00475
       8 <- 23         0.00075
       8 <- 29        -0.00127
       8 <- 31        -0.00063
       8 <- 37        -0.00119
       8 <- 52         0.00051
 This state for optimization and/or second-order correction.
 Total Energy, E(TD-HF/TD-DFT) =  -114.404713771    
 Copying the excited state density for this state as the 1-particle RhoCI density.
 
 Excited State   2:      Singlet-B2     6.9356 eV  178.77 nm  f=0.0204  <S**2>=0.000
       3 -> 12         0.00164
       3 -> 15         0.00066
       3 -> 18         0.00127
       3 -> 22        -0.00033
       3 -> 25         0.00122
       3 -> 33         0.00024
       3 -> 35        -0.00050
       3 -> 40        -0.00019
       3 -> 49         0.00012
       4 -> 12        -0.00259
       4 -> 15         0.00202
       4 -> 18         0.00187
       4 -> 22        -0.00323
       4 -> 25         0.00312
       4 -> 30         0.00034
       4 -> 33        -0.00034
       4 -> 35         0.00046
       4 -> 40         0.00044
       4 -> 42        -0.00013
       5 -> 10        -0.00807
       5 -> 11        -0.00721
       5 -> 14         0.00707
       5 -> 16        -0.00066
       5 -> 19        -0.00227
       5 -> 20         0.00275
       5 -> 21         0.00580
       5 -> 24        -0.00054
       5 -> 26         0.00214
       5 -> 28         0.00100
       5 -> 32        -0.00105
       5 -> 34        -0.00099
       5 -> 36        -0.00018
       5 -> 39        -0.00024
       5 -> 41        -0.00047
       5 -> 43        -0.00048
       5 -> 46        -0.00022
       5 -> 54         0.00012
       6 -> 12        -0.00069
       6 -> 15         0.00143
       6 -> 18         0.00132
       6 -> 22        -0.00228
       6 -> 25         0.00098
       6 -> 30        -0.00052
       6 -> 33        -0.00027
       6 -> 35         0.00057
       6 -> 42        -0.00017
       6 -> 49         0.00044
       6 -> 50        -0.00022
       7 -> 38        -0.00066
       7 -> 45         0.00021
       8 -> 10         0.70261
       8 -> 11        -0.07376
       8 -> 14         0.01917
       8 -> 16        -0.00422
       8 -> 19         0.00225
       8 -> 20         0.01741
       8 -> 21        -0.00239
       8 -> 26         0.00290
       8 -> 28         0.00103
       8 -> 32         0.00096
       8 -> 34         0.00078
       8 -> 36         0.00031
       8 -> 39         0.00032
       8 -> 41        -0.00023
       8 -> 43         0.00059
       8 -> 46        -0.00039
       8 -> 47         0.00016
       8 -> 51        -0.00015
       8 -> 54         0.00021
       3 <- 12         0.00037
       3 <- 15         0.00052
       3 <- 18         0.00048
       3 <- 22        -0.00051
       3 <- 25         0.00067
       3 <- 30        -0.00011
       3 <- 33         0.00021
       3 <- 35        -0.00045
       3 <- 40        -0.00021
       3 <- 49         0.00018
       4 <- 12         0.00077
       4 <- 15         0.00196
       4 <- 18         0.00178
       4 <- 22        -0.00202
       4 <- 25         0.00211
       4 <- 30         0.00024
       4 <- 33        -0.00016
       4 <- 35         0.00021
       4 <- 40         0.00011
       4 <- 42        -0.00023
       4 <- 50        -0.00014
       5 <- 10         0.00227
       5 <- 11        -0.00024
       5 <- 14         0.00464
       5 <- 16        -0.00055
       5 <- 19        -0.00035
       5 <- 20         0.00077
       5 <- 21         0.00174
       5 <- 24        -0.00212
       5 <- 26         0.00143
       5 <- 28         0.00012
       5 <- 32        -0.00078
       5 <- 34        -0.00089
       5 <- 36        -0.00024
       5 <- 39        -0.00014
       5 <- 41        -0.00029
       5 <- 43        -0.00038
       5 <- 46        -0.00019
       6 <- 15        -0.00024
       6 <- 18         0.00098
       6 <- 22        -0.00048
       6 <- 25         0.00032
       6 <- 30         0.00036
       6 <- 33        -0.00032
       6 <- 35         0.00061
       6 <- 42        -0.00015
       6 <- 49         0.00036
       6 <- 50        -0.00024
       6 <- 53         0.00016
       7 <- 38        -0.00049
       7 <- 45         0.00021
       8 <- 10        -0.00146
       8 <- 11        -0.00060
       8 <- 14        -0.00439
       8 <- 16        -0.00055
       8 <- 19         0.00032
       8 <- 20        -0.00071
       8 <- 21        -0.00148
       8 <- 24         0.00184
       8 <- 26        -0.00085
       8 <- 28        -0.00043
       8 <- 32         0.00093
       8 <- 36         0.00031
       8 <- 39         0.00021
       8 <- 43         0.00037
       8 <- 46        -0.00021
 
 Excited State   3:      Singlet-B2     7.6794 eV  161.45 nm  f=0.0279  <S**2>=0.000
       3 -> 12        -0.00035
       3 -> 15        -0.00102
       3 -> 18         0.00115
       3 -> 22         0.00051
       3 -> 30         0.00257
       3 -> 33         0.00016
       3 -> 35        -0.00065
       3 -> 40        -0.00056
       3 -> 49         0.00063
       3 -> 50        -0.00018
       4 -> 12         0.00241
       4 -> 15         0.00046
       4 -> 18         0.00177
       4 -> 22        -0.00149
       4 -> 25         0.00276
       4 -> 30        -0.00142
       4 -> 33         0.00049
       4 -> 35        -0.00059
       4 -> 49         0.00023
       5 -> 10        -0.00535
       5 -> 11        -0.00019
       5 -> 14         0.01005
       5 -> 16        -0.00676
       5 -> 19        -0.00035
       5 -> 20        -0.00475
       5 -> 21         0.00261
       5 -> 24        -0.00077
       5 -> 26         0.00165
       5 -> 28         0.00154
       5 -> 34        -0.00081
       5 -> 36        -0.00041
       5 -> 39         0.00047
       5 -> 41        -0.00066
       5 -> 43         0.00020
       5 -> 46         0.00091
       5 -> 51        -0.00043
       6 -> 12        -0.00279
       6 -> 15        -0.00138
       6 -> 18        -0.00073
       6 -> 22         0.00108
       6 -> 25         0.00017
       6 -> 30         0.00119
       6 -> 33        -0.00055
       6 -> 35         0.00149
       6 -> 40         0.00115
       6 -> 49        -0.00131
       6 -> 50         0.00028
       6 -> 53         0.00012
       7 -> 27         0.00026
       7 -> 38        -0.00081
       7 -> 45        -0.00206
       8 -> 10         0.07380
       8 -> 11         0.70213
       8 -> 14        -0.00061
       8 -> 16         0.00857
       8 -> 19        -0.03608
       8 -> 20        -0.00180
       8 -> 21        -0.00274
       8 -> 24         0.00054
       8 -> 26        -0.00054
       8 -> 28         0.00229
       8 -> 32         0.00011
       8 -> 34        -0.00021
       8 -> 36        -0.00026
       8 -> 39        -0.00026
       8 -> 41        -0.00108
       8 -> 43         0.00039
       8 -> 46         0.00244
       8 -> 51        -0.00112
       3 <- 12         0.00034
       3 <- 15        -0.00032
       3 <- 18         0.00103
       3 <- 25         0.00020
       3 <- 30         0.00137
       3 <- 33         0.00027
       3 <- 35        -0.00067
       3 <- 40        -0.00051
       3 <- 49         0.00057
       3 <- 50        -0.00012
       3 <- 53        -0.00034
       4 <- 12         0.00029
       4 <- 15         0.00087
       4 <- 18         0.00037
       4 <- 22        -0.00117
       4 <- 25         0.00118
       4 <- 30        -0.00076
       4 <- 33         0.00046
       4 <- 35        -0.00031
       4 <- 49         0.00017
       5 <- 10         0.00117
       5 <- 11        -0.00139
       5 <- 14         0.00275
       5 <- 16        -0.00043
       5 <- 19         0.00152
       5 <- 20        -0.00037
       5 <- 21         0.00083
       5 <- 24        -0.00142
       5 <- 26         0.00014
       5 <- 28         0.00064
       5 <- 32        -0.00085
       5 <- 34         0.00010
       5 <- 36         0.00012
       5 <- 39         0.00011
       5 <- 41        -0.00070
       5 <- 43         0.00011
       5 <- 46         0.00088
       5 <- 47        -0.00011
       5 <- 51        -0.00030
       6 <- 12        -0.00027
       6 <- 15        -0.00112
       6 <- 18         0.00039
       6 <- 22         0.00096
       6 <- 25        -0.00015
       6 <- 30         0.00120
       6 <- 33        -0.00048
       6 <- 35         0.00131
       6 <- 40         0.00092
       6 <- 49        -0.00107
       6 <- 50         0.00021
       7 <- 27         0.00038
       7 <- 38        -0.00064
       7 <- 45        -0.00172
       8 <- 10        -0.00086
       8 <- 11        -0.00200
       8 <- 14        -0.00363
       8 <- 16         0.00040
       8 <- 19         0.00547
       8 <- 20         0.00035
       8 <- 21        -0.00193
       8 <- 24        -0.00048
       8 <- 26        -0.00165
       8 <- 28         0.00064
       8 <- 32        -0.00131
       8 <- 34         0.00166
       8 <- 39        -0.00074
       8 <- 41        -0.00101
       8 <- 43         0.00018
       8 <- 46         0.00196
       8 <- 47        -0.00030
       8 <- 51        -0.00074
 
 Excited State   4:      Singlet-A1     7.9516 eV  155.92 nm  f=0.0347  <S**2>=0.000
       3 -> 10         0.00236
       3 -> 14         0.00154
       3 -> 19        -0.00290
       3 -> 20         0.00221
       3 -> 21         0.00123
       3 -> 24         0.00101
       3 -> 26         0.00155
       3 -> 28         0.00085
       3 -> 32         0.00025
       3 -> 34        -0.00098
       3 -> 36        -0.00019
       3 -> 39         0.00012
       3 -> 41        -0.00018
       3 -> 46         0.00025
       3 -> 47        -0.00028
       3 -> 51        -0.00013
       3 -> 54        -0.00015
       4 -> 10         0.00551
       4 -> 11         0.00359
       4 -> 14         0.00474
       4 -> 16         0.00074
       4 -> 19         0.00053
       4 -> 20         0.00304
       4 -> 21        -0.00075
       4 -> 24        -0.00686
       4 -> 26         0.00244
       4 -> 28        -0.00023
       4 -> 32        -0.00064
       4 -> 34         0.00038
       4 -> 36         0.00012
       4 -> 43         0.00016
       4 -> 46        -0.00021
       4 -> 51        -0.00012
       5 -> 12         0.00608
       5 -> 15         0.00453
       5 -> 18         0.00872
       5 -> 22        -0.00271
       5 -> 25         0.00582
       5 -> 30        -0.00047
       5 -> 33        -0.00030
       5 -> 35         0.00075
       5 -> 40         0.00012
       5 -> 50         0.00013
       5 -> 53        -0.00012
       6 -> 10         0.00926
       6 -> 11        -0.00345
       6 -> 14         0.00345
       6 -> 16        -0.00149
       6 -> 19         0.00408
       6 -> 21        -0.00261
       6 -> 24        -0.00560
       6 -> 26        -0.00096
       6 -> 28        -0.00270
       6 -> 32        -0.00021
       6 -> 34        -0.00026
       6 -> 39         0.00024
       6 -> 43         0.00017
       6 -> 47         0.00075
       6 -> 51         0.00021
       6 -> 54        -0.00013
       7 ->  9         0.05282
       7 -> 13         0.01344
       7 -> 17        -0.00080
       7 -> 23         0.00528
       7 -> 29        -0.00113
       7 -> 31        -0.00104
       7 -> 37         0.00058
       7 -> 44         0.00057
       7 -> 48        -0.00029
       8 -> 12         0.70410
       8 -> 15         0.00821
       8 -> 18         0.02829
       8 -> 22         0.00050
       8 -> 25         0.00516
       8 -> 30        -0.00151
       8 -> 33         0.00189
       8 -> 35        -0.00220
       8 -> 40         0.00023
       8 -> 49        -0.00046
       8 -> 50         0.00024
       8 -> 53        -0.00029
       3 <- 10         0.00074
       3 <- 11         0.00067
       3 <- 14         0.00081
       3 <- 16         0.00016
       3 <- 19        -0.00171
       3 <- 20         0.00096
       3 <- 21         0.00085
       3 <- 24         0.00035
       3 <- 26         0.00107
       3 <- 28         0.00057
       3 <- 32         0.00035
       3 <- 34        -0.00067
       3 <- 36        -0.00012
       3 <- 46         0.00033
       3 <- 47        -0.00020
       3 <- 51        -0.00011
       3 <- 54        -0.00014
       4 <- 10         0.00410
       4 <- 11         0.00055
       4 <- 14         0.00333
       4 <- 19         0.00017
       4 <- 20         0.00174
       4 <- 21        -0.00057
       4 <- 24        -0.00369
       4 <- 26         0.00148
       4 <- 32        -0.00085
       4 <- 41        -0.00014
       4 <- 43         0.00013
       4 <- 46        -0.00014
       4 <- 51        -0.00010
       5 <- 12         0.00291
       5 <- 15         0.00336
       5 <- 18         0.00315
       5 <- 22        -0.00106
       5 <- 25         0.00317
       5 <- 30        -0.00024
       5 <- 33        -0.00041
       5 <- 35         0.00067
       5 <- 53        -0.00011
       6 <- 10         0.00219
       6 <- 11        -0.00024
       6 <- 14         0.00134
       6 <- 16        -0.00053
       6 <- 19         0.00123
       6 <- 21        -0.00140
       6 <- 24        -0.00271
       6 <- 26        -0.00038
       6 <- 28        -0.00175
       6 <- 32        -0.00030
       6 <- 34        -0.00026
       6 <- 39         0.00012
       6 <- 46        -0.00017
       6 <- 47         0.00062
       6 <- 51         0.00023
       6 <- 54        -0.00011
       7 <-  9        -0.00508
       7 <- 13         0.00282
       7 <- 17        -0.00086
       7 <- 23         0.00275
       7 <- 29        -0.00093
       7 <- 31        -0.00065
       7 <- 37         0.00043
       7 <- 44         0.00050
       7 <- 48        -0.00027
       8 <- 12        -0.00025
       8 <- 15        -0.00258
       8 <- 18        -0.00172
       8 <- 22        -0.00052
       8 <- 25        -0.00113
       8 <- 30        -0.00152
       8 <- 33         0.00073
       8 <- 35        -0.00084
       8 <- 40         0.00034
       8 <- 49        -0.00045
       8 <- 50         0.00015
       8 <- 53        -0.00028
 
 Excited State   5:      Singlet-B1     8.1242 eV  152.61 nm  f=0.0013  <S**2>=0.000
       3 ->  9        -0.03349
       3 -> 13         0.00470
       3 -> 17        -0.00689
       3 -> 23         0.00382
       3 -> 29        -0.00244
       3 -> 31        -0.00030
       3 -> 44         0.00062
       3 -> 48         0.00022
       3 -> 52         0.00113
       4 ->  9         0.01677
       4 -> 13        -0.00275
       4 -> 17         0.00095
       4 -> 23        -0.00249
       4 -> 31        -0.00242
       4 -> 37        -0.00042
       4 -> 48        -0.00160
       4 -> 52        -0.00096
       5 -> 27        -0.00167
       5 -> 38         0.00209
       5 -> 45         0.00272
       6 ->  9         0.70516
       6 -> 13        -0.03338
       6 -> 17         0.02235
       6 -> 23        -0.01238
       6 -> 29         0.00768
       6 -> 31         0.00377
       6 -> 37        -0.00262
       6 -> 44        -0.00352
       6 -> 48         0.00549
       6 -> 52         0.00194
       7 -> 10         0.00261
       7 -> 11         0.00735
       7 -> 14         0.00020
       7 -> 16        -0.01237
       7 -> 19        -0.00337
       7 -> 20         0.00244
       7 -> 21         0.00359
       7 -> 24         0.00258
       7 -> 26         0.00206
       7 -> 28        -0.00471
       7 -> 32        -0.00129
       7 -> 36        -0.00156
       7 -> 39         0.00029
       7 -> 41        -0.00205
       7 -> 43         0.00101
       7 -> 46         0.00492
       7 -> 47         0.00234
       7 -> 51         0.00110
       7 -> 54         0.00055
       8 -> 27         0.00281
       8 -> 38         0.00095
       8 -> 45         0.00681
       3 <-  9        -0.01045
       3 <- 13         0.00070
       3 <- 17        -0.00337
       3 <- 23         0.00045
       3 <- 29        -0.00147
       3 <- 31        -0.00019
       3 <- 37        -0.00015
       3 <- 44        -0.00012
       3 <- 48         0.00050
       3 <- 52         0.00091
       4 <-  9         0.00545
       4 <- 17         0.00249
       4 <- 23        -0.00031
       4 <- 29         0.00224
       4 <- 31        -0.00234
       4 <- 37         0.00018
       4 <- 44         0.00020
       4 <- 48        -0.00138
       4 <- 52        -0.00052
       5 <- 27        -0.00170
       5 <- 38         0.00158
       5 <- 45         0.00239
       6 <-  9        -0.02139
       6 <- 13         0.00309
       6 <- 17        -0.00305
       6 <- 23         0.00061
       6 <- 29        -0.00205
       6 <- 31         0.00311
       6 <- 37        -0.00266
       6 <- 44        -0.00218
       6 <- 48         0.00479
       6 <- 52         0.00070
       7 <- 10         0.00173
       7 <- 11         0.00281
       7 <- 14         0.00078
       7 <- 16         0.00045
       7 <- 19        -0.00812
       7 <- 20         0.00844
       7 <- 21         0.00711
       7 <- 24         0.00674
       7 <- 26         0.00427
       7 <- 28         0.00070
       7 <- 32        -0.00123
       7 <- 34         0.00154
       7 <- 36        -0.00249
       7 <- 39         0.00050
       7 <- 41        -0.00144
       7 <- 43         0.00098
       7 <- 46         0.00440
       7 <- 47         0.00190
       7 <- 51         0.00076
       7 <- 54         0.00102
       8 <- 27         0.00250
       8 <- 38         0.00095
       8 <- 45         0.00597
 
 Excited State   6:      Singlet-A1     8.3775 eV  148.00 nm  f=0.1546  <S**2>=0.000
       3 -> 10         0.00429
       3 -> 11         0.01299
       3 -> 14         0.00602
       3 -> 16        -0.00149
       3 -> 19        -0.02168
       3 -> 20         0.00680
       3 -> 21         0.00787
       3 -> 24         0.00799
       3 -> 26         0.01036
       3 -> 28         0.00255
       3 -> 32         0.00339
       3 -> 34        -0.00371
       3 -> 36        -0.00259
       3 -> 39         0.00166
       3 -> 41         0.00029
       3 -> 43         0.00087
       3 -> 46         0.00182
       3 -> 47         0.00050
       3 -> 54         0.00028
       4 -> 10         0.03165
       4 -> 11        -0.01265
       4 -> 14         0.01796
       4 -> 16         0.00080
       4 -> 19         0.01055
       4 -> 20         0.00923
       4 -> 21         0.00109
       4 -> 24        -0.00869
       4 -> 26         0.00591
       4 -> 28         0.00069
       4 -> 32        -0.00139
       4 -> 34         0.00339
       4 -> 36         0.00090
       4 -> 39        -0.00019
       4 -> 46        -0.00091
       4 -> 47        -0.00141
       5 -> 12         0.03861
       5 -> 15         0.04092
       5 -> 18         0.00313
       5 -> 22        -0.00170
       5 -> 25         0.01535
       5 -> 30        -0.00446
       5 -> 33        -0.00276
       5 -> 35         0.00073
       5 -> 40         0.00160
       5 -> 42         0.00083
       5 -> 49         0.00054
       5 -> 50        -0.00039
       5 -> 53        -0.00044
       6 -> 10        -0.02664
       6 -> 11        -0.03703
       6 -> 14        -0.01093
       6 -> 16        -0.02958
       6 -> 19         0.06217
       6 -> 20        -0.05277
       6 -> 21        -0.03330
       6 -> 24        -0.03034
       6 -> 26        -0.01660
       6 -> 28        -0.01241
       6 -> 32        -0.00018
       6 -> 34        -0.00376
       6 -> 36         0.00303
       6 -> 39        -0.00016
       6 -> 41        -0.00130
       6 -> 43         0.00018
       6 -> 46         0.00090
       6 -> 47         0.00164
       6 -> 51         0.00062
       6 -> 54        -0.00013
       7 ->  9         0.67253
       7 -> 13         0.03740
       7 -> 17        -0.02891
       7 -> 23         0.00987
       7 -> 29        -0.00595
       7 -> 31        -0.00042
       7 -> 37        -0.00020
       7 -> 44        -0.00068
       7 -> 48         0.00057
       7 -> 52         0.00099
       8 -> 12        -0.05318
       8 -> 15         0.17667
       8 -> 18        -0.02780
       8 -> 22        -0.05553
       8 -> 25         0.00501
       8 -> 30        -0.01503
       8 -> 33         0.00694
       8 -> 35        -0.00844
       8 -> 40        -0.00323
       8 -> 42        -0.00042
       8 -> 49         0.00059
       8 -> 50         0.00046
       8 -> 53        -0.00109
       3 <- 10         0.00202
       3 <- 11         0.00710
       3 <- 14         0.00410
       3 <- 16        -0.00027
       3 <- 19        -0.01326
       3 <- 20         0.00454
       3 <- 21         0.00614
       3 <- 24         0.00556
       3 <- 26         0.00673
       3 <- 28         0.00182
       3 <- 32         0.00290
       3 <- 34        -0.00225
       3 <- 36        -0.00181
       3 <- 39         0.00123
       3 <- 41         0.00017
       3 <- 43         0.00081
       3 <- 46         0.00192
       3 <- 47         0.00075
       3 <- 54         0.00028
       4 <- 10         0.01025
       4 <- 11        -0.00458
       4 <- 14         0.00659
       4 <- 19         0.00541
       4 <- 20         0.00481
       4 <- 21         0.00036
       4 <- 24        -0.00477
       4 <- 26         0.00391
       4 <- 32        -0.00175
       4 <- 34         0.00244
       4 <- 36         0.00051
       4 <- 39        -0.00015
       4 <- 41        -0.00019
       4 <- 46        -0.00037
       4 <- 47        -0.00132
       4 <- 51         0.00024
       5 <- 12         0.00906
       5 <- 15         0.01315
       5 <- 18         0.00163
       5 <- 22        -0.00087
       5 <- 25         0.00787
       5 <- 30        -0.00247
       5 <- 33        -0.00188
       5 <- 35         0.00071
       5 <- 40         0.00133
       5 <- 42         0.00062
       5 <- 49         0.00043
       5 <- 50        -0.00035
       5 <- 53        -0.00037
       6 <- 10        -0.00433
       6 <- 11        -0.00642
       6 <- 14        -0.00266
       6 <- 16        -0.00878
       6 <- 19         0.02117
       6 <- 20        -0.02038
       6 <- 21        -0.01477
       6 <- 24        -0.01525
       6 <- 26        -0.00937
       6 <- 28        -0.00731
       6 <- 32         0.00013
       6 <- 34        -0.00291
       6 <- 36         0.00205
       6 <- 41        -0.00085
       6 <- 43         0.00015
       6 <- 46         0.00041
       6 <- 47         0.00135
       6 <- 51         0.00043
       7 <-  9        -0.08442
       7 <- 13         0.01394
       7 <- 17        -0.01397
       7 <- 23         0.00848
       7 <- 29        -0.00610
       7 <- 31         0.00078
       7 <- 37        -0.00043
       7 <- 44        -0.00017
       7 <- 52         0.00079
       8 <- 12         0.00102
       8 <- 15         0.02527
       8 <- 18        -0.00489
       8 <- 22        -0.01966
       8 <- 25         0.00160
       8 <- 30        -0.00855
       8 <- 33         0.00443
       8 <- 35        -0.00562
       8 <- 40        -0.00243
       8 <- 42        -0.00033
       8 <- 49         0.00039
       8 <- 50         0.00034
       8 <- 53        -0.00093
 
 Excited State   7:      Singlet-A2     8.4749 eV  146.30 nm  f=0.0000  <S**2>=0.000
       3 -> 27        -0.00037
       3 -> 38        -0.00032
       3 -> 45        -0.00012
       4 -> 27         0.00011
       4 -> 38         0.00042
       5 ->  9         0.00270
       5 -> 13        -0.00635
       5 -> 17         0.00661
       5 -> 23        -0.00237
       5 -> 29        -0.00025
       5 -> 31         0.00114
       5 -> 37        -0.00083
       5 -> 44        -0.00018
       6 -> 27         0.00022
       6 -> 38         0.00031
       6 -> 45        -0.00013
       7 -> 12         0.00059
       7 -> 15        -0.00192
       7 -> 18         0.00202
       7 -> 22        -0.00080
       7 -> 35        -0.00012
       8 ->  9         0.03270
       8 -> 13         0.70570
       8 -> 17         0.02390
       8 -> 23         0.01532
       8 -> 29         0.00020
       8 -> 31         0.00182
       8 -> 37        -0.00042
       8 -> 48         0.00016
       3 <- 38        -0.00017
       3 <- 45        -0.00019
       4 <- 27        -0.00011
       5 <-  9        -0.00050
       5 <- 13        -0.00028
       5 <- 17         0.00042
       5 <- 37        -0.00019
       6 <- 38         0.00018
       7 <- 12        -0.00049
       7 <- 15        -0.00113
       7 <- 18         0.00081
       7 <- 22        -0.00080
       7 <- 25        -0.00043
       7 <- 30         0.00025
       7 <- 33         0.00031
       7 <- 35        -0.00051
       7 <- 40        -0.00033
       8 <-  9         0.00096
       8 <- 13         0.00110
       8 <- 17         0.00023
       8 <- 29        -0.00010
 
 Excited State   8:      Singlet-A2     9.2483 eV  134.06 nm  f=0.0000  <S**2>=0.000
       3 -> 27        -0.00100
       3 -> 38        -0.00046
       3 -> 45         0.00064
       4 -> 27        -0.00580
       4 -> 38         0.00055
       4 -> 45        -0.00070
       5 ->  9         0.70491
       5 -> 13        -0.03947
       5 -> 17         0.01263
       5 -> 23        -0.01482
       5 -> 29         0.00266
       5 -> 31        -0.00037
       5 -> 37        -0.00519
       5 -> 44        -0.00195
       5 -> 48        -0.00017
       5 -> 52         0.00039
       6 -> 27        -0.00148
       6 -> 38         0.00178
       6 -> 45         0.00069
       7 -> 12         0.01745
       7 -> 15         0.01473
       7 -> 18         0.00122
       7 -> 22        -0.00555
       7 -> 25         0.00098
       7 -> 30        -0.00117
       7 -> 35        -0.00075
       7 -> 40        -0.00024
       7 -> 42        -0.00022
       7 -> 49        -0.00036
       7 -> 50        -0.00066
       7 -> 53         0.00013
       8 ->  9        -0.02007
       8 -> 13        -0.00287
       8 -> 17         0.01619
       8 -> 23         0.00246
       8 -> 29         0.00332
       8 -> 31         0.00042
       8 -> 37         0.00377
       8 -> 44         0.00032
       8 -> 48         0.00016
       8 -> 52         0.00065
       3 <- 27        -0.00145
       3 <- 38        -0.00061
       3 <- 45         0.00084
       4 <- 27        -0.00453
       4 <- 38         0.00053
       4 <- 45        -0.00020
       5 <-  9        -0.00987
       5 <- 13         0.00210
       5 <- 17        -0.00092
       5 <- 29         0.00069
       5 <- 31        -0.00239
       5 <- 37        -0.00294
       5 <- 44        -0.00033
       5 <- 48        -0.00029
       5 <- 52         0.00014
       6 <- 27        -0.00154
       6 <- 38         0.00122
       6 <- 45         0.00043
       7 <- 12        -0.00168
       7 <- 15        -0.00189
       7 <- 22        -0.00186
       7 <- 25        -0.00244
       7 <- 30         0.00083
       7 <- 33         0.00045
       7 <- 35        -0.00073
       7 <- 40        -0.00057
       7 <- 42        -0.00047
       7 <- 49        -0.00053
       7 <- 50        -0.00074
       7 <- 53         0.00044
       8 <-  9         0.00026
       8 <- 13        -0.00044
       8 <- 17        -0.00159
       8 <- 23         0.00058
       8 <- 29        -0.00234
       8 <- 31         0.00248
       8 <- 37         0.00149
       8 <- 44        -0.00012
       8 <- 48         0.00013
       8 <- 52         0.00013
 
 Excited State   9:      Singlet-B1     9.6830 eV  128.04 nm  f=0.0398  <S**2>=0.000
       3 ->  9         0.00345
       3 -> 13         0.00127
       3 -> 17         0.00049
       3 -> 23        -0.00041
       3 -> 29        -0.00026
       3 -> 31        -0.00034
       3 -> 44        -0.00041
       3 -> 48         0.00023
       3 -> 52        -0.00015
       4 ->  9         0.01482
       4 -> 13        -0.00078
       4 -> 23        -0.00236
       4 -> 29        -0.00012
       4 -> 31         0.00101
       4 -> 37        -0.00050
       4 -> 44        -0.00012
       4 -> 48        -0.00025
       5 -> 27         0.00160
       5 -> 38         0.00079
       5 -> 45        -0.00033
       6 ->  9        -0.00225
       6 -> 13         0.00258
[...]
  48        5S         -0.00152  -0.00000   0.00480   0.00790   0.00614
  49        5PX         0.00000  -0.00000   0.00000   0.00000   0.00000
  50        5PY         0.00000  -0.00000  -0.01811  -0.03326  -0.03096
  51        5PZ        -0.00023  -0.00000   0.00256   0.00334   0.00049
  52        6D 0        0.00031   0.00000  -0.00075  -0.00127  -0.00115
  53        6D+1        0.00000   0.00000   0.00000   0.00000  -0.00000
  54        6D-1       -0.00000  -0.00000  -0.00218  -0.00209   0.00236
  55        6D+2        0.00002   0.00000  -0.00007  -0.00007  -0.00001
  56        6D-2        0.00000   0.00000  -0.00000  -0.00000  -0.00000
                          26        27        28        29        30
  26        4PX         0.00024
  27        4PY        -0.00000   0.00111
  28        4PZ         0.00000  -0.00047   0.00046
  29 3   H  1S          0.00000  -0.00210  -0.00225   0.07988
  30        2S          0.00000  -0.00237  -0.00358   0.11556   0.17156
  31        3S          0.00000  -0.00005  -0.00184   0.04524   0.07784
  32        4PX         0.00024   0.00000   0.00000  -0.00000  -0.00000
  33        4PY         0.00000  -0.00053  -0.00007   0.00790   0.01030
  34        4PZ        -0.00000   0.00007  -0.00009   0.00439   0.00608
  35 4   O  1S          0.00000  -0.00016  -0.00084   0.00229   0.00172
  36        2S          0.00000  -0.00041  -0.00097   0.00384   0.00337
  37        2PX         0.00513   0.00000  -0.00000  -0.00000  -0.00000
  38        2PY         0.00000  -0.00332   0.00155   0.02013   0.05293
  39        2PZ         0.00000  -0.00133  -0.00352   0.01246   0.01966
  40        3S         -0.00000   0.00187   0.00150  -0.01287  -0.01324
  41        3PX         0.00756   0.00000  -0.00000  -0.00000  -0.00000
  42        3PY         0.00000  -0.00487   0.00231   0.02834   0.07544
  43        3PZ         0.00000  -0.00188  -0.00505   0.01777   0.02801
  44        4S         -0.00000   0.00121  -0.00121  -0.00588  -0.00252
  45        4PX         0.00630   0.00000  -0.00000  -0.00000  -0.00000
  46        4PY         0.00000  -0.00371   0.00138   0.03420   0.08067
  47        4PZ         0.00000  -0.00153  -0.00277   0.01297   0.01973
  48        5S          0.00000  -0.00041  -0.00180   0.00480   0.00790
  49        5PX         0.00060   0.00000   0.00000  -0.00000  -0.00000
  50        5PY         0.00000   0.00002  -0.00055   0.01811   0.03326
  51        5PZ         0.00000  -0.00042   0.00008   0.00256   0.00334
  52        6D 0       -0.00000   0.00005   0.00037  -0.00075  -0.00127
  53        6D+1       -0.00049  -0.00000   0.00000  -0.00000  -0.00000
  54        6D-1       -0.00000   0.00040  -0.00033   0.00218   0.00209
  55        6D+2       -0.00000   0.00001   0.00001  -0.00007  -0.00007
  56        6D-2       -0.00000   0.00000   0.00000  -0.00000  -0.00000
                          31        32        33        34        35
  31        3S          0.06183
  32        4PX        -0.00000   0.00024
  33        4PY         0.00134  -0.00000   0.00111
  34        4PZ         0.00141  -0.00000   0.00047   0.00046
  35 4   O  1S          0.00071  -0.00000   0.00016  -0.00084   0.64015
  36        2S          0.00083  -0.00000   0.00041  -0.00097   0.56978
  37        2PX        -0.00000   0.00513   0.00000   0.00000   0.00000
  38        2PY         0.08510   0.00000  -0.00332  -0.00155   0.00000
  39        2PZ         0.01287  -0.00000   0.00133  -0.00352  -0.01153
  40        3S         -0.00145   0.00000  -0.00187   0.00150  -0.13778
  41        3PX        -0.00000   0.00756   0.00000   0.00000   0.00000
  42        3PY         0.12279   0.00000  -0.00487  -0.00231   0.00000
  43        3PZ         0.01836  -0.00000   0.00188  -0.00505  -0.01386
  44        4S          0.00655   0.00000  -0.00121  -0.00121  -0.13471
  45        4PX        -0.00000   0.00630   0.00000   0.00000   0.00000
  46        4PY         0.11521   0.00000  -0.00371  -0.00138   0.00000
  47        4PZ         0.01109  -0.00000   0.00153  -0.00277  -0.01244
  48        5S          0.00614  -0.00000   0.00041  -0.00180   0.00081
  49        5PX        -0.00000   0.00060   0.00000  -0.00000   0.00000
  50        5PY         0.03096   0.00000   0.00002   0.00055   0.00000
  51        5PZ         0.00049  -0.00000   0.00042   0.00008  -0.00175
  52        6D 0       -0.00115   0.00000  -0.00005   0.00037  -0.00062
  53        6D+1        0.00000  -0.00049  -0.00000  -0.00000   0.00000
  54        6D-1       -0.00236  -0.00000   0.00040   0.00033   0.00000
  55        6D+2       -0.00001   0.00000  -0.00001   0.00001  -0.00074
  56        6D-2       -0.00000   0.00000  -0.00000   0.00000  -0.00000
                          36        37        38        39        40
  36        2S          0.52450
  37        2PX         0.00000   0.11140
  38        2PY         0.00000  -0.00000   0.18461
  39        2PZ        -0.01800   0.00000   0.00000   0.12907
  40        3S         -0.23201   0.00000   0.00000   0.05192   0.71876
  41        3PX         0.00000   0.16414  -0.00000   0.00000   0.00000
  42        3PY         0.00000  -0.00000   0.26762  -0.00000  -0.00000
  43        3PZ        -0.02264   0.00000   0.00000   0.18373   0.06892
  44        4S         -0.21001   0.00000   0.00000   0.12235   0.59723
  45        4PX         0.00000   0.13671  -0.00000   0.00000   0.00000
  46        4PY         0.00000  -0.00000   0.23796  -0.00000  -0.00000
  47        4PZ        -0.02099   0.00000   0.00000   0.10985   0.06560
  48        5S         -0.00272   0.00000   0.00000   0.06240   0.02187
  49        5PX         0.00000   0.01296  -0.00000   0.00000   0.00000
  50        5PY         0.00000  -0.00000   0.04859  -0.00000  -0.00000
  51        5PZ        -0.00267   0.00000   0.00000   0.00286   0.00730
  52        6D 0       -0.00114  -0.00000  -0.00000  -0.01133   0.00374
  53        6D+1        0.00000  -0.01055   0.00000   0.00000  -0.00000
  54        6D-1        0.00000   0.00000  -0.00985   0.00000  -0.00000
  55        6D+2       -0.00120   0.00000  -0.00000   0.00024   0.00356
  56        6D-2       -0.00000   0.00000  -0.00000   0.00000   0.00000
                          41        42        43        44        45
  41        3PX         0.24184
  42        3PY        -0.00000   0.38797
  43        3PZ         0.00000   0.00000   0.26160
  44        4S          0.00000   0.00000   0.17020   0.54739
  45        4PX         0.20143  -0.00000   0.00000   0.00000   0.16778
  46        4PY        -0.00000   0.34482  -0.00000  -0.00000  -0.00000
  47        4PZ         0.00000   0.00000   0.15622   0.12052   0.00000
  48        5S          0.00000   0.00000   0.08889   0.05656   0.00000
  49        5PX         0.01909  -0.00000   0.00000   0.00000   0.01590
  50        5PY        -0.00000   0.07021  -0.00000  -0.00000  -0.00000
  51        5PZ         0.00000   0.00000   0.00401   0.00726   0.00000
  52        6D 0       -0.00000  -0.00000  -0.01619  -0.00429  -0.00000
  53        6D+1       -0.01555   0.00000   0.00000  -0.00000  -0.01295
  54        6D-1        0.00000  -0.01433   0.00000   0.00000   0.00000
  55        6D+2        0.00000  -0.00000   0.00031   0.00295   0.00000
  56        6D-2        0.00000  -0.00000   0.00000   0.00000   0.00000
                          46        47        48        49        50
  46        4PY         0.30820
  47        4PZ         0.00000   0.09444
  48        5S          0.00000   0.05291   0.03038
  49        5PX        -0.00000   0.00000   0.00000   0.00151
  50        5PY         0.06490  -0.00000  -0.00000  -0.00000   0.01631
  51        5PZ         0.00000   0.00285   0.00121   0.00000   0.00000
  52        6D 0       -0.00000  -0.00933  -0.00555  -0.00000  -0.00000
  53        6D+1        0.00000   0.00000   0.00000  -0.00123   0.00000
  54        6D-1       -0.01212   0.00000   0.00000   0.00000  -0.00170
  55        6D+2       -0.00000   0.00031   0.00010  -0.00000  -0.00000
  56        6D-2       -0.00000  -0.00000   0.00000   0.00000   0.00000
                          51        52        53        54        55
  51        5PZ         0.00034
  52        6D 0       -0.00013   0.00110
  53        6D+1        0.00000   0.00000   0.00100
  54        6D-1        0.00000   0.00000   0.00000   0.00075
  55        6D+2        0.00004   0.00002  -0.00000   0.00000   0.00002
  56        6D-2        0.00000   0.00000  -0.00000   0.00000   0.00000
                          56
  56        6D-2        0.00000
          Condensed to atoms (all electrons):
               1          2          3          4
     1  C    4.873567   0.375475   0.375475   0.376341
     2  H    0.375475   0.634976  -0.088092  -0.055210
     3  H    0.375475  -0.088092   0.634976  -0.055210
     4  O    0.376341  -0.055210  -0.055210   7.998921
 Mulliken charges:
               1
     1  C   -0.000859
     2  H    0.132850
     3  H    0.132850
     4  O   -0.264841
 Sum of Mulliken charges =  -0.00000
 Mulliken charges with hydrogens summed into heavy atoms:
               1
     1  C    0.264841
     4  O   -0.264841
 Electronic spatial extent (au):  <R**2>=             64.4008
 Charge=             -0.0000 electrons
 Dipole moment (field-independent basis, Debye):
    X=             -0.0000    Y=              0.0000    Z=             -2.8570  Tot=              2.8570
 Quadrupole moment (field-independent basis, Debye-Ang):
   XX=            -12.0073   YY=            -11.7315   ZZ=            -12.2042
   XY=              0.0000   XZ=              0.0000   YZ=             -0.0000
 Traceless Quadrupole moment (field-independent basis, Debye-Ang):
   XX=             -0.0263   YY=              0.2495   ZZ=             -0.2232
   XY=              0.0000   XZ=              0.0000   YZ=             -0.0000
 Octapole moment (field-independent basis, Debye-Ang**2):
  XXX=              0.0000  YYY=              0.0000  ZZZ=             -0.4802  XYY=             -0.0000
  XXY=              0.0000  XXZ=              0.6084  XZZ=             -0.0000  YZZ=             -0.0000
  YYZ=             -1.0435  XYZ=             -0.0000
 Hexadecapole moment (field-independent basis, Debye-Ang**3):
 XXXX=            -11.3061 YYYY=            -18.6237 ZZZZ=            -50.4585 XXXY=             -0.0000
 XXXZ=             -0.0000 YYYX=             -0.0000 YYYZ=             -0.0000 ZZZX=             -0.0000
 ZZZY=              0.0000 XXYY=             -5.3363 XXZZ=            -10.4111 YYZZ=            -10.9649
 XXYZ=              0.0000 YYXZ=              0.0000 ZZXY=              0.0000
 N-N= 2.973084374163D+01 E-N=-3.283202295047D+02  KE= 1.138453949796D+02
 Symmetry A1   KE= 1.034211040852D+02
 Symmetry A2   KE= 1.584702432475D-35
 Symmetry B1   KE= 3.638645551188D+00
 Symmetry B2   KE= 6.785645343231D+00
 Leave Link  601 at Fri Sep 17 10:52:47 2021, MaxMem=   268435456 cpu:               0.0 elap:               0.0
 (Enter /software/gaussian/g16-a03/l9999.exe)
 Electronic transition elements 
                 1             2             3             4             5 
      1  -0.114405D+03 -0.114277D+03 -0.114249D+03 -0.114239D+03 -0.114233D+03
      2   0.000000D+00  0.000000D+00  0.000000D+00  0.000000D+00  0.792831D-01
      3   0.000000D+00  0.346697D+00  0.385139D+00  0.000000D+00  0.000000D+00
      4   0.000000D+00  0.000000D+00  0.000000D+00 -0.422192D+00  0.000000D+00
      5   0.000000D+00  0.000000D+00  0.000000D+00  0.000000D+00 -0.373059D-01
      6   0.000000D+00 -0.902524D-01 -0.113194D+00  0.000000D+00  0.000000D+00
      7   0.000000D+00  0.000000D+00  0.000000D+00  0.121134D+00  0.000000D+00
      8   0.000000D+00 -0.408314D+00  0.654298D+00  0.000000D+00  0.000000D+00
      9   0.000000D+00  0.000000D+00  0.000000D+00  0.000000D+00 -0.159725D+01
     10   0.118034D+01  0.000000D+00  0.000000D+00  0.000000D+00  0.000000D+00
     11   0.000000D+00  0.000000D+00  0.000000D+00 -0.217979D-01  0.000000D+00
     12   0.000000D+00  0.000000D+00  0.000000D+00 -0.259688D+00  0.000000D+00
     13   0.000000D+00  0.000000D+00  0.000000D+00 -0.269320D+00  0.000000D+00
     14  -0.779273D-01  0.000000D+00  0.000000D+00  0.000000D+00  0.000000D+00
     15   0.000000D+00  0.000000D+00  0.000000D+00  0.000000D+00 -0.305346D+00
     16   0.000000D+00  0.462575D+00 -0.405938D-01  0.000000D+00  0.000000D+00
                 6             7             8             9            10 
      1  -0.114224D+03 -0.114220D+03 -0.114192D+03 -0.114176D+03 -0.114153D+03
      2   0.000000D+00  0.000000D+00  0.000000D+00 -0.409531D+00  0.000000D+00
      3   0.000000D+00  0.000000D+00  0.000000D+00  0.000000D+00  0.551132D+00
      4   0.867859D+00  0.000000D+00  0.000000D+00  0.000000D+00  0.000000D+00
      5   0.000000D+00  0.000000D+00  0.000000D+00  0.149677D+00  0.000000D+00
      6   0.000000D+00  0.000000D+00  0.000000D+00  0.000000D+00 -0.207663D+00
      7  -0.255421D+00  0.000000D+00  0.000000D+00  0.000000D+00  0.000000D+00
      8   0.000000D+00  0.000000D+00  0.000000D+00  0.000000D+00 -0.775926D+00
      9   0.000000D+00  0.000000D+00  0.000000D+00  0.190493D-02  0.000000D+00
     10   0.000000D+00 -0.354120D-01 -0.751120D+00  0.000000D+00  0.000000D+00
     11   0.213330D+00  0.000000D+00  0.000000D+00  0.000000D+00  0.000000D+00
     12  -0.930024D-02  0.000000D+00  0.000000D+00  0.000000D+00  0.000000D+00
     13  -0.167052D+00  0.000000D+00  0.000000D+00  0.000000D+00  0.000000D+00
     14   0.000000D+00 -0.499633D-01  0.209219D+00  0.000000D+00  0.000000D+00
     15   0.000000D+00  0.000000D+00  0.000000D+00 -0.138504D+00  0.000000D+00
     16   0.000000D+00  0.000000D+00  0.000000D+00  0.000000D+00  0.471454D+00
                11            12            13            14            15 
      1  -0.114145D+03 -0.114139D+03 -0.114114D+03 -0.114110D+03 -0.114108D+03
      2   0.461260D+00  0.000000D+00  0.000000D+00  0.000000D+00  0.000000D+00
      3   0.000000D+00  0.000000D+00  0.000000D+00  0.000000D+00 -0.563776D-01
      4   0.000000D+00  0.000000D+00 -0.201140D+00 -0.807613D-01  0.000000D+00
      5  -0.186019D+00  0.000000D+00  0.000000D+00  0.000000D+00  0.000000D+00
      6   0.000000D+00  0.000000D+00  0.000000D+00  0.000000D+00  0.259502D-02
      7   0.000000D+00  0.000000D+00  0.892152D-01  0.334212D-01  0.000000D+00
      8   0.000000D+00  0.000000D+00  0.000000D+00  0.000000D+00  0.495901D+00
      9   0.101735D+00  0.000000D+00  0.000000D+00  0.000000D+00  0.000000D+00
     10   0.000000D+00  0.364112D-01  0.000000D+00  0.000000D+00  0.000000D+00
     11   0.000000D+00  0.000000D+00  0.697422D+00  0.249786D+00  0.000000D+00
     12   0.000000D+00  0.000000D+00 -0.150386D-01 -0.130248D+00  0.000000D+00
     13   0.000000D+00  0.000000D+00 -0.662418D-01  0.144789D+00  0.000000D+00
     14   0.000000D+00  0.281888D+00  0.000000D+00  0.000000D+00  0.000000D+00
     15  -0.285396D+00  0.000000D+00  0.000000D+00  0.000000D+00  0.000000D+00
     16   0.000000D+00  0.000000D+00  0.000000D+00  0.000000D+00  0.334950D+00
                16            17            18            19            20 
      1  -0.114089D+03 -0.114078D+03 -0.114078D+03 -0.114072D+03 -0.114070D+03
      2   0.000000D+00  0.000000D+00  0.000000D+00  0.000000D+00  0.000000D+00
      3   0.000000D+00  0.000000D+00  0.000000D+00 -0.374168D+00 -0.593062D+00
      4  -0.493396D+00  0.103693D+01  0.000000D+00  0.000000D+00  0.000000D+00
      5   0.000000D+00  0.000000D+00  0.000000D+00  0.000000D+00  0.000000D+00
      6   0.000000D+00  0.000000D+00  0.000000D+00  0.169455D+00  0.271204D+00
      7   0.209920D+00 -0.477587D+00  0.000000D+00  0.000000D+00  0.000000D+00
      8   0.000000D+00  0.000000D+00  0.000000D+00 -0.192331D+00  0.358676D+00
      9   0.000000D+00  0.000000D+00  0.000000D+00  0.000000D+00  0.000000D+00
     10   0.000000D+00  0.000000D+00 -0.170773D-01  0.000000D+00  0.000000D+00
     11  -0.285107D+00 -0.566037D-01  0.000000D+00  0.000000D+00  0.000000D+00
     12  -0.683292D+00  0.275721D+00  0.000000D+00  0.000000D+00  0.000000D+00
     13  -0.653399D+00  0.363880D+00  0.000000D+00  0.000000D+00  0.000000D+00
     14   0.000000D+00  0.000000D+00  0.346855D+00  0.000000D+00  0.000000D+00
     15   0.000000D+00  0.000000D+00  0.000000D+00  0.000000D+00  0.000000D+00
     16   0.000000D+00  0.000000D+00  0.000000D+00 -0.240088D+00 -0.669849D+00
                21            22            23            24            25 
      1  -0.114061D+03 -0.114053D+03 -0.114050D+03 -0.114048D+03 -0.114036D+03
      2   0.260123D+00 -0.206194D+00  0.000000D+00  0.000000D+00  0.000000D+00
      3   0.000000D+00  0.000000D+00  0.000000D+00 -0.100561D+00  0.322726D+00
      4   0.000000D+00  0.000000D+00 -0.481807D+00  0.000000D+00  0.000000D+00
      5  -0.101008D+00  0.938509D-01  0.000000D+00  0.000000D+00  0.000000D+00
      6   0.000000D+00  0.000000D+00  0.000000D+00  0.496126D-01 -0.161286D+00
      7   0.000000D+00  0.000000D+00  0.223317D+00  0.000000D+00  0.000000D+00
      8   0.000000D+00  0.000000D+00  0.000000D+00 -0.512660D+00 -0.554329D+00
      9  -0.119629D+00  0.290626D+00  0.000000D+00  0.000000D+00  0.000000D+00
     10   0.000000D+00  0.000000D+00  0.000000D+00  0.000000D+00  0.000000D+00
     11   0.000000D+00  0.000000D+00  0.175415D+00  0.000000D+00  0.000000D+00
     12   0.000000D+00  0.000000D+00  0.514768D+00  0.000000D+00  0.000000D+00
     13   0.000000D+00  0.000000D+00  0.246527D+00  0.000000D+00  0.000000D+00
     14   0.000000D+00  0.000000D+00  0.000000D+00  0.000000D+00  0.000000D+00
     15   0.597338D-01 -0.131735D-01  0.000000D+00  0.000000D+00  0.000000D+00
     16   0.000000D+00  0.000000D+00  0.000000D+00  0.147532D+00 -0.277399D+00
                26            27            28            29            30 
      1  -0.114025D+03 -0.114021D+03 -0.114013D+03 -0.114006D+03 -0.113993D+03
      2   0.000000D+00  0.000000D+00  0.000000D+00  0.101543D-01  0.000000D+00
      3   0.000000D+00  0.000000D+00  0.000000D+00  0.000000D+00  0.000000D+00
      4   0.000000D+00  0.113474D+00  0.000000D+00  0.000000D+00  0.289397D+00
      5   0.000000D+00  0.000000D+00  0.000000D+00  0.142350D-02  0.000000D+00
      6   0.000000D+00  0.000000D+00  0.000000D+00  0.000000D+00  0.000000D+00
      7   0.000000D+00 -0.509311D-01  0.000000D+00  0.000000D+00 -0.154475D+00
      8   0.000000D+00  0.000000D+00  0.000000D+00  0.000000D+00  0.000000D+00
      9   0.000000D+00  0.000000D+00  0.000000D+00 -0.134225D+00  0.000000D+00
     10  -0.170108D-01  0.000000D+00  0.336640D-01  0.000000D+00  0.000000D+00
     11   0.000000D+00  0.327404D+00  0.000000D+00  0.000000D+00 -0.183690D+00
     12   0.000000D+00  0.108867D+01  0.000000D+00  0.000000D+00  0.450154D+00
     13   0.000000D+00  0.267864D+00  0.000000D+00  0.000000D+00 -0.152655D+00
     14  -0.252188D+00  0.000000D+00  0.317139D+00  0.000000D+00  0.000000D+00
     15   0.000000D+00  0.000000D+00  0.000000D+00  0.406128D-01  0.000000D+00
     16   0.000000D+00  0.000000D+00  0.000000D+00  0.000000D+00  0.000000D+00

 Test job not archived.
 1\1\GINC-BHD0014\SP\RB3LYP TD-FC\6-311+G(d,p)\C1H2O1\BWEIGHT\17-Sep-20
 21\0\\#p B3LYP/6-311+G** #p TD=(singlets,nstates=30)IOp(6/8=3) IOp(9/4
 0=4)\\Scan Step 158, Bond Length 1.29\\0,1\C,0,0.,0.,-0.52736\H,0,0.,0
 .93726,-1.11871\H,0,0.,-0.93726,-1.11871\O,0,0.,0.,0.76264\\Version=ES
 64L-G16RevA.03\State=1-A1\HF=-114.5315858\RMSD=3.643e-09\PG=C02V [C2(C
 1O1),SGV(H2)]\\@


 IT IS BY EATING THE LIGHT OF A STAR THAT WE EXIST, 
 IN THE FINAL ANALYSIS, 
 JUST AS IT IS BY PERCEIVING THE LIGHT OF STARS
 THAT WE DEFINE THE WORLD AROUND US.

                                    -- GILBERT GROSVENOR
 Job cpu time:       0 days  0 hours  0 minutes 25.8 seconds.
 Elapsed time:       0 days  0 hours  0 minutes 26.2 seconds.
 File lengths (MBytes):  RWF=     79 Int=      0 D2E=      0 Chk=     32 Scr=      1
 Normal termination of Gaussian 16 at Fri Sep 17 10:52:47 2021.
