 Entering Gaussian System, Link 0=g16
 Initial command:
 /software/gaussian/g16-c01/sse4/g16/l1.exe "/local_scratch/24657421/Gau-4941.inp" -scrdir="/local_scratch/24657421/"
 Entering Link 1 = /software/gaussian/g16-c01/sse4/g16/l1.exe PID=      4942.
  
 Copyright (c) 1988-2019, Gaussian, Inc.  All Rights Reserved.
  
 This is part of the Gaussian(R) 16 program.  It is based on
 the Gaussian(R) 09 system (copyright 2009, Gaussian, Inc.),
 the Gaussian(R) 03 system (copyright 2003, Gaussian, Inc.),
 the Gaussian(R) 98 system (copyright 1998, Gaussian, Inc.),
 the Gaussian(R) 94 system (copyright 1995, Gaussian, Inc.),
 the Gaussian 92(TM) system (copyright 1992, Gaussian, Inc.),
 the Gaussian 90(TM) system (copyright 1990, Gaussian, Inc.),
 the Gaussian 88(TM) system (copyright 1988, Gaussian, Inc.),
 the Gaussian 86(TM) system (copyright 1986, Carnegie Mellon
 University), and the Gaussian 82(TM) system (copyright 1983,
 Carnegie Mellon University). Gaussian is a federally registered
 trademark of Gaussian, Inc.
  
 This software contains proprietary and confidential information,
 including trade secrets, belonging to Gaussian, Inc.
  
 This software is provided under written license and may be
 used, copied, transmitted, or stored only in accord with that
 written license.
  
 The following legend is applicable only to US Government
 contracts under FAR:
  
                    RESTRICTED RIGHTS LEGEND
  
 Use, reproduction and disclosure by the US Government is
 subject to restrictions as set forth in subparagraphs (a)
 and (c) of the Commercial Computer Software - Restricted
 Rights clause in FAR 52.227-19.
  
 Gaussian, Inc.
 340 Quinnipiac St., Bldg. 40, Wallingford CT 06492
  
  
 ---------------------------------------------------------------
 Warning -- This program may not be used in any manner that
 competes with the business of Gaussian, Inc. or will provide
 assistance to any competitor of Gaussian, Inc.  The licensee
 of this program is prohibited from giving any competitor of
 Gaussian, Inc. access to this program.  By using this program,
 the user acknowledges that Gaussian, Inc. is engaged in the
 business of creating and licensing software in the field of
 computational chemistry and represents and warrants to the
 licensee that it is not a competitor of Gaussian, Inc. and that
 it will not use this program in any manner prohibited above.
 ---------------------------------------------------------------
  

 Cite this work as:
 Gaussian 16, Revision C.01,
 M. J. Frisch, G. W. Trucks, H. B. Schlegel, G. E. Scuseria, 
 M. A. Robb, J. R. Cheeseman, G. Scalmani, V. Barone, 
 G. A. Petersson, H. Nakatsuji, X. Li, M. Caricato, A. V. Marenich, 
 J. Bloino, B. G. Janesko, R. Gomperts, B. Mennucci, H. P. Hratchian, 
 J. V. Ortiz, A. F. Izmaylov, J. L. Sonnenberg, D. Williams-Young, 
 F. Ding, F. Lipparini, F. Egidi, J. Goings, B. Peng, A. Petrone, 
 T. Henderson, D. Ranasinghe, V. G. Zakrzewski, J. Gao, N. Rega, 
 G. Zheng, W. Liang, M. Hada, M. Ehara, K. Toyota, R. Fukuda, 
 J. Hasegawa, M. Ishida, T. Nakajima, Y. Honda, O. Kitao, H. Nakai, 
 T. Vreven, K. Throssell, J. A. Montgomery, Jr., J. E. Peralta, 
 F. Ogliaro, M. J. Bearpark, J. J. Heyd, E. N. Brothers, K. N. Kudin, 
 V. N. Staroverov, T. A. Keith, R. Kobayashi, J. Normand, 
 K. Raghavachari, A. P. Rendell, J. C. Burant, S. S. Iyengar, 
 J. Tomasi, M. Cossi, J. M. Millam, M. Klene, C. Adamo, R. Cammi, 
 J. W. Ochterski, R. L. Martin, K. Morokuma, O. Farkas, 
 J. B. Foresman, and D. J. Fox, Gaussian, Inc., Wallingford CT, 2019.
 
 ******************************************
 Gaussian 16:  ES64L-G16RevC.01  3-Jul-2019
                 1-May-2024 
 ******************************************
 %chk=geometry.chk
 %mem=9GB
 %nprocshared=12
 Will use up to   12 processors via shared memory.
 ----------------------------------------
 #P wB97XD/6-311+G* NoSymm #P Field=X-194
 ----------------------------------------
 1/38=1,172=1/1;
 2/12=2,15=1,17=6,18=5,40=1/2;
 3/5=4,6=6,7=11,11=2,14=1,15=-194,25=1,30=1,74=-58/1,2,3;
 4//1;
 5/5=2,38=5/2;
 6/7=2,8=2,9=2,10=2,28=1/1;
 99/5=1,9=1/99;
 Leave Link    1 at Wed May  1 14:27:45 2024, MaxMem=  1207959552 cpu:               2.1 elap:               2.1
 (Enter /software/gaussian/g16-c01/sse4/g16/l101.exe)
 -------
 TitleMe
 -------
 Symbolic Z-matrix:
 Charge =  1 Multiplicity = 1
 C                     0.0295    1.3397    0.0682 
 C                     1.4348    1.2867    0.0064 
 C                     2.1118    0.0511   -0.0054 
 C                     1.4451   -1.1372    0.0312 
 C                    -0.6879    0.1682    0.11 
 H                    -0.4713    2.2984    0.0781 
 H                     2.0273    2.1965   -0.0322 
 H                     1.9897   -2.0764    0.0232 
 H                    -1.7716    0.1804    0.1582 
 N                     3.5864    0.051    -0.0675 
 O                     4.1471   -1.0597   -0.0881 
 O                     4.145     1.1639   -0.0901 
 C                    -0.0236   -1.1458    0.0835 
 H                    -0.4367   -1.8725    0.7889 
 Br                   -0.5359   -1.8697   -1.7408 
 
 ITRead=  0  0  0  0  0  0  0  0  0  0  0  0  0  0  0
 MicOpt= -1 -1 -1 -1 -1 -1 -1 -1 -1 -1 -1 -1 -1 -1 -1
 NAtoms=     15 NQM=       15 NQMF=       0 NMMI=      0 NMMIF=      0
                NMic=       0 NMicF=      0.
                    Isotopes and Nuclear Properties:
 (Nuclear quadrupole moments (NQMom) in fm**2, nuclear magnetic moments (NMagM)
  in nuclear magnetons)

  Atom         1           2           3           4           5           6           7           8           9          10
 IAtWgt=          12          12          12          12          12           1           1           1           1          14
 AtmWgt=  12.0000000  12.0000000  12.0000000  12.0000000  12.0000000   1.0078250   1.0078250   1.0078250   1.0078250  14.0030740
 NucSpn=           0           0           0           0           0           1           1           1           1           2
 AtZEff=  -0.0000000  -0.0000000  -0.0000000  -0.0000000  -0.0000000  -0.0000000  -0.0000000  -0.0000000  -0.0000000  -0.0000000
 NQMom=    0.0000000   0.0000000   0.0000000   0.0000000   0.0000000   0.0000000   0.0000000   0.0000000   0.0000000   2.0440000
 NMagM=    0.0000000   0.0000000   0.0000000   0.0000000   0.0000000   2.7928460   2.7928460   2.7928460   2.7928460   0.4037610
 AtZNuc=   6.0000000   6.0000000   6.0000000   6.0000000   6.0000000   1.0000000   1.0000000   1.0000000   1.0000000   7.0000000

  Atom        11          12          13          14          15
 IAtWgt=          16          16          12           1          79
 AtmWgt=  15.9949146  15.9949146  12.0000000   1.0078250  78.9183361
 NucSpn=           0           0           0           1           3
 AtZEff=  -0.0000000  -0.0000000  -0.0000000  -0.0000000  -0.0000000
 NQMom=    0.0000000   0.0000000   0.0000000   0.0000000  31.3000000
 NMagM=    0.0000000   0.0000000   0.0000000   2.7928460   2.1063990
 AtZNuc=   8.0000000   8.0000000   6.0000000   1.0000000  35.0000000
 Leave Link  101 at Wed May  1 14:27:46 2024, MaxMem=  1207959552 cpu:               1.3 elap:               1.3
 (Enter /software/gaussian/g16-c01/sse4/g16/l202.exe)
                          Input orientation:                          
 ---------------------------------------------------------------------
 Center     Atomic      Atomic             Coordinates (Angstroms)
 Number     Number       Type             X           Y           Z
 ---------------------------------------------------------------------
      1          6           0        0.029500    1.339700    0.068200
      2          6           0        1.434800    1.286700    0.006400
      3          6           0        2.111800    0.051100   -0.005400
      4          6           0        1.445100   -1.137200    0.031200
      5          6           0       -0.687900    0.168200    0.110000
      6          1           0       -0.471300    2.298400    0.078100
      7          1           0        2.027300    2.196500   -0.032200
      8          1           0        1.989700   -2.076400    0.023200
      9          1           0       -1.771600    0.180400    0.158200
     10          7           0        3.586400    0.051000   -0.067500
     11          8           0        4.147100   -1.059700   -0.088100
     12          8           0        4.145000    1.163900   -0.090100
     13          6           0       -0.023600   -1.145800    0.083500
     14          1           0       -0.436700   -1.872500    0.788900
     15         35           0       -0.535900   -1.869700   -1.740800
 ---------------------------------------------------------------------
                    Distance matrix (angstroms):
                    1          2          3          4          5
     1  C    0.000000
     2  C    1.407656   0.000000
     3  C    2.449874   1.408963   0.000000
     4  C    2.853126   2.424049   1.363043   0.000000
     5  C    1.374344   2.401589   2.804523   2.501993   0.000000
     6  H    1.081667   2.159142   3.424870   3.934226   2.141421
     7  H    2.176095   1.086408   2.147231   3.384750   3.392128
     8  H    3.938800   3.408612   2.131193   1.085702   3.495040
     9  H    2.143837   3.395283   3.888995   3.478413   1.084840
    10  N    3.785591   2.482297   1.475907   2.450862   4.279589
    11  O    4.768247   3.587631   2.320164   2.705743   4.992415
    12  O    4.122294   2.714696   2.319353   3.549540   4.938459
    13  C    2.486114   2.837240   2.449573   1.469656   1.472614
    14  H    3.324903   3.754379   3.290289   2.157764   2.165286
    15  Br   3.727252   4.110867   3.702891   2.756973   2.757100
                    6          7          8          9         10
     6  H    0.000000
     7  H    2.503108   0.000000
     8  H    5.019802   4.273425   0.000000
     9  H    2.486588   4.304945   4.388479   0.000000
    10  N    4.640790   2.652397   2.661486   5.364313   0.000000
    11  O    5.712624   3.885809   2.387560   6.052233   1.244373
    12  O    4.756638   2.356750   3.893289   6.002923   1.245428
    13  C    3.473180   3.923079   2.218790   2.195425   3.806210
    14  H    4.231175   4.827242   2.552506   2.528663   4.540772
    15  Br   4.548146   5.101303   3.087568   3.055498   4.845862
                   11         12         13         14         15
    11  O    0.000000
    12  O    2.223602   0.000000
    13  C    4.175117   4.768865   0.000000
    14  H    4.737193   5.566358   1.093770   0.000000
    15  Br   5.031700   5.817075   2.028436   2.531646   0.000000
 Symmetry turned off by external request.
 Stoichiometry    C6H5BrNO2(1+)
 Framework group  C1[X(C6H5BrNO2)]
 Deg. of freedom    39
 Full point group                 C1      NOp   1
 Rotational constants (GHZ):           1.8252210           0.5518633           0.4576002
 Leave Link  202 at Wed May  1 14:27:47 2024, MaxMem=  1207959552 cpu:               1.2 elap:               1.2
 (Enter /software/gaussian/g16-c01/sse4/g16/l301.exe)
 Standard basis: 6-311+G(d) (5D, 7F)
 Ernie: Thresh=  0.10000D-02 Tol=  0.10000D-05 Strict=F.
 The following finite field(s) will be applied:
 An electric field of             -0.0194  0.0000  0.0000
   261 basis functions,   443 primitive gaussians,   273 cartesian basis functions
    49 alpha electrons       49 beta electrons
       nuclear repulsion energy       739.2122215416 Hartrees.
 IExCor= 4639 DFT=T Ex+Corr=wB97XD ExCW=0 ScaHFX=  1.000000
 ScaDFX=  1.000000  1.000000  1.000000  1.000000 ScalE2=  1.000000  1.000000
 IRadAn=      5 IRanWt=     -1 IRanGd=            0 ICorTp=0 IEmpDi=121
 HFx  wShort=  0.000000 wLong=  0.200000 cFull=  0.222036 cShort=  0.000000 cLong=  0.777964
 DFx  wShort=  0.000000 wLong=  0.200000 cFull=  0.000000 cShort=  0.000000 cLong=  1.000000
 NAtoms=   15 NActive=   15 NUniq=   15 SFac= 1.00D+00 NAtFMM=   60 NAOKFM=F Big=F
 Integral buffers will be    131072 words long.
 Raffenetti 2 integral format.
 Two-electron integral symmetry is turned off.
 R6Disp:  Grimme-D2 Dispersion energy=       -0.0077368520 Hartrees.
 Nuclear repulsion after empirical dispersion term =      739.2044846896 Hartrees.
 Leave Link  301 at Wed May  1 14:27:48 2024, MaxMem=  1207959552 cpu:               1.0 elap:               1.0
 (Enter /software/gaussian/g16-c01/sse4/g16/l302.exe)
 NPDir=0 NMtPBC=     1 NCelOv=     1 NCel=       1 NClECP=     1 NCelD=      1
         NCelK=      1 NCelE2=     1 NClLst=     1 CellRange=     0.0.
 One-electron integrals computed using PRISM.
 NBasis=   261 RedAO= T EigKep=  2.35D-06  NBF=   261
 NBsUse=   261 1.00D-06 EigRej= -1.00D+00 NBFU=   261
 Precomputing XC quadrature grid using
 IXCGrd= 4 IRadAn=           5 IRanWt=          -1 IRanGd=           0 AccXCQ= 0.00D+00.
 Generated NRdTot=       0 NPtTot=           0 NUsed=           0 NTot=          32
 NSgBfM=   273   273   273   273   273 MxSgAt=    15 MxSgA2=    15.
 Leave Link  302 at Wed May  1 14:28:10 2024, MaxMem=  1207959552 cpu:              22.0 elap:              22.0
 (Enter /software/gaussian/g16-c01/sse4/g16/l303.exe)
 DipDrv:  MaxL=1.
 The nuclear repulsion energy is now       735.5427896278 hartrees.
 Leave Link  303 at Wed May  1 14:28:13 2024, MaxMem=  1207959552 cpu:               3.3 elap:               3.3
 (Enter /software/gaussian/g16-c01/sse4/g16/l401.exe)
 ExpMin= 3.50D-02 ExpMax= 4.40D+05 ExpMxC= 1.51D+04 IAcc=3 IRadAn=         5 AccDes= 0.00D+00
 Harris functional with IExCor= 4639 and IRadAn=       5 diagonalized for initial guess.
 HarFok:  IExCor= 4639 AccDes= 0.00D+00 IRadAn=         5 IDoV= 1 UseB2=F ITyADJ=14
 ICtDFT=  3500011 ScaDFX=  1.000000  1.000000  1.000000  1.000000
 FoFCou: FMM=F IPFlag=           0 FMFlag=      100000 FMFlg1=           0
         NFxFlg=           0 DoJE=T BraDBF=F KetDBF=T FulRan=T
         wScrn=  0.000000 ICntrl=       500 IOpCl=  0 I1Cent=   200000004 NGrid=           0
         NMat0=    1 NMatS0=      1 NMatT0=    0 NMatD0=    1 NMtDS0=    0 NMtDT0=    0
 Symmetry not used in FoFCou.
 Harris En= -2971.07120298606    
 JPrj=0 DoOrth=F DoCkMO=F.
 Leave Link  401 at Wed May  1 14:28:45 2024, MaxMem=  1207959552 cpu:              31.1 elap:              31.1
 (Enter /software/gaussian/g16-c01/sse4/g16/l502.exe)
 Two-electron integral symmetry not used.
 Closed shell SCF:
 Using DIIS extrapolation, IDIIS=  1040.
 NGot=  1207959552 LenX=  1207804877 LenY=  1207729907
 Requested convergence on RMS density matrix=1.00D-08 within 128 cycles.
 Requested convergence on MAX density matrix=1.00D-06.
 Requested convergence on             energy=1.00D-06.
 No special actions if energy rises.
 Fock matrices will be formed incrementally for  20 cycles.

 Cycle   1  Pass 1  IDiag  1:
 FoFJK:  IHMeth= 1 ICntrl=       0 DoSepK=T KAlg= 0 I1Cent=           0 FoldK=F
 IRaf=         1 NMat=       1 IRICut=       1 DoRegI=T DoRafI=F ISym2E= 0 IDoP0=0 IntGTp=1.
 FoFCou: FMM=F IPFlag=           0 FMFlag=      100000 FMFlg1=           0
         NFxFlg=           0 DoJE=T BraDBF=F KetDBF=F FulRan=T
         wScrn=  0.000000 ICntrl=       500 IOpCl=  0 I1Cent=           0 NGrid=           0
         NMat0=    1 NMatS0=      1 NMatT0=    0 NMatD0=    1 NMtDS0=    0 NMtDT0=    0
 Symmetry not used in FoFCou.
 E= -3001.38541374499    
 DIIS: error= 3.19D-01 at cycle   1 NSaved=   1.
 NSaved= 1 IEnMin= 1 EnMin= -3001.38541374499     IErMin= 1 ErrMin= 3.19D-01
 ErrMax= 3.19D-01  0.00D+00 EMaxC= 1.00D-01 BMatC= 1.43D+01 BMatP= 1.43D+01
 IDIUse=3 WtCom= 0.00D+00 WtEn= 1.00D+00
 Coeff-Com:  0.100D+01
 Coeff-En:   0.100D+01
 Coeff:      0.100D+01
 Gap=     0.051 Goal=   None    Shift=    0.000
 GapD=    0.051 DampG=0.500 DampE=0.250 DampFc=0.2500 IDamp=-1.
 Damping current iteration by 2.50D-01
 RMSDP=9.04D+00 MaxDP=8.91D+02              OVMax= 9.95D-01

 Cycle   2  Pass 1  IDiag  1:
 RMSU=  2.05D-01    CP:  7.58D-01
 E= -3002.25782155202     Delta-E=       -0.872407807028 Rises=F Damp=T
 DIIS: error= 2.23D-01 at cycle   2 NSaved=   2.
 NSaved= 2 IEnMin= 2 EnMin= -3002.25782155202     IErMin= 2 ErrMin= 2.23D-01
 ErrMax= 2.23D-01  0.00D+00 EMaxC= 1.00D-01 BMatC= 6.33D+00 BMatP= 1.43D+01
 IDIUse=3 WtCom= 0.00D+00 WtEn= 1.00D+00
 Coeff-Com: -0.326D+00 0.133D+01
 Coeff-En:   0.450D+00 0.550D+00
 Coeff:      0.450D+00 0.550D+00
 Gap=     0.566 Goal=   None    Shift=    0.000
 RMSDP=6.99D+00 MaxDP=6.73D+02 DE=-8.72D-01 OVMax= 9.77D-01

 Cycle   3  Pass 1  IDiag  1:
 RMSU=  6.33D-02    CP:  4.70D-03  2.29D-01
 E= -2998.90539948970     Delta-E=        3.352422062323 Rises=F Damp=F
 DIIS: error= 1.42D-01 at cycle   3 NSaved=   3.
 NSaved= 3 IEnMin= 2 EnMin= -3002.25782155202     IErMin= 3 ErrMin= 1.42D-01
 ErrMax= 1.42D-01  0.00D+00 EMaxC= 1.00D-01 BMatC= 8.16D+00 BMatP= 6.33D+00
 IDIUse=2 WtCom= 0.00D+00 WtEn= 1.00D+00
 EnCoef did   100 forward-backward iterations
 Coeff-En:   0.539D+00 0.807D-02 0.453D+00
 Coeff:      0.539D+00 0.807D-02 0.453D+00
 Gap=    -0.214 Goal=   None    Shift=    0.000
 RMSDP=2.82D-02 MaxDP=1.76D+00 DE= 3.35D+00 OVMax= 7.84D-01

 Cycle   4  Pass 1  IDiag  1:
 RMSU=  2.58D-02    CP:  4.85D-03  1.85D-01  8.95D-01
 E= -3009.71485000299     Delta-E=      -10.809450513289 Rises=F Damp=F
 DIIS: error= 5.98D-02 at cycle   4 NSaved=   4.
 NSaved= 4 IEnMin= 4 EnMin= -3009.71485000299     IErMin= 4 ErrMin= 5.98D-02
 ErrMax= 5.98D-02  0.00D+00 EMaxC= 1.00D-01 BMatC= 1.14D+00 BMatP= 6.33D+00
 IDIUse=3 WtCom= 4.02D-01 WtEn= 5.98D-01
 Coeff-Com:  0.138D+00 0.537D-01 0.760D-01 0.733D+00
 Coeff-En:   0.385D-01 0.000D+00 0.000D+00 0.962D+00
 Coeff:      0.783D-01 0.216D-01 0.305D-01 0.870D+00
 Gap=     0.383 Goal=   None    Shift=    0.000
 RMSDP=3.85D-02 MaxDP=2.41D+00 DE=-1.08D+01 OVMax= 6.70D-01

 Cycle   5  Pass 1  IDiag  1:
 RMSU=  3.51D-02    CP:  4.80D-03  1.70D-01  6.55D-01  9.22D-01
 E= -3008.76507424260     Delta-E=        0.949775760388 Rises=F Damp=F
 DIIS: error= 6.96D-02 at cycle   5 NSaved=   5.
 NSaved= 5 IEnMin= 4 EnMin= -3009.71485000299     IErMin= 4 ErrMin= 5.98D-02
 ErrMax= 6.96D-02  0.00D+00 EMaxC= 1.00D-01 BMatC= 1.71D+00 BMatP= 1.14D+00
 IDIUse=2 WtCom= 0.00D+00 WtEn= 1.00D+00
 Coeff-En:   0.000D+00 0.000D+00 0.000D+00 0.675D+00 0.325D+00
 Coeff:      0.000D+00 0.000D+00 0.000D+00 0.675D+00 0.325D+00
 Gap=     0.071 Goal=   None    Shift=    0.000
 RMSDP=2.57D-02 MaxDP=2.79D+00 DE= 9.50D-01 OVMax= 8.66D-01

 Cycle   6  Pass 1  IDiag  1:
 RMSU=  1.64D-02    CP:  5.05D-03  1.29D-01  5.19D-01  8.30D-01  5.65D-01
 E= -3010.37976810824     Delta-E=       -1.614693865638 Rises=F Damp=F
 DIIS: error= 2.14D-02 at cycle   6 NSaved=   6.
 NSaved= 6 IEnMin= 6 EnMin= -3010.37976810824     IErMin= 6 ErrMin= 2.14D-02
 ErrMax= 2.14D-02  0.00D+00 EMaxC= 1.00D-01 BMatC= 1.99D-01 BMatP= 1.14D+00
 IDIUse=3 WtCom= 7.86D-01 WtEn= 2.14D-01
 Coeff-Com: -0.147D-01 0.304D-01 0.379D-01 0.253D+00 0.873D-01 0.606D+00
 Coeff-En:   0.000D+00 0.000D+00 0.000D+00 0.000D+00 0.000D+00 0.100D+01
 Coeff:     -0.116D-01 0.239D-01 0.298D-01 0.199D+00 0.687D-01 0.690D+00
 Gap=     0.200 Goal=   None    Shift=    0.000
 RMSDP=1.33D-02 MaxDP=1.13D+00 DE=-1.61D+00 OVMax= 2.98D-01

 Cycle   7  Pass 1  IDiag  1:
 RMSU=  5.66D-03    CP:  4.04D-03  1.24D-01  5.05D-01  6.85D-01  4.10D-01
                    CP:  7.77D-01
 E= -3010.51627645022     Delta-E=       -0.136508341982 Rises=F Damp=F
 DIIS: error= 1.74D-02 at cycle   7 NSaved=   7.
 NSaved= 7 IEnMin= 7 EnMin= -3010.51627645022     IErMin= 7 ErrMin= 1.74D-02
 ErrMax= 1.74D-02  0.00D+00 EMaxC= 1.00D-01 BMatC= 4.22D-02 BMatP= 1.99D-01
 IDIUse=3 WtCom= 8.26D-01 WtEn= 1.74D-01
 Coeff-Com: -0.240D-01 0.280D-01 0.566D-02 0.521D-01 0.259D-01 0.342D+00
 Coeff-Com:  0.570D+00
 Coeff-En:   0.000D+00 0.000D+00 0.000D+00 0.000D+00 0.000D+00 0.307D-01
 Coeff-En:   0.969D+00
 Coeff:     -0.198D-01 0.231D-01 0.467D-02 0.430D-01 0.214D-01 0.288D+00
 Coeff:      0.639D+00
 Gap=     0.151 Goal=   None    Shift=    0.000
 RMSDP=4.79D-03 MaxDP=3.45D-01 DE=-1.37D-01 OVMax= 6.28D-02

 Cycle   8  Pass 1  IDiag  1:
 RMSU=  3.09D-03    CP:  4.33D-03  1.28D-01  5.14D-01  7.44D-01  4.34D-01
                    CP:  8.13D-01  7.51D-01
 E= -3010.53623957278     Delta-E=       -0.019963122560 Rises=F Damp=F
 DIIS: error= 8.41D-03 at cycle   8 NSaved=   8.
 NSaved= 8 IEnMin= 8 EnMin= -3010.53623957278     IErMin= 8 ErrMin= 8.41D-03
 ErrMax= 8.41D-03  0.00D+00 EMaxC= 1.00D-01 BMatC= 1.25D-02 BMatP= 4.22D-02
 IDIUse=3 WtCom= 9.16D-01 WtEn= 8.41D-02
 Coeff-Com: -0.720D-02 0.111D-01-0.245D-02-0.174D-01 0.377D-02 0.276D-04
 Coeff-Com:  0.378D+00 0.634D+00
 Coeff-En:   0.000D+00 0.000D+00 0.000D+00 0.000D+00 0.000D+00 0.000D+00
 Coeff-En:   0.242D+00 0.758D+00
 Coeff:     -0.659D-02 0.102D-01-0.224D-02-0.159D-01 0.345D-02 0.252D-04
 Coeff:      0.366D+00 0.645D+00
 Gap=     0.191 Goal=   None    Shift=    0.000
 RMSDP=2.73D-03 MaxDP=1.70D-01 DE=-2.00D-02 OVMax= 8.37D-02

 Cycle   9  Pass 1  IDiag  1:
 RMSU=  9.97D-04    CP:  4.13D-03  1.27D-01  5.19D-01  7.21D-01  4.12D-01
                    CP:  7.77D-01  8.84D-01  6.90D-01
 E= -3010.54831293317     Delta-E=       -0.012073360389 Rises=F Damp=F
 DIIS: error= 3.45D-03 at cycle   9 NSaved=   9.
 NSaved= 9 IEnMin= 9 EnMin= -3010.54831293317     IErMin= 9 ErrMin= 3.45D-03
 ErrMax= 3.45D-03  0.00D+00 EMaxC= 1.00D-01 BMatC= 1.40D-03 BMatP= 1.25D-02
 IDIUse=3 WtCom= 9.65D-01 WtEn= 3.45D-02
 Coeff-Com: -0.869D-03 0.229D-02-0.244D-02-0.131D-01-0.166D-02-0.339D-01
 Coeff-Com:  0.127D+00 0.368D+00 0.555D+00
 Coeff-En:   0.000D+00 0.000D+00 0.000D+00 0.000D+00 0.000D+00 0.000D+00
 Coeff-En:   0.000D+00 0.000D+00 0.100D+01
 Coeff:     -0.839D-03 0.221D-02-0.236D-02-0.127D-01-0.160D-02-0.328D-01
 Coeff:      0.123D+00 0.355D+00 0.570D+00
 Gap=     0.195 Goal=   None    Shift=    0.000
 RMSDP=6.27D-04 MaxDP=2.63D-02 DE=-1.21D-02 OVMax= 3.21D-02

 Cycle  10  Pass 1  IDiag  1:
 RMSU=  4.21D-04    CP:  4.12D-03  1.27D-01  5.18D-01  7.22D-01  4.10D-01
                    CP:  7.70D-01  8.95D-01  8.27D-01  9.51D-01
 E= -3010.54994115709     Delta-E=       -0.001628223919 Rises=F Damp=F
 DIIS: error= 2.02D-03 at cycle  10 NSaved=  10.
 NSaved=10 IEnMin=10 EnMin= -3010.54994115709     IErMin=10 ErrMin= 2.02D-03
 ErrMax= 2.02D-03  0.00D+00 EMaxC= 1.00D-01 BMatC= 5.04D-04 BMatP= 1.40D-03
 IDIUse=3 WtCom= 9.80D-01 WtEn= 2.02D-02
 Coeff-Com:  0.160D-02-0.233D-02-0.222D-02-0.289D-02-0.155D-02-0.216D-01
 Coeff-Com: -0.149D-01 0.978D-01 0.394D+00 0.552D+00
 Coeff-En:   0.000D+00 0.000D+00 0.000D+00 0.000D+00 0.000D+00 0.000D+00
 Coeff-En:   0.000D+00 0.000D+00 0.000D+00 0.100D+01
 Coeff:      0.157D-02-0.229D-02-0.217D-02-0.283D-02-0.151D-02-0.212D-01
 Coeff:     -0.146D-01 0.959D-01 0.386D+00 0.561D+00
 Gap=     0.192 Goal=   None    Shift=    0.000
 RMSDP=4.60D-04 MaxDP=2.59D-02 DE=-1.63D-03 OVMax= 2.13D-02

 Cycle  11  Pass 1  IDiag  1:
 RMSU=  3.31D-04    CP:  4.13D-03  1.27D-01  5.17D-01  7.25D-01  4.13D-01
                    CP:  7.73D-01  8.85D-01  8.87D-01  1.14D+00  1.07D+00
 E= -3010.55071520924     Delta-E=       -0.000774052155 Rises=F Damp=F
 DIIS: error= 8.09D-04 at cycle  11 NSaved=  11.
 NSaved=11 IEnMin=11 EnMin= -3010.55071520924     IErMin=11 ErrMin= 8.09D-04
 ErrMax= 8.09D-04  0.00D+00 EMaxC= 1.00D-01 BMatC= 1.24D-04 BMatP= 5.04D-04
 IDIUse=3 WtCom= 9.92D-01 WtEn= 8.09D-03
 Coeff-Com:  0.238D-02-0.343D-02-0.689D-03 0.191D-02-0.270D-02 0.315D-02
 Coeff-Com: -0.176D-01-0.608D-03-0.517D-01 0.588D-02 0.106D+01
 Coeff-En:   0.000D+00 0.000D+00 0.000D+00 0.000D+00 0.000D+00 0.000D+00
 Coeff-En:   0.000D+00 0.000D+00 0.000D+00 0.000D+00 0.100D+01
 Coeff:      0.236D-02-0.340D-02-0.684D-03 0.189D-02-0.268D-02 0.313D-02
 Coeff:     -0.175D-01-0.603D-03-0.513D-01 0.583D-02 0.106D+01
 Gap=     0.190 Goal=   None    Shift=    0.000
 RMSDP=3.97D-04 MaxDP=1.72D-02 DE=-7.74D-04 OVMax= 2.18D-02

 Cycle  12  Pass 1  IDiag  1:
 RMSU=  1.50D-04    CP:  4.12D-03  1.27D-01  5.16D-01  7.28D-01  4.13D-01
                    CP:  7.70D-01  8.73D-01  9.47D-01  1.27D+00  1.45D+00
                    CP:  1.53D+00
 E= -3010.55112003875     Delta-E=       -0.000404829504 Rises=F Damp=F
 DIIS: error= 4.88D-04 at cycle  12 NSaved=  12.
 NSaved=12 IEnMin=12 EnMin= -3010.55112003875     IErMin=12 ErrMin= 4.88D-04
 ErrMax= 4.88D-04  0.00D+00 EMaxC= 1.00D-01 BMatC= 6.58D-05 BMatP= 1.24D-04
 IDIUse=3 WtCom= 9.95D-01 WtEn= 4.88D-03
 Coeff-Com:  0.669D-03-0.744D-03-0.516D-03 0.232D-02-0.676D-03 0.138D-01
 Coeff-Com:  0.251D-01-0.466D-02-0.255D+00-0.452D+00 0.346D+00 0.133D+01
 Coeff-En:   0.000D+00 0.000D+00 0.000D+00 0.000D+00 0.000D+00 0.000D+00
 Coeff-En:   0.000D+00 0.000D+00 0.000D+00 0.000D+00 0.000D+00 0.100D+01
 Coeff:      0.666D-03-0.740D-03-0.514D-03 0.231D-02-0.673D-03 0.137D-01
 Coeff:      0.250D-01-0.463D-02-0.254D+00-0.449D+00 0.344D+00 0.132D+01
 Gap=     0.185 Goal=   None    Shift=    0.000
 RMSDP=6.33D-04 MaxDP=2.66D-02 DE=-4.05D-04 OVMax= 2.32D-02

 Cycle  13  Pass 1  IDiag  1:
 RMSU=  1.02D-04    CP:  4.12D-03  1.28D-01  5.12D-01  7.30D-01  4.16D-01
                    CP:  7.72D-01  8.56D-01  1.04D+00  1.34D+00  1.85D+00
                    CP:  2.77D+00  1.83D+00
 E= -3010.55134506774     Delta-E=       -0.000225028997 Rises=F Damp=F
 DIIS: error= 2.44D-04 at cycle  13 NSaved=  13.
 NSaved=13 IEnMin=13 EnMin= -3010.55134506774     IErMin=13 ErrMin= 2.44D-04
 ErrMax= 2.44D-04  0.00D+00 EMaxC= 1.00D-01 BMatC= 5.40D-06 BMatP= 6.58D-05
 IDIUse=3 WtCom= 9.98D-01 WtEn= 2.44D-03
 Coeff-Com:  0.219D-04-0.937D-05-0.222D-03-0.178D-03 0.700D-04 0.250D-02
 Coeff-Com:  0.136D-01 0.106D-01-0.272D-01-0.715D-01-0.140D+00 0.222D+00
 Coeff-Com:  0.991D+00
 Coeff-En:   0.000D+00 0.000D+00 0.000D+00 0.000D+00 0.000D+00 0.000D+00
 Coeff-En:   0.000D+00 0.000D+00 0.000D+00 0.000D+00 0.000D+00 0.000D+00
 Coeff-En:   0.100D+01
 Coeff:      0.218D-04-0.935D-05-0.221D-03-0.178D-03 0.698D-04 0.249D-02
 Coeff:      0.135D-01 0.106D-01-0.271D-01-0.713D-01-0.140D+00 0.221D+00
 Coeff:      0.991D+00
 Gap=     0.184 Goal=   None    Shift=    0.000
 RMSDP=1.15D-04 MaxDP=6.17D-03 DE=-2.25D-04 OVMax= 4.10D-03

 Cycle  14  Pass 1  IDiag  1:
 RMSU=  3.82D-05    CP:  4.12D-03  1.28D-01  5.12D-01  7.31D-01  4.17D-01
                    CP:  7.72D-01  8.51D-01  1.06D+00  1.35D+00  1.92D+00
                    CP:  2.93D+00  2.10D+00  1.05D+00
 E= -3010.55135756822     Delta-E=       -0.000012500481 Rises=F Damp=F
 DIIS: error= 5.67D-05 at cycle  14 NSaved=  14.
 NSaved=14 IEnMin=14 EnMin= -3010.55135756822     IErMin=14 ErrMin= 5.67D-05
 ErrMax= 5.67D-05  0.00D+00 EMaxC= 1.00D-01 BMatC= 1.22D-06 BMatP= 5.40D-06
 IDIUse=1 WtCom= 1.00D+00 WtEn= 0.00D+00
 Coeff-Com:  0.162D-04-0.490D-04-0.672D-04-0.389D-03 0.519D-04-0.512D-03
 Coeff-Com:  0.383D-02 0.747D-02 0.179D-01 0.214D-01-0.868D-01-0.776D-01
 Coeff-Com:  0.471D+00 0.643D+00
 Coeff:      0.162D-04-0.490D-04-0.672D-04-0.389D-03 0.519D-04-0.512D-03
 Coeff:      0.383D-02 0.747D-02 0.179D-01 0.214D-01-0.868D-01-0.776D-01
 Coeff:      0.471D+00 0.643D+00
 Gap=     0.184 Goal=   None    Shift=    0.000
 RMSDP=2.31D-05 MaxDP=1.88D-03 DE=-1.25D-05 OVMax= 4.35D-04

 Cycle  15  Pass 1  IDiag  1:
 RMSU=  1.24D-05    CP:  4.12D-03  1.28D-01  5.12D-01  7.31D-01  4.17D-01
                    CP:  7.72D-01  8.51D-01  1.06D+00  1.36D+00  1.93D+00
                    CP:  2.93D+00  2.05D+00  1.18D+00  9.87D-01
 E= -3010.55135923013     Delta-E=       -0.000001661910 Rises=F Damp=F
 DIIS: error= 2.95D-05 at cycle  15 NSaved=  15.
 NSaved=15 IEnMin=15 EnMin= -3010.55135923013     IErMin=15 ErrMin= 2.95D-05
 ErrMax= 2.95D-05  0.00D+00 EMaxC= 1.00D-01 BMatC= 1.49D-07 BMatP= 1.22D-06
 IDIUse=1 WtCom= 1.00D+00 WtEn= 0.00D+00
 Coeff-Com:  0.251D-04-0.419D-04 0.445D-05-0.852D-04 0.594D-04-0.666D-03
 Coeff-Com: -0.102D-03 0.256D-02 0.795D-02 0.145D-01 0.870D-03-0.718D-01
 Coeff-Com: -0.272D-01 0.113D+00 0.961D+00
 Coeff:      0.251D-04-0.419D-04 0.445D-05-0.852D-04 0.594D-04-0.666D-03
 Coeff:     -0.102D-03 0.256D-02 0.795D-02 0.145D-01 0.870D-03-0.718D-01
 Coeff:     -0.272D-01 0.113D+00 0.961D+00
 Gap=     0.184 Goal=   None    Shift=    0.000
 RMSDP=1.39D-05 MaxDP=8.11D-04 DE=-1.66D-06 OVMax= 5.27D-04

 Cycle  16  Pass 1  IDiag  1:
 RMSU=  8.66D-06    CP:  4.12D-03  1.28D-01  5.12D-01  7.31D-01  4.17D-01
                    CP:  7.72D-01  8.51D-01  1.06D+00  1.36D+00  1.93D+00
                    CP:  2.94D+00  2.06D+00  1.21D+00  1.08D+00  1.40D+00
 E= -3010.55135971497     Delta-E=       -0.000000484841 Rises=F Damp=F
 DIIS: error= 8.31D-06 at cycle  16 NSaved=  16.
 NSaved=16 IEnMin=16 EnMin= -3010.55135971497     IErMin=16 ErrMin= 8.31D-06
 ErrMax= 8.31D-06  0.00D+00 EMaxC= 1.00D-01 BMatC= 2.14D-08 BMatP= 1.49D-07
 IDIUse=1 WtCom= 1.00D+00 WtEn= 0.00D+00
 Coeff-Com:  0.844D-05-0.100D-04 0.897D-06 0.725D-05 0.174D-04-0.134D-03
 Coeff-Com: -0.373D-03-0.217D-03-0.159D-02-0.141D-03 0.142D-01-0.124D-01
 Coeff-Com: -0.669D-01-0.673D-01 0.243D+00 0.892D+00
 Coeff:      0.844D-05-0.100D-04 0.897D-06 0.725D-05 0.174D-04-0.134D-03
 Coeff:     -0.373D-03-0.217D-03-0.159D-02-0.141D-03 0.142D-01-0.124D-01
 Coeff:     -0.669D-01-0.673D-01 0.243D+00 0.892D+00
 Gap=     0.184 Goal=   None    Shift=    0.000
 RMSDP=8.04D-06 MaxDP=3.57D-04 DE=-4.85D-07 OVMax= 3.65D-04

 Cycle  17  Pass 1  IDiag  1:
 RMSU=  2.96D-06    CP:  4.12D-03  1.28D-01  5.12D-01  7.31D-01  4.17D-01
                    CP:  7.72D-01  8.50D-01  1.06D+00  1.37D+00  1.93D+00
                    CP:  2.95D+00  2.06D+00  1.22D+00  1.15D+00  1.60D+00
                    CP:  1.38D+00
 E= -3010.55135984155     Delta-E=       -0.000000126573 Rises=F Damp=F
 DIIS: error= 4.20D-06 at cycle  17 NSaved=  17.
 NSaved=17 IEnMin=17 EnMin= -3010.55135984155     IErMin=17 ErrMin= 4.20D-06
 ErrMax= 4.20D-06  0.00D+00 EMaxC= 1.00D-01 BMatC= 3.91D-09 BMatP= 2.14D-08
 IDIUse=1 WtCom= 1.00D+00 WtEn= 0.00D+00
 Coeff-Com: -0.254D-06 0.150D-05-0.738D-07 0.786D-05-0.546D-05 0.614D-04
 Coeff-Com: -0.112D-03-0.563D-03-0.131D-02-0.128D-02 0.289D-02 0.753D-02
 Coeff-Com: -0.949D-02-0.317D-01-0.125D+00 0.205D+00 0.955D+00
 Coeff:     -0.254D-06 0.150D-05-0.738D-07 0.786D-05-0.546D-05 0.614D-04
 Coeff:     -0.112D-03-0.563D-03-0.131D-02-0.128D-02 0.289D-02 0.753D-02
 Coeff:     -0.949D-02-0.317D-01-0.125D+00 0.205D+00 0.955D+00
 Gap=     0.184 Goal=   None    Shift=    0.000
 RMSDP=4.58D-06 MaxDP=1.95D-04 DE=-1.27D-07 OVMax= 2.55D-04

 Cycle  18  Pass 1  IDiag  1:
 RMSU=  1.33D-06    CP:  4.12D-03  1.28D-01  5.12D-01  7.31D-01  4.17D-01
                    CP:  7.72D-01  8.50D-01  1.06D+00  1.37D+00  1.94D+00
                    CP:  2.95D+00  2.06D+00  1.21D+00  1.20D+00  1.71D+00
                    CP:  1.65D+00  1.67D+00
 E= -3010.55135988843     Delta-E=       -0.000000046888 Rises=F Damp=F
 DIIS: error= 3.06D-06 at cycle  18 NSaved=  18.
 NSaved=18 IEnMin=18 EnMin= -3010.55135988843     IErMin=18 ErrMin= 3.06D-06
 ErrMax= 3.06D-06  0.00D+00 EMaxC= 1.00D-01 BMatC= 1.19D-09 BMatP= 3.91D-09
 IDIUse=1 WtCom= 1.00D+00 WtEn= 0.00D+00
 Coeff-Com: -0.201D-05 0.286D-05 0.386D-06 0.975D-05-0.649D-06-0.373D-05
 Coeff-Com:  0.156D-04 0.788D-04 0.849D-03 0.723D-03-0.378D-02 0.125D-02
 Coeff-Com:  0.129D-01 0.220D-01-0.207D-01-0.257D+00-0.217D+00 0.146D+01
 Coeff:     -0.201D-05 0.286D-05 0.386D-06 0.975D-05-0.649D-06-0.373D-05
 Coeff:      0.156D-04 0.788D-04 0.849D-03 0.723D-03-0.378D-02 0.125D-02
 Coeff:      0.129D-01 0.220D-01-0.207D-01-0.257D+00-0.217D+00 0.146D+01
 Gap=     0.184 Goal=   None    Shift=    0.000
 RMSDP=4.72D-06 MaxDP=2.17D-04 DE=-4.69D-08 OVMax= 2.62D-04

 Cycle  19  Pass 1  IDiag  1:
 RMSU=  1.24D-06    CP:  4.12D-03  1.28D-01  5.12D-01  7.31D-01  4.17D-01
                    CP:  7.72D-01  8.50D-01  1.06D+00  1.37D+00  1.94D+00
                    CP:  2.95D+00  2.06D+00  1.20D+00  1.25D+00  1.77D+00
                    CP:  1.88D+00  2.44D+00  1.99D+00
 E= -3010.55135991487     Delta-E=       -0.000000026437 Rises=F Damp=F
 DIIS: error= 1.49D-06 at cycle  19 NSaved=  19.
 NSaved=19 IEnMin=19 EnMin= -3010.55135991487     IErMin=19 ErrMin= 1.49D-06
 ErrMax= 1.49D-06  0.00D+00 EMaxC= 1.00D-01 BMatC= 3.34D-10 BMatP= 1.19D-09
 IDIUse=1 WtCom= 1.00D+00 WtEn= 0.00D+00
 Coeff-Com: -0.615D-06 0.648D-06 0.521D-06-0.874D-06 0.520D-06-0.656D-05
 Coeff-Com:  0.374D-04 0.118D-03 0.269D-03-0.186D-04-0.152D-02-0.375D-03
 Coeff-Com:  0.465D-02 0.104D-01 0.267D-01-0.103D+00-0.322D+00 0.273D+00
 Coeff-Com:  0.111D+01
 Coeff:     -0.615D-06 0.648D-06 0.521D-06-0.874D-06 0.520D-06-0.656D-05
 Coeff:      0.374D-04 0.118D-03 0.269D-03-0.186D-04-0.152D-02-0.375D-03
 Coeff:      0.465D-02 0.104D-01 0.267D-01-0.103D+00-0.322D+00 0.273D+00
 Coeff:      0.111D+01
 Gap=     0.184 Goal=   None    Shift=    0.000
 RMSDP=2.98D-06 MaxDP=1.02D-04 DE=-2.64D-08 OVMax= 1.63D-04

 Cycle  20  Pass 1  IDiag  1:
 RMSU=  3.46D-07    CP:  4.12D-03  1.28D-01  5.12D-01  7.31D-01  4.17D-01
                    CP:  7.72D-01  8.50D-01  1.06D+00  1.37D+00  1.94D+00
                    CP:  2.96D+00  2.06D+00  1.20D+00  1.28D+00  1.80D+00
                    CP:  2.01D+00  2.89D+00  2.65D+00  1.71D+00
 E= -3010.55135992209     Delta-E=       -0.000000007215 Rises=F Damp=F
 DIIS: error= 5.95D-07 at cycle  20 NSaved=  20.
 NSaved=20 IEnMin=20 EnMin= -3010.55135992209     IErMin=20 ErrMin= 5.95D-07
 ErrMax= 5.95D-07  0.00D+00 EMaxC= 1.00D-01 BMatC= 8.55D-11 BMatP= 3.34D-10
 IDIUse=1 WtCom= 1.00D+00 WtEn= 0.00D+00
 Coeff-Com: -0.235D-06 0.964D-07 0.367D-06-0.345D-05 0.634D-06-0.341D-06
 Coeff-Com:  0.137D-04 0.334D-04-0.246D-04-0.123D-03 0.339D-03-0.201D-03
 Coeff-Com: -0.179D-02-0.164D-02 0.122D-01 0.215D-01-0.570D-01-0.239D+00
 Coeff-Com:  0.315D+00 0.951D+00
 Coeff:     -0.235D-06 0.964D-07 0.367D-06-0.345D-05 0.634D-06-0.341D-06
 Coeff:      0.137D-04 0.334D-04-0.246D-04-0.123D-03 0.339D-03-0.201D-03
 Coeff:     -0.179D-02-0.164D-02 0.122D-01 0.215D-01-0.570D-01-0.239D+00
 Coeff:      0.315D+00 0.951D+00
 Gap=     0.184 Goal=   None    Shift=    0.000
 RMSDP=1.26D-06 MaxDP=5.06D-05 DE=-7.22D-09 OVMax= 6.81D-05

 Cycle  21  Pass 1  IDiag  1:
 Restarting incremental Fock formation.
 E= -3010.55135992321     Delta-E=       -0.000000001125 Rises=F Damp=F
 DIIS: error= 2.23D-07 at cycle  21 NSaved=  20.
 NSaved=20 IEnMin=20 EnMin= -3010.55135992321     IErMin=20 ErrMin= 2.23D-07
 ErrMax= 2.23D-07  0.00D+00 EMaxC= 1.00D-01 BMatC= 1.66D-11 BMatP= 8.55D-11
 IDIUse=1 WtCom= 1.00D+00 WtEn= 0.00D+00
 Coeff-Com: -0.526D-07 0.752D-07-0.435D-06-0.196D-06 0.497D-05-0.557D-05
 Coeff-Com: -0.356D-04-0.839D-04-0.898D-04 0.277D-03 0.252D-03-0.774D-03
 Coeff-Com: -0.175D-02-0.351D-02 0.240D-01 0.547D-01-0.992D-01-0.155D+00
 Coeff-Com:  0.173D+00 0.101D+01
 Coeff:     -0.526D-07 0.752D-07-0.435D-06-0.196D-06 0.497D-05-0.557D-05
 Coeff:     -0.356D-04-0.839D-04-0.898D-04 0.277D-03 0.252D-03-0.774D-03
 Coeff:     -0.175D-02-0.351D-02 0.240D-01 0.547D-01-0.992D-01-0.155D+00
 Coeff:      0.173D+00 0.101D+01
 Gap=     0.184 Goal=   None    Shift=    0.000
 RMSDP=4.39D-07 MaxDP=1.94D-05 DE=-1.13D-09 OVMax= 2.11D-05

 Cycle  22  Pass 1  IDiag  1:
 RMSU=  4.38D-07    CP:  1.00D+00
 E= -3010.55135992337     Delta-E=       -0.000000000157 Rises=F Damp=F
 DIIS: error= 1.16D-07 at cycle  22 NSaved=  20.
 NSaved=20 IEnMin=20 EnMin= -3010.55135992337     IErMin=20 ErrMin= 1.16D-07
 ErrMax= 1.16D-07  0.00D+00 EMaxC= 1.00D-01 BMatC= 4.49D-12 BMatP= 1.66D-11
 IDIUse=1 WtCom= 1.00D+00 WtEn= 0.00D+00
 Coeff-Com:  0.396D-07 0.969D-06-0.359D-06 0.142D-05-0.737D-05-0.188D-04
 Coeff-Com:  0.459D-06 0.244D-04 0.562D-04 0.525D-04 0.131D-04-0.128D-04
 Coeff-Com: -0.222D-02 0.171D-02 0.219D-01 0.194D-01-0.103D+00-0.141D+00
 Coeff-Com:  0.283D+00 0.919D+00
 Coeff:      0.396D-07 0.969D-06-0.359D-06 0.142D-05-0.737D-05-0.188D-04
 Coeff:      0.459D-06 0.244D-04 0.562D-04 0.525D-04 0.131D-04-0.128D-04
 Coeff:     -0.222D-02 0.171D-02 0.219D-01 0.194D-01-0.103D+00-0.141D+00
 Coeff:      0.283D+00 0.919D+00
 Gap=     0.184 Goal=   None    Shift=    0.000
 RMSDP=1.92D-07 MaxDP=1.09D-05 DE=-1.57D-10 OVMax= 8.65D-06

 Cycle  23  Pass 1  IDiag  1:
 RMSU=  1.17D-07    CP:  1.00D+00  1.35D+00
 E= -3010.55135992341     Delta-E=       -0.000000000038 Rises=F Damp=F
 DIIS: error= 4.47D-08 at cycle  23 NSaved=  20.
 NSaved=20 IEnMin=20 EnMin= -3010.55135992341     IErMin=20 ErrMin= 4.47D-08
 ErrMax= 4.47D-08  0.00D+00 EMaxC= 1.00D-01 BMatC= 9.78D-13 BMatP= 4.49D-12
 IDIUse=1 WtCom= 1.00D+00 WtEn= 0.00D+00
 Coeff-Com:  0.444D-06-0.213D-06-0.343D-06-0.177D-05-0.867D-06 0.104D-04
 Coeff-Com:  0.225D-04-0.168D-04-0.442D-04 0.125D-03 0.193D-03 0.401D-03
 Coeff-Com: -0.312D-02-0.534D-02 0.219D-01 0.437D-02-0.613D-01-0.161D+00
 Coeff-Com:  0.252D+00 0.952D+00
 Coeff:      0.444D-06-0.213D-06-0.343D-06-0.177D-05-0.867D-06 0.104D-04
 Coeff:      0.225D-04-0.168D-04-0.442D-04 0.125D-03 0.193D-03 0.401D-03
 Coeff:     -0.312D-02-0.534D-02 0.219D-01 0.437D-02-0.613D-01-0.161D+00
 Coeff:      0.252D+00 0.952D+00
 Gap=     0.184 Goal=   None    Shift=    0.000
 RMSDP=8.45D-08 MaxDP=6.19D-06 DE=-3.77D-11 OVMax= 3.37D-06

 Cycle  24  Pass 1  IDiag  1:
 RMSU=  3.67D-08    CP:  1.00D+00  1.50D+00  1.25D+00
 E= -3010.55135992345     Delta-E=       -0.000000000047 Rises=F Damp=F
 DIIS: error= 3.43D-08 at cycle  24 NSaved=  20.
 NSaved=20 IEnMin=20 EnMin= -3010.55135992345     IErMin=20 ErrMin= 3.43D-08
 ErrMax= 3.43D-08  0.00D+00 EMaxC= 1.00D-01 BMatC= 1.57D-13 BMatP= 9.78D-13
 IDIUse=1 WtCom= 1.00D+00 WtEn= 0.00D+00
 Coeff-Com: -0.118D-06-0.215D-06 0.159D-05 0.271D-05-0.477D-05-0.624D-05
 Coeff-Com: -0.572D-05 0.407D-05-0.312D-06-0.119D-03 0.261D-03-0.318D-03
 Coeff-Com: -0.517D-02-0.252D-02 0.222D-01 0.312D-01-0.982D-01-0.159D+00
 Coeff-Com:  0.157D+00 0.105D+01
 Coeff:     -0.118D-06-0.215D-06 0.159D-05 0.271D-05-0.477D-05-0.624D-05
 Coeff:     -0.572D-05 0.407D-05-0.312D-06-0.119D-03 0.261D-03-0.318D-03
 Coeff:     -0.517D-02-0.252D-02 0.222D-01 0.312D-01-0.982D-01-0.159D+00
 Coeff:      0.157D+00 0.105D+01
 Gap=     0.184 Goal=   None    Shift=    0.000
 RMSDP=3.88D-08 MaxDP=2.95D-06 DE=-4.68D-11 OVMax= 1.71D-06

 Cycle  25  Pass 1  IDiag  1:
 RMSU=  1.39D-08    CP:  1.00D+00  1.57D+00  1.36D+00  1.52D+00
 E= -3010.55135992344     Delta-E=        0.000000000016 Rises=F Damp=F
 DIIS: error= 2.09D-08 at cycle  25 NSaved=  20.
 NSaved=20 IEnMin=19 EnMin= -3010.55135992345     IErMin=20 ErrMin= 2.09D-08
 ErrMax= 2.09D-08  0.00D+00 EMaxC= 1.00D-01 BMatC= 2.94D-14 BMatP= 1.57D-13
 IDIUse=1 WtCom= 1.00D+00 WtEn= 0.00D+00
 Coeff-Com:  0.159D-06-0.132D-06-0.598D-06-0.178D-05-0.223D-06 0.879D-06
 Coeff-Com:  0.106D-04-0.382D-06 0.107D-04-0.117D-03 0.199D-04 0.912D-03
 Coeff-Com:  0.845D-04-0.332D-02 0.380D-03 0.203D-01-0.129D-01-0.124D+00
 Coeff-Com: -0.677D-01 0.119D+01
 Coeff:      0.159D-06-0.132D-06-0.598D-06-0.178D-05-0.223D-06 0.879D-06
 Coeff:      0.106D-04-0.382D-06 0.107D-04-0.117D-03 0.199D-04 0.912D-03
 Coeff:      0.845D-04-0.332D-02 0.380D-03 0.203D-01-0.129D-01-0.124D+00
 Coeff:     -0.677D-01 0.119D+01
 Gap=     0.184 Goal=   None    Shift=    0.000
 RMSDP=2.17D-08 MaxDP=1.79D-06 DE= 1.64D-11 OVMax= 8.78D-07

 Cycle  26  Pass 1  IDiag  1:
 RMSU=  7.61D-09    CP:  1.00D+00  1.60D+00  1.40D+00  1.81D+00  1.48D+00
 E= -3010.55135992346     Delta-E=       -0.000000000024 Rises=F Damp=F
 DIIS: error= 1.19D-08 at cycle  26 NSaved=  20.
 NSaved=20 IEnMin=20 EnMin= -3010.55135992346     IErMin=20 ErrMin= 1.19D-08
 ErrMax= 1.19D-08  0.00D+00 EMaxC= 1.00D-01 BMatC= 8.45D-15 BMatP= 2.94D-14
 IDIUse=1 WtCom= 1.00D+00 WtEn= 0.00D+00
 Coeff-Com: -0.335D-06-0.206D-06 0.193D-05 0.290D-05-0.750D-07-0.667D-05
 Coeff-Com:  0.458D-06 0.463D-04 0.163D-04 0.107D-03 0.131D-02-0.363D-03
 Coeff-Com: -0.552D-02-0.483D-02 0.306D-01 0.355D-01-0.605D-01-0.307D+00
 Coeff-Com:  0.884D-01 0.122D+01
 Coeff:     -0.335D-06-0.206D-06 0.193D-05 0.290D-05-0.750D-07-0.667D-05
 Coeff:      0.458D-06 0.463D-04 0.163D-04 0.107D-03 0.131D-02-0.363D-03
 Coeff:     -0.552D-02-0.483D-02 0.306D-01 0.355D-01-0.605D-01-0.307D+00
 Coeff:      0.884D-01 0.122D+01
 Gap=     0.184 Goal=   None    Shift=    0.000
 RMSDP=1.53D-08 MaxDP=1.18D-06 DE=-2.36D-11 OVMax= 6.64D-07

 Cycle  27  Pass 1  IDiag  1:
 RMSU=  4.55D-09    CP:  1.00D+00  1.61D+00  1.40D+00  1.99D+00  1.90D+00
                    CP:  1.66D+00
 E= -3010.55135992344     Delta-E=        0.000000000020 Rises=F Damp=F
 DIIS: error= 4.57D-09 at cycle  27 NSaved=  20.
 NSaved=20 IEnMin=19 EnMin= -3010.55135992346     IErMin=20 ErrMin= 4.57D-09
 ErrMax= 4.57D-09  0.00D+00 EMaxC= 1.00D-01 BMatC= 1.75D-15 BMatP= 8.45D-15
 IDIUse=1 WtCom= 1.00D+00 WtEn= 0.00D+00
 Large coefficients: NSaved= 20 BigCof=    0.00 CofMax=   10.00 Det=-1.52D-15
 Inversion failed.  Reducing to 19 matrices.
 Large coefficients: NSaved= 19 BigCof=    0.00 CofMax=   10.00 Det=-1.80D-15
 Inversion failed.  Reducing to 18 matrices.
 Large coefficients: NSaved= 18 BigCof=    0.00 CofMax=   10.00 Det=-1.87D-15
 Inversion failed.  Reducing to 17 matrices.
 Large coefficients: NSaved= 17 BigCof=    0.00 CofMax=   10.00 Det=-1.87D-15
 Inversion failed.  Reducing to 16 matrices.
 Large coefficients: NSaved= 16 BigCof=    0.00 CofMax=   10.00 Det=-1.89D-15
 Inversion failed.  Reducing to 15 matrices.
 Coeff-Com: -0.311D-05-0.165D-04-0.468D-04 0.354D-04 0.954D-04 0.146D-03
 Coeff-Com:  0.172D-03-0.818D-03-0.606D-02 0.147D-02 0.336D-01 0.331D-01
 Coeff-Com: -0.175D+00-0.263D+00 0.138D+01
 Coeff:     -0.311D-05-0.165D-04-0.468D-04 0.354D-04 0.954D-04 0.146D-03
 Coeff:      0.172D-03-0.818D-03-0.606D-02 0.147D-02 0.336D-01 0.331D-01
 Coeff:     -0.175D+00-0.263D+00 0.138D+01
 Gap=     0.184 Goal=   None    Shift=    0.000
 RMSDP=7.79D-09 MaxDP=6.08D-07 DE= 2.00D-11 OVMax= 2.94D-07

 SCF Done:  E(RwB97XD) =  -3010.55135992     A.U. after   27 cycles
            NFock= 27  Conv=0.78D-08     -V/T= 2.0016
 KE= 3.005856604956D+03 PE=-8.628562426264D+03 EE= 1.876611671756D+03
 Leave Link  502 at Wed May  1 14:55:08 2024, MaxMem=  1207959552 cpu:            1582.9 elap:            1583.2
 (Enter /software/gaussian/g16-c01/sse4/g16/l601.exe)
 Copying SCF densities to generalized density rwf, IOpCl= 0 IROHF=0.

 **********************************************************************

            Population analysis using the SCF Density.

 **********************************************************************

 Alpha  occ. eigenvalues -- -483.30030 -62.85080 -56.64734 -56.64218 -56.64213
 Alpha  occ. eigenvalues --  -19.36188 -19.36124 -14.75747 -10.56650 -10.54582
 Alpha  occ. eigenvalues --  -10.53818 -10.52906 -10.52256 -10.51130  -9.00904
 Alpha  occ. eigenvalues --   -6.83474  -6.81773  -6.81753  -2.93404  -2.92951
 Alpha  occ. eigenvalues --   -2.92934  -2.91573  -2.91573  -1.39873  -1.22740
 Alpha  occ. eigenvalues --   -1.19578  -1.10920  -1.08479  -1.02425  -0.95791
 Alpha  occ. eigenvalues --   -0.92429  -0.86996  -0.81337  -0.77108  -0.75976
 Alpha  occ. eigenvalues --   -0.73526  -0.72695  -0.71050  -0.69063  -0.66615
 Alpha  occ. eigenvalues --   -0.66308  -0.63824  -0.60740  -0.57696  -0.55654
 Alpha  occ. eigenvalues --   -0.53136  -0.46968  -0.45475  -0.45418
 Alpha virt. eigenvalues --   -0.27021  -0.15675  -0.14896  -0.13413  -0.10339
 Alpha virt. eigenvalues --   -0.08596  -0.07875  -0.06874  -0.03751  -0.03232
 Alpha virt. eigenvalues --   -0.02287  -0.01029  -0.00324   0.00074   0.00970
 Alpha virt. eigenvalues --    0.02378   0.02989   0.03317   0.04119   0.04453
 Alpha virt. eigenvalues --    0.05258   0.07179   0.08109   0.08429   0.09227
 Alpha virt. eigenvalues --    0.09608   0.10500   0.11430   0.11866   0.12738
 Alpha virt. eigenvalues --    0.13916   0.14805   0.15258   0.16108   0.16840
 Alpha virt. eigenvalues --    0.17952   0.18651   0.19366   0.20916   0.22104
 Alpha virt. eigenvalues --    0.22574   0.23372   0.24724   0.25211   0.26965
 Alpha virt. eigenvalues --    0.28145   0.29550   0.30347   0.30623   0.31067
 Alpha virt. eigenvalues --    0.32013   0.32550   0.34291   0.35580   0.36573
 Alpha virt. eigenvalues --    0.37355   0.38645   0.38966   0.40541   0.41339
 Alpha virt. eigenvalues --    0.42770   0.43835   0.44075   0.45731   0.46487
 Alpha virt. eigenvalues --    0.47826   0.48808   0.49581   0.50204   0.51852
 Alpha virt. eigenvalues --    0.53216   0.53473   0.53568   0.55777   0.57036
 Alpha virt. eigenvalues --    0.59117   0.59305   0.60516   0.62488   0.63763
 Alpha virt. eigenvalues --    0.64318   0.66159   0.66680   0.68673   0.69953
 Alpha virt. eigenvalues --    0.72804   0.73883   0.75596   0.76292   0.77818
 Alpha virt. eigenvalues --    0.80699   0.83861   0.85977   0.87753   0.88677
 Alpha virt. eigenvalues --    0.89653   0.93824   0.96870   0.99394   1.05060
 Alpha virt. eigenvalues --    1.05529   1.08150   1.08855   1.10800   1.12033
 Alpha virt. eigenvalues --    1.14836   1.18019   1.21768   1.22681   1.25405
 Alpha virt. eigenvalues --    1.30061   1.31939   1.33682   1.36498   1.39994
 Alpha virt. eigenvalues --    1.40586   1.41102   1.48179   1.58443   1.61174
 Alpha virt. eigenvalues --    1.62582   1.62812   1.66704   1.68661   1.69673
 Alpha virt. eigenvalues --    1.73434   1.76032   1.76379   1.81690   1.82844
 Alpha virt. eigenvalues --    1.84101   1.90793   1.91949   1.94645   1.97225
 Alpha virt. eigenvalues --    2.02686   2.06948   2.08192   2.10653   2.11687
 Alpha virt. eigenvalues --    2.13275   2.17974   2.23702   2.28206   2.32455
 Alpha virt. eigenvalues --    2.41394   2.46634   2.47771   2.49252   2.55589
 Alpha virt. eigenvalues --    2.59752   2.66699   2.69652   2.72008   2.78322
 Alpha virt. eigenvalues --    2.81792   2.83476   2.85214   2.86163   2.91018
 Alpha virt. eigenvalues --    2.96310   2.99792   3.08140   3.10501   3.13180
 Alpha virt. eigenvalues --    3.16291   3.19003   3.22900   3.27752   3.32851
 Alpha virt. eigenvalues --    3.37472   3.44859   3.50581   3.56603   3.60494
 Alpha virt. eigenvalues --    3.65390   3.79329   3.83878   3.85575   3.90795
 Alpha virt. eigenvalues --    4.09852   4.10095   4.17844   4.22970   4.43873
 Alpha virt. eigenvalues --    4.54533   4.60584   4.68527   5.03461   5.06227
 Alpha virt. eigenvalues --    5.14847   5.19005   5.72612   6.25947   6.65615
 Alpha virt. eigenvalues --    7.48521   7.50098   7.60017  23.24269  23.64386
 Alpha virt. eigenvalues --   23.71537  23.82873  23.98671  24.05263  35.42192
 Alpha virt. eigenvalues --   47.92330  49.95293  50.04106 289.81685 289.83353
 Alpha virt. eigenvalues --  289.958251020.92792
          Condensed to atoms (all electrons):
               1          2          3          4          5          6
     1  C   10.753979  -3.636588   0.272035  -2.341987  -1.063046   0.300295
     2  C   -3.636588  14.926618  -2.495905  -1.451229   0.452216   0.024384
     3  C    0.272035  -2.495905  14.614754  -4.637394  -1.356646   0.029076
     4  C   -2.341987  -1.451229  -4.637394  18.354580   1.049695   0.014046
     5  C   -1.063046   0.452216  -1.356646   1.049695   9.233005  -0.021995
     6  H    0.300295   0.024384   0.029076   0.014046  -0.021995   0.377333
     7  H    0.114455   0.171780   0.074100  -0.040436  -0.016106  -0.001712
     8  H    0.013042  -0.028356   0.103567   0.155268  -0.037321  -0.000003
     9  H    0.079589  -0.059431   0.022953  -0.024535   0.224470  -0.003748
    10  N   -0.287225   0.471130  -1.001572   0.463017  -0.010611  -0.000711
    11  O   -0.005850  -0.162977  -0.254821   0.045288  -0.079636  -0.000030
    12  O    0.468948  -0.036363  -0.252792  -0.222269  -0.045538   0.000111
    13  C    1.870088  -2.664750   1.561295  -5.651399  -2.326417  -0.009593
    14  H   -0.039362   0.025208  -0.017303  -0.092378   0.102190  -0.000024
    15  Br   0.019338   0.053401  -0.036444   0.050665  -0.068682  -0.000218
               7          8          9         10         11         12
     1  C    0.114455   0.013042   0.079589  -0.287225  -0.005850   0.468948
     2  C    0.171780  -0.028356  -0.059431   0.471130  -0.162977  -0.036363
     3  C    0.074100   0.103567   0.022953  -1.001572  -0.254821  -0.252792
     4  C   -0.040436   0.155268  -0.024535   0.463017   0.045288  -0.222269
     5  C   -0.016106  -0.037321   0.224470  -0.010611  -0.079636  -0.045538
     6  H   -0.001712  -0.000003  -0.003748  -0.000711  -0.000030   0.000111
     7  H    0.273800   0.000014   0.000045  -0.029111  -0.001632   0.034299
     8  H    0.000014   0.267724   0.000108  -0.026209   0.032559  -0.000617
     9  H    0.000045   0.000108   0.426441   0.000195   0.000019   0.000014
    10  N   -0.029111  -0.026209   0.000195   7.795709   0.019823  -0.011011
    11  O   -0.001632   0.032559   0.000019   0.019823   7.845633   0.020807
    12  O    0.034299  -0.000617   0.000014  -0.011011   0.020807   7.880246
    13  C    0.021418   0.112626   0.082165  -0.275279   0.416096   0.038611
    14  H   -0.000028  -0.002598  -0.008113   0.001594  -0.000489  -0.000089
    15  Br   0.000128   0.008764   0.002367   0.011025  -0.000301   0.002213
              13         14         15
     1  C    1.870088  -0.039362   0.019338
     2  C   -2.664750   0.025208   0.053401
     3  C    1.561295  -0.017303  -0.036444
     4  C   -5.651399  -0.092378   0.050665
     5  C   -2.326417   0.102190  -0.068682
     6  H   -0.009593  -0.000024  -0.000218
     7  H    0.021418  -0.000028   0.000128
     8  H    0.112626  -0.002598   0.008764
     9  H    0.082165  -0.008113   0.002367
    10  N   -0.275279   0.001594   0.011025
    11  O    0.416096  -0.000489  -0.000301
    12  O    0.038611  -0.000089   0.002213
    13  C   12.872046   0.334602   0.103485
    14  H    0.334602   0.377313  -0.052796
    15  Br   0.103485  -0.052796  34.834913
 Mulliken charges:
               1
     1  C   -0.517711
     2  C    0.410863
     3  C   -0.624904
     4  C    0.329067
     5  C   -0.035579
     6  H    0.292787
     7  H    0.398985
     8  H    0.401433
     9  H    0.257463
    10  N   -0.120764
    11  O    0.125509
    12  O    0.123430
    13  C   -0.484995
    14  H    0.372273
    15  Br   0.072142
 Sum of Mulliken charges =   1.00000
 Mulliken charges with hydrogens summed into heavy atoms:
               1
     1  C   -0.224924
     2  C    0.809848
     3  C   -0.624904
     4  C    0.730500
     5  C    0.221885
    10  N   -0.120764
    11  O    0.125509
    12  O    0.123430
    13  C   -0.112723
    15  Br   0.072142
 Electronic spatial extent (au):  <R**2>=           2789.8892
 Charge=              1.0000 electrons
 Dipole moment (field-independent basis, Debye):
    X=              5.1380    Y=              0.0610    Z=              0.4468  Tot=              5.1577
 Quadrupole moment (field-independent basis, Debye-Ang):
   XX=            -57.5042   YY=            -52.7562   ZZ=            -64.1827
   XY=              0.2428   XZ=             -0.4355   YZ=              0.3209
 Traceless Quadrupole moment (field-independent basis, Debye-Ang):
   XX=              0.6435   YY=              5.3915   ZZ=             -6.0350
   XY=              0.2428   XZ=             -0.4355   YZ=              0.3209
 Octapole moment (field-independent basis, Debye-Ang**2):
  XXX=           -217.3813  YYY=             92.5570  ZZZ=             81.1375  XYY=            -62.2968
  XXY=             32.9271  XXZ=             32.8486  XZZ=            -71.6301  YZZ=             19.6297
  YYZ=             28.4375  XYZ=             -0.5372
 Hexadecapole moment (field-independent basis, Debye-Ang**3):
 XXXX=          -1937.2925 YYYY=           -689.5138 ZZZZ=           -359.8542 XXXY=            -69.7375
 XXXZ=            -32.0075 YYYX=            -67.0060 YYYZ=           -164.4716 ZZZX=            -26.3626
 ZZZY=           -144.0077 XXYY=           -431.5232 XXZZ=           -366.8898 YYZZ=           -171.3639
 XXYZ=            -58.6003 YYXZ=             -8.9471 ZZXY=            -14.5296
 N-N= 7.355427896278D+02 E-N=-8.628562426403D+03  KE= 3.005856604956D+03
 No NMR shielding tensors so no spin-rotation constants.
 Leave Link  601 at Wed May  1 14:55:15 2024, MaxMem=  1207959552 cpu:               7.1 elap:               7.1
 (Enter /software/gaussian/g16-c01/sse4/g16/l9999.exe)
 Unable to Open any file for archive entry.
 1\1\GINC-BHX0006\SP\RwB97XD\6-311+G(d)\C6H5Br1N1O2(1+)\BWEIGHT\01-May-
 2024\0\\#P wB97XD/6-311+G* NoSymm #P Field=X-194\\TitleMe\\1,1\C,0,0.0
 295,1.3397,0.0682\C,0,1.4348,1.2867,0.0064\C,0,2.1118,0.0511,-0.0054\C
 ,0,1.4451,-1.1372,0.0312\C,0,-0.6879,0.1682,0.11\H,0,-0.4713,2.2984,0.
 0781\H,0,2.0273,2.1965,-0.0322\H,0,1.9897,-2.0764,0.0232\H,0,-1.7716,0
 .1804,0.1582\N,0,3.5864,0.051,-0.0675\O,0,4.1471,-1.0597,-0.0881\O,0,4
 .145,1.1639,-0.0901\C,0,-0.0236,-1.1458,0.0835\H,0,-0.4367,-1.8725,0.7
 889\Br,0,-0.5359,-1.8697,-1.7408\\Version=ES64L-G16RevC.01\HF=-3010.55
 13599\RMSD=7.794e-09\Dipole=0.1148916,1.1720654,1.3219723\Quadrupole=0
 .4784163,4.0084782,-4.4868945,0.1805469,-0.3237757,0.2385469\PG=C01 [X
 (C6H5Br1N1O2)]\\@
 The archive entry for this job was punched.


 NO MATTER HOW THIN YOU SLICE IT, IT'S STILL BALONEY

                                   -- ALFRED E. SMITH
 Job cpu time:       0 days  0 hours 27 minutes 33.0 seconds.
 Elapsed time:       0 days  0 hours 27 minutes 33.2 seconds.
 File lengths (MBytes):  RWF=     40 Int=      0 D2E=      0 Chk=     32 Scr=      1
 Normal termination of Gaussian 16 at Wed May  1 14:55:16 2024.
