 Entering Gaussian System, Link 0=g16
 Initial command:
 /software/gaussian/g16-c01/sse4/g16/l1.exe "/local_scratch/24665359/Gau-29792.inp" -scrdir="/local_scratch/24665359/"
 Entering Link 1 = /software/gaussian/g16-c01/sse4/g16/l1.exe PID=     29806.
  
 Copyright (c) 1988-2019, Gaussian, Inc.  All Rights Reserved.
  
 This is part of the Gaussian(R) 16 program.  It is based on
 the Gaussian(R) 09 system (copyright 2009, Gaussian, Inc.),
 the Gaussian(R) 03 system (copyright 2003, Gaussian, Inc.),
 the Gaussian(R) 98 system (copyright 1998, Gaussian, Inc.),
 the Gaussian(R) 94 system (copyright 1995, Gaussian, Inc.),
 the Gaussian 92(TM) system (copyright 1992, Gaussian, Inc.),
 the Gaussian 90(TM) system (copyright 1990, Gaussian, Inc.),
 the Gaussian 88(TM) system (copyright 1988, Gaussian, Inc.),
 the Gaussian 86(TM) system (copyright 1986, Carnegie Mellon
 University), and the Gaussian 82(TM) system (copyright 1983,
 Carnegie Mellon University). Gaussian is a federally registered
 trademark of Gaussian, Inc.
  
 This software contains proprietary and confidential information,
 including trade secrets, belonging to Gaussian, Inc.
  
 This software is provided under written license and may be
 used, copied, transmitted, or stored only in accord with that
 written license.
  
 The following legend is applicable only to US Government
 contracts under FAR:
  
                    RESTRICTED RIGHTS LEGEND
  
 Use, reproduction and disclosure by the US Government is
 subject to restrictions as set forth in subparagraphs (a)
 and (c) of the Commercial Computer Software - Restricted
 Rights clause in FAR 52.227-19.
  
 Gaussian, Inc.
 340 Quinnipiac St., Bldg. 40, Wallingford CT 06492
  
  
 ---------------------------------------------------------------
 Warning -- This program may not be used in any manner that
 competes with the business of Gaussian, Inc. or will provide
 assistance to any competitor of Gaussian, Inc.  The licensee
 of this program is prohibited from giving any competitor of
 Gaussian, Inc. access to this program.  By using this program,
 the user acknowledges that Gaussian, Inc. is engaged in the
 business of creating and licensing software in the field of
 computational chemistry and represents and warrants to the
 licensee that it is not a competitor of Gaussian, Inc. and that
 it will not use this program in any manner prohibited above.
 ---------------------------------------------------------------
  

 Cite this work as:
 Gaussian 16, Revision C.01,
 M. J. Frisch, G. W. Trucks, H. B. Schlegel, G. E. Scuseria, 
 M. A. Robb, J. R. Cheeseman, G. Scalmani, V. Barone, 
 G. A. Petersson, H. Nakatsuji, X. Li, M. Caricato, A. V. Marenich, 
 J. Bloino, B. G. Janesko, R. Gomperts, B. Mennucci, H. P. Hratchian, 
 J. V. Ortiz, A. F. Izmaylov, J. L. Sonnenberg, D. Williams-Young, 
 F. Ding, F. Lipparini, F. Egidi, J. Goings, B. Peng, A. Petrone, 
 T. Henderson, D. Ranasinghe, V. G. Zakrzewski, J. Gao, N. Rega, 
 G. Zheng, W. Liang, M. Hada, M. Ehara, K. Toyota, R. Fukuda, 
 J. Hasegawa, M. Ishida, T. Nakajima, Y. Honda, O. Kitao, H. Nakai, 
 T. Vreven, K. Throssell, J. A. Montgomery, Jr., J. E. Peralta, 
 F. Ogliaro, M. J. Bearpark, J. J. Heyd, E. N. Brothers, K. N. Kudin, 
 V. N. Staroverov, T. A. Keith, R. Kobayashi, J. Normand, 
 K. Raghavachari, A. P. Rendell, J. C. Burant, S. S. Iyengar, 
 J. Tomasi, M. Cossi, J. M. Millam, M. Klene, C. Adamo, R. Cammi, 
 J. W. Ochterski, R. L. Martin, K. Morokuma, O. Farkas, 
 J. B. Foresman, and D. J. Fox, Gaussian, Inc., Wallingford CT, 2019.
 
 ******************************************
 Gaussian 16:  ES64L-G16RevC.01  3-Jul-2019
                 2-May-2024 
 ******************************************
 %chk=geometry.chk
 %mem=1GB
 %nprocshared=12
 Will use up to   12 processors via shared memory.
 ----------------------------------------
 #P wB97XD/6-311+G* NoSymm #P Field=Z-233
 ----------------------------------------
 1/38=1,172=1/1;
 2/12=2,15=1,17=6,18=5,40=1/2;
 3/5=4,6=6,7=11,11=2,14=3,15=-233,25=1,30=1,74=-58/1,2,3;
 4//1;
 5/5=2,38=5/2;
 6/7=2,8=2,9=2,10=2,28=1/1;
 99/5=1,9=1/99;
 Leave Link    1 at Thu May  2 13:58:21 2024, MaxMem=   134217728 cpu:               1.1 elap:               1.2
 (Enter /software/gaussian/g16-c01/sse4/g16/l101.exe)
 -------
 TitleMe
 -------
 Symbolic Z-matrix:
 Charge =  1 Multiplicity = 1
 C                     0.5193    1.233    -0.0319 
 C                     1.9445    1.2692   -0.0367 
 C                     2.6204    0.0928   -0.025 
 C                    -0.196     0.0301    0.001 
 H                    -0.0207    2.1742   -0.0434 
 H                     2.4828    2.2089   -0.0361 
 H                    -1.2777    0.0399    0.0117 
 N                     4.0921    0.0959    0.0366 
 O                     4.6393   -1.0217    0.1446 
 O                     4.6649    1.1984   -0.0233 
 C                     0.4943   -1.1671    0.021 
 H                    -0.0325   -2.1149    0.0545 
 C                     1.9629   -1.2165   -0.0211 
 H                     2.4436   -1.9631    0.6151 
 Br                    2.173    -1.9491   -1.9062 
 
 ITRead=  0  0  0  0  0  0  0  0  0  0  0  0  0  0  0
 MicOpt= -1 -1 -1 -1 -1 -1 -1 -1 -1 -1 -1 -1 -1 -1 -1
 NAtoms=     15 NQM=       15 NQMF=       0 NMMI=      0 NMMIF=      0
                NMic=       0 NMicF=      0.
                    Isotopes and Nuclear Properties:
 (Nuclear quadrupole moments (NQMom) in fm**2, nuclear magnetic moments (NMagM)
  in nuclear magnetons)

  Atom         1           2           3           4           5           6           7           8           9          10
 IAtWgt=          12          12          12          12           1           1           1          14          16          16
 AtmWgt=  12.0000000  12.0000000  12.0000000  12.0000000   1.0078250   1.0078250   1.0078250  14.0030740  15.9949146  15.9949146
 NucSpn=           0           0           0           0           1           1           1           2           0           0
 AtZEff=  -0.0000000  -0.0000000  -0.0000000  -0.0000000  -0.0000000  -0.0000000  -0.0000000  -0.0000000  -0.0000000  -0.0000000
 NQMom=    0.0000000   0.0000000   0.0000000   0.0000000   0.0000000   0.0000000   0.0000000   2.0440000   0.0000000   0.0000000
 NMagM=    0.0000000   0.0000000   0.0000000   0.0000000   2.7928460   2.7928460   2.7928460   0.4037610   0.0000000   0.0000000
 AtZNuc=   6.0000000   6.0000000   6.0000000   6.0000000   1.0000000   1.0000000   1.0000000   7.0000000   8.0000000   8.0000000

  Atom        11          12          13          14          15
 IAtWgt=          12           1          12           1          79
 AtmWgt=  12.0000000   1.0078250  12.0000000   1.0078250  78.9183361
 NucSpn=           0           1           0           1           3
 AtZEff=  -0.0000000  -0.0000000  -0.0000000  -0.0000000  -0.0000000
 NQMom=    0.0000000   0.0000000   0.0000000   0.0000000  31.3000000
 NMagM=    0.0000000   2.7928460   0.0000000   2.7928460   2.1063990
 AtZNuc=   6.0000000   1.0000000   6.0000000   1.0000000  35.0000000
 Leave Link  101 at Thu May  2 13:58:22 2024, MaxMem=   134217728 cpu:               1.7 elap:               1.7
 (Enter /software/gaussian/g16-c01/sse4/g16/l202.exe)
                          Input orientation:                          
 ---------------------------------------------------------------------
 Center     Atomic      Atomic             Coordinates (Angstroms)
 Number     Number       Type             X           Y           Z
 ---------------------------------------------------------------------
      1          6           0        0.519300    1.233000   -0.031900
      2          6           0        1.944500    1.269200   -0.036700
      3          6           0        2.620400    0.092800   -0.025000
      4          6           0       -0.196000    0.030100    0.001000
      5          1           0       -0.020700    2.174200   -0.043400
      6          1           0        2.482800    2.208900   -0.036100
      7          1           0       -1.277700    0.039900    0.011700
      8          7           0        4.092100    0.095900    0.036600
      9          8           0        4.639300   -1.021700    0.144600
     10          8           0        4.664900    1.198400   -0.023300
     11          6           0        0.494300   -1.167100    0.021000
     12          1           0       -0.032500   -2.114900    0.054500
     13          6           0        1.962900   -1.216500   -0.021100
     14          1           0        2.443600   -1.963100    0.615100
     15         35           0        2.173000   -1.949100   -1.906200
 ---------------------------------------------------------------------
                    Distance matrix (angstroms):
                    1          2          3          4          5
     1  C    0.000000
     2  C    1.425668   0.000000
     3  C    2.390549   1.356796   0.000000
     4  C    1.399895   2.473566   2.817218   0.000000
     5  H    1.085168   2.163581   3.362733   2.151712   0.000000
     6  H    2.192654   1.082960   2.120598   3.453189   2.503751
     7  H    2.157452   3.449071   3.898632   1.081797   2.477564
     8  N    3.750012   2.448304   1.472992   4.288753   4.608780
     9  O    4.699917   3.541615   2.312322   4.950458   5.653735
    10  O    4.145753   2.721354   2.324292   4.999386   4.786171
    11  C    2.400813   2.835836   2.471794   1.382101   3.381369
    12  H    3.394169   3.920329   3.452266   2.151887   4.290233
    13  C    2.843264   2.485817   1.465124   2.493060   3.928360
    14  H    3.786370   3.334922   2.160489   3.364142   4.860416
    15  Br   4.046416   3.728900   2.812194   3.628609   5.028314
                    6          7          8          9         10
     6  H    0.000000
     7  H    4.341452   0.000000
     8  N    2.657047   5.370150   0.000000
     9  O    3.888434   6.012948   1.249048   0.000000
    10  O    2.404752   6.054572   1.243863   2.226587   0.000000
    11  C    3.918516   2.144043   3.813080   4.149391   4.794941
    12  H    5.003018   2.489080   4.679774   4.798846   5.748876
    13  C    3.464662   3.475788   2.501842   2.688591   3.623886
    14  H    4.222698   4.268978   2.700314   2.434893   3.916224
    15  Br   4.569706   4.420610   3.411663   3.338935   4.434144
                   11         12         13         14         15
    11  C    0.000000
    12  H    1.084880   0.000000
    13  C    1.470034   2.189625   0.000000
    14  H    2.187771   2.543302   1.092353   0.000000
    15  Br   2.672762   2.955683   2.033334   2.535818   0.000000
 Symmetry turned off by external request.
 Stoichiometry    C6H5BrNO2(1+)
 Framework group  C1[X(C6H5BrNO2)]
 Deg. of freedom    39
 Full point group                 C1      NOp   1
 Rotational constants (GHZ):           1.1632986           0.9594224           0.5957624
 Leave Link  202 at Thu May  2 13:58:24 2024, MaxMem=   134217728 cpu:               1.2 elap:               1.2
 (Enter /software/gaussian/g16-c01/sse4/g16/l301.exe)
 Standard basis: 6-311+G(d) (5D, 7F)
 Ernie: Thresh=  0.10000D-02 Tol=  0.10000D-05 Strict=F.
 The following finite field(s) will be applied:
 An electric field of              0.0000  0.0000 -0.0233
   261 basis functions,   443 primitive gaussians,   273 cartesian basis functions
    49 alpha electrons       49 beta electrons
       nuclear repulsion energy       772.8945969580 Hartrees.
 IExCor= 4639 DFT=T Ex+Corr=wB97XD ExCW=0 ScaHFX=  1.000000
 ScaDFX=  1.000000  1.000000  1.000000  1.000000 ScalE2=  1.000000  1.000000
 IRadAn=      5 IRanWt=     -1 IRanGd=            0 ICorTp=0 IEmpDi=121
 HFx  wShort=  0.000000 wLong=  0.200000 cFull=  0.222036 cShort=  0.000000 cLong=  0.777964
 DFx  wShort=  0.000000 wLong=  0.200000 cFull=  0.000000 cShort=  0.000000 cLong=  1.000000
 NAtoms=   15 NActive=   15 NUniq=   15 SFac= 1.00D+00 NAtFMM=   60 NAOKFM=F Big=F
 Integral buffers will be    131072 words long.
 Raffenetti 2 integral format.
 Two-electron integral symmetry is turned off.
 R6Disp:  Grimme-D2 Dispersion energy=       -0.0080346408 Hartrees.
 Nuclear repulsion after empirical dispersion term =      772.8865623173 Hartrees.
 Leave Link  301 at Thu May  2 13:58:25 2024, MaxMem=   134217728 cpu:               1.1 elap:               1.1
 (Enter /software/gaussian/g16-c01/sse4/g16/l302.exe)
 NPDir=0 NMtPBC=     1 NCelOv=     1 NCel=       1 NClECP=     1 NCelD=      1
         NCelK=      1 NCelE2=     1 NClLst=     1 CellRange=     0.0.
 One-electron integrals computed using PRISM.
 NBasis=   261 RedAO= T EigKep=  2.52D-06  NBF=   261
 NBsUse=   261 1.00D-06 EigRej= -1.00D+00 NBFU=   261
 Precomputing XC quadrature grid using
 IXCGrd= 4 IRadAn=           5 IRanWt=          -1 IRanGd=           0 AccXCQ= 0.00D+00.
 Generated NRdTot=       0 NPtTot=           0 NUsed=           0 NTot=          32
 NSgBfM=   273   273   273   273   273 MxSgAt=    15 MxSgA2=    15.
 Leave Link  302 at Thu May  2 13:58:47 2024, MaxMem=   134217728 cpu:              21.9 elap:              21.9
 (Enter /software/gaussian/g16-c01/sse4/g16/l303.exe)
 DipDrv:  MaxL=1.
 The nuclear repulsion energy is now       775.7681373521 hartrees.
 Leave Link  303 at Thu May  2 13:58:50 2024, MaxMem=   134217728 cpu:               3.3 elap:               3.3
 (Enter /software/gaussian/g16-c01/sse4/g16/l401.exe)
 ExpMin= 3.50D-02 ExpMax= 4.40D+05 ExpMxC= 1.51D+04 IAcc=3 IRadAn=         5 AccDes= 0.00D+00
 Harris functional with IExCor= 4639 and IRadAn=       5 diagonalized for initial guess.
 HarFok:  IExCor= 4639 AccDes= 0.00D+00 IRadAn=         5 IDoV= 1 UseB2=F ITyADJ=14
 ICtDFT=  3500011 ScaDFX=  1.000000  1.000000  1.000000  1.000000
 FoFCou: FMM=F IPFlag=           0 FMFlag=      100000 FMFlg1=           0
         NFxFlg=           0 DoJE=T BraDBF=F KetDBF=T FulRan=T
         wScrn=  0.000000 ICntrl=       500 IOpCl=  0 I1Cent=   200000004 NGrid=           0
         NMat0=    1 NMatS0=      1 NMatT0=    0 NMatD0=    1 NMtDS0=    0 NMtDT0=    0
 Symmetry not used in FoFCou.
 Harris En= -2970.71039983295    
 JPrj=0 DoOrth=F DoCkMO=F.
 Leave Link  401 at Thu May  2 13:59:21 2024, MaxMem=   134217728 cpu:              31.2 elap:              31.3
 (Enter /software/gaussian/g16-c01/sse4/g16/l502.exe)
 Two-electron integral symmetry not used.
 Closed shell SCF:
 Using DIIS extrapolation, IDIIS=  1040.
 NGot=   134217728 LenX=   134063053 LenY=   133988083
 Requested convergence on RMS density matrix=1.00D-08 within 128 cycles.
 Requested convergence on MAX density matrix=1.00D-06.
 Requested convergence on             energy=1.00D-06.
 No special actions if energy rises.
 Fock matrices will be formed incrementally for  20 cycles.

 Cycle   1  Pass 1  IDiag  1:
 FoFJK:  IHMeth= 1 ICntrl=       0 DoSepK=T KAlg= 0 I1Cent=           0 FoldK=F
 IRaf=         1 NMat=       1 IRICut=       1 DoRegI=T DoRafI=F ISym2E= 0 IDoP0=0 IntGTp=1.
 FoFCou: FMM=F IPFlag=           0 FMFlag=      100000 FMFlg1=           0
         NFxFlg=           0 DoJE=T BraDBF=F KetDBF=F FulRan=T
         wScrn=  0.000000 ICntrl=       500 IOpCl=  0 I1Cent=           0 NGrid=           0
         NMat0=    1 NMatS0=      1 NMatT0=    0 NMatD0=    1 NMtDS0=    0 NMtDT0=    0
 Symmetry not used in FoFCou.
 E= -3008.19629014238    
 DIIS: error= 2.92D-01 at cycle   1 NSaved=   1.
 NSaved= 1 IEnMin= 1 EnMin= -3008.19629014238     IErMin= 1 ErrMin= 2.92D-01
 ErrMax= 2.92D-01  0.00D+00 EMaxC= 1.00D-01 BMatC= 1.25D+01 BMatP= 1.25D+01
 IDIUse=3 WtCom= 0.00D+00 WtEn= 1.00D+00
 Coeff-Com:  0.100D+01
 Coeff-En:   0.100D+01
 Coeff:      0.100D+01
 Gap=     0.117 Goal=   None    Shift=    0.000
 GapD=    0.117 DampG=1.000 DampE=0.250 DampFc=0.2500 IDamp=-1.
 Damping current iteration by 2.50D-01
 RMSDP=2.77D+00 MaxDP=2.91D+02              OVMax= 8.55D-01

 Cycle   2  Pass 1  IDiag  1:
 RMSU=  2.79D-02    CP:  7.55D-01
 E= -3008.76555638704     Delta-E=       -0.569266244662 Rises=F Damp=T
 DIIS: error= 2.20D-01 at cycle   2 NSaved=   2.
 NSaved= 2 IEnMin= 2 EnMin= -3008.76555638704     IErMin= 2 ErrMin= 2.20D-01
 ErrMax= 2.20D-01  0.00D+00 EMaxC= 1.00D-01 BMatC= 5.63D+00 BMatP= 1.25D+01
 IDIUse=3 WtCom= 0.00D+00 WtEn= 1.00D+00
 Coeff-Com: -0.134D+01 0.234D+01
 Coeff-En:   0.174D+00 0.826D+00
 Coeff:      0.174D+00 0.826D+00
 Gap=     0.648 Goal=   None    Shift=    0.000
 RMSDP=2.08D+00 MaxDP=2.19D+02 DE=-5.69D-01 OVMax= 8.24D-01

 Cycle   3  Pass 1  IDiag  1:
 RMSU=  2.24D-02    CP:  1.77D-02  2.62D+00
 E= -3010.08219970292     Delta-E=       -1.316643315882 Rises=F Damp=F
 DIIS: error= 8.36D-02 at cycle   3 NSaved=   3.
 NSaved= 3 IEnMin= 3 EnMin= -3010.08219970292     IErMin= 3 ErrMin= 8.36D-02
 ErrMax= 8.36D-02  0.00D+00 EMaxC= 1.00D-01 BMatC= 1.44D+00 BMatP= 5.63D+00
 IDIUse=3 WtCom= 1.64D-01 WtEn= 8.36D-01
 Coeff-Com:  0.130D+00 0.119D+00 0.751D+00
 Coeff-En:   0.765D-01 0.000D+00 0.924D+00
 Coeff:      0.853D-01 0.195D-01 0.895D+00
 Gap=     0.274 Goal=   None    Shift=    0.000
 RMSDP=3.46D-02 MaxDP=2.76D+00 DE=-1.32D+00 OVMax= 2.87D-01

 Cycle   4  Pass 1  IDiag  1:
 RMSU=  2.93D-02    CP:  1.78D-02  1.98D+00  8.19D-01
 E= -3010.17919236368     Delta-E=       -0.096992660753 Rises=F Damp=F
 DIIS: error= 6.17D-02 at cycle   4 NSaved=   4.
 NSaved= 4 IEnMin= 4 EnMin= -3010.17919236368     IErMin= 4 ErrMin= 6.17D-02
 ErrMax= 6.17D-02  0.00D+00 EMaxC= 1.00D-01 BMatC= 9.26D-01 BMatP= 1.44D+00
 IDIUse=3 WtCom= 3.83D-01 WtEn= 6.17D-01
 Coeff-Com:  0.741D-01-0.569D-01 0.476D+00 0.506D+00
 Coeff-En:   0.000D+00 0.000D+00 0.440D+00 0.560D+00
 Coeff:      0.284D-01-0.218D-01 0.454D+00 0.540D+00
 Gap=     0.293 Goal=   None    Shift=    0.000
 RMSDP=1.87D-02 MaxDP=1.96D+00 DE=-9.70D-02 OVMax= 1.90D-01

 Cycle   5  Pass 1  IDiag  1:
 RMSU=  8.77D-03    CP:  1.48D-02  1.85D+00  8.39D-01  5.31D-01
 E= -3010.47953754210     Delta-E=       -0.300345178423 Rises=F Damp=F
 DIIS: error= 3.47D-02 at cycle   5 NSaved=   5.
 NSaved= 5 IEnMin= 5 EnMin= -3010.47953754210     IErMin= 5 ErrMin= 3.47D-02
 ErrMax= 3.47D-02  0.00D+00 EMaxC= 1.00D-01 BMatC= 8.98D-02 BMatP= 9.26D-01
 IDIUse=3 WtCom= 6.53D-01 WtEn= 3.47D-01
 Coeff-Com:  0.388D-01-0.420D-01 0.276D+00 0.342D+00 0.384D+00
 Coeff-En:   0.000D+00 0.000D+00 0.000D+00 0.116D+00 0.884D+00
 Coeff:      0.253D-01-0.274D-01 0.181D+00 0.264D+00 0.558D+00
 Gap=     0.284 Goal=   None    Shift=    0.000
 RMSDP=6.98D-03 MaxDP=5.86D-01 DE=-3.00D-01 OVMax= 1.70D-01

 Cycle   6  Pass 1  IDiag  1:
 RMSU=  4.21D-03    CP:  1.53D-02  1.69D+00  8.20D-01  6.01D-01  7.51D-01
 E= -3010.52195107079     Delta-E=       -0.042413528690 Rises=F Damp=F
 DIIS: error= 2.24D-02 at cycle   6 NSaved=   6.
 NSaved= 6 IEnMin= 6 EnMin= -3010.52195107079     IErMin= 6 ErrMin= 2.24D-02
 ErrMax= 2.24D-02  0.00D+00 EMaxC= 1.00D-01 BMatC= 3.25D-02 BMatP= 8.98D-02
 IDIUse=3 WtCom= 7.76D-01 WtEn= 2.24D-01
 Coeff-Com:  0.284D-02-0.412D-02 0.365D-01 0.629D-01 0.375D+00 0.527D+00
 Coeff-En:   0.000D+00 0.000D+00 0.000D+00 0.000D+00 0.299D+00 0.701D+00
 Coeff:      0.220D-02-0.320D-02 0.283D-01 0.489D-01 0.358D+00 0.566D+00
 Gap=     0.245 Goal=   None    Shift=    0.000
 RMSDP=3.12D-03 MaxDP=3.28D-01 DE=-4.24D-02 OVMax= 7.69D-02

 Cycle   7  Pass 1  IDiag  1:
 RMSU=  1.45D-03    CP:  1.58D-02  1.72D+00  8.48D-01  5.71D-01  9.01D-01
                    CP:  7.03D-01
 E= -3010.54326772379     Delta-E=       -0.021316653005 Rises=F Damp=F
 DIIS: error= 3.60D-03 at cycle   7 NSaved=   7.
 NSaved= 7 IEnMin= 7 EnMin= -3010.54326772379     IErMin= 7 ErrMin= 3.60D-03
 ErrMax= 3.60D-03  0.00D+00 EMaxC= 1.00D-01 BMatC= 1.23D-03 BMatP= 3.25D-02
 IDIUse=3 WtCom= 9.64D-01 WtEn= 3.60D-02
 Coeff-Com: -0.247D-03 0.518D-04-0.106D-01-0.768D-02 0.139D+00 0.313D+00
 Coeff-Com:  0.566D+00
 Coeff-En:   0.000D+00 0.000D+00 0.000D+00 0.000D+00 0.000D+00 0.000D+00
 Coeff-En:   0.100D+01
 Coeff:     -0.239D-03 0.500D-04-0.102D-01-0.741D-02 0.134D+00 0.302D+00
 Coeff:      0.582D+00
 Gap=     0.244 Goal=   None    Shift=    0.000
 RMSDP=9.56D-04 MaxDP=1.07D-01 DE=-2.13D-02 OVMax= 1.09D-02

 Cycle   8  Pass 1  IDiag  1:
 RMSU=  4.53D-04    CP:  1.57D-02  1.70D+00  8.39D-01  5.69D-01  9.26D-01
                    CP:  8.22D-01  8.82D-01
 E= -3010.54412316846     Delta-E=       -0.000855444664 Rises=F Damp=F
 DIIS: error= 6.38D-04 at cycle   8 NSaved=   8.
 NSaved= 8 IEnMin= 8 EnMin= -3010.54412316846     IErMin= 8 ErrMin= 6.38D-04
 ErrMax= 6.38D-04  0.00D+00 EMaxC= 1.00D-01 BMatC= 7.38D-05 BMatP= 1.23D-03
 IDIUse=3 WtCom= 9.94D-01 WtEn= 6.38D-03
 Coeff-Com: -0.143D-02 0.162D-02-0.778D-02-0.819D-02 0.144D-01 0.585D-01
 Coeff-Com:  0.261D+00 0.682D+00
 Coeff-En:   0.000D+00 0.000D+00 0.000D+00 0.000D+00 0.000D+00 0.000D+00
 Coeff-En:   0.000D+00 0.100D+01
 Coeff:     -0.142D-02 0.161D-02-0.773D-02-0.813D-02 0.143D-01 0.582D-01
 Coeff:      0.259D+00 0.684D+00
 Gap=     0.242 Goal=   None    Shift=    0.000
 RMSDP=3.14D-04 MaxDP=3.06D-02 DE=-8.55D-04 OVMax= 2.24D-03

 Cycle   9  Pass 1  IDiag  1:
 RMSU=  9.08D-05    CP:  1.58D-02  1.71D+00  8.40D-01  5.70D-01  9.35D-01
                    CP:  8.26D-01  9.54D-01  1.07D+00
 E= -3010.54418138679     Delta-E=       -0.000058218337 Rises=F Damp=F
 DIIS: error= 1.55D-04 at cycle   9 NSaved=   9.
 NSaved= 9 IEnMin= 9 EnMin= -3010.54418138679     IErMin= 9 ErrMin= 1.55D-04
 ErrMax= 1.55D-04  0.00D+00 EMaxC= 1.00D-01 BMatC= 5.16D-06 BMatP= 7.38D-05
 IDIUse=3 WtCom= 9.98D-01 WtEn= 1.55D-03
 Coeff-Com: -0.884D-03 0.115D-02-0.154D-02-0.168D-02-0.747D-02-0.944D-02
 Coeff-Com:  0.374D-01 0.257D+00 0.726D+00
 Coeff-En:   0.000D+00 0.000D+00 0.000D+00 0.000D+00 0.000D+00 0.000D+00
 Coeff-En:   0.000D+00 0.000D+00 0.100D+01
 Coeff:     -0.883D-03 0.114D-02-0.154D-02-0.168D-02-0.745D-02-0.942D-02
 Coeff:      0.373D-01 0.256D+00 0.726D+00
 Gap=     0.242 Goal=   None    Shift=    0.000
 RMSDP=9.97D-05 MaxDP=1.16D-02 DE=-5.82D-05 OVMax= 1.29D-03

 Cycle  10  Pass 1  IDiag  1:
 RMSU=  7.08D-05    CP:  1.58D-02  1.71D+00  8.39D-01  5.70D-01  9.31D-01
                    CP:  8.27D-01  9.46D-01  1.05D+00  8.79D-01
 E= -3010.54418900768     Delta-E=       -0.000007620886 Rises=F Damp=F
 DIIS: error= 8.54D-05 at cycle  10 NSaved=  10.
 NSaved=10 IEnMin=10 EnMin= -3010.54418900768     IErMin=10 ErrMin= 8.54D-05
 ErrMax= 8.54D-05  0.00D+00 EMaxC= 1.00D-01 BMatC= 1.15D-06 BMatP= 5.16D-06
 IDIUse=1 WtCom= 1.00D+00 WtEn= 0.00D+00
 Coeff-Com: -0.648D-03 0.915D-03 0.356D-03 0.415D-03-0.518D-02-0.121D-01
 Coeff-Com: -0.308D-01-0.255D-01 0.273D+00 0.799D+00
 Coeff:     -0.648D-03 0.915D-03 0.356D-03 0.415D-03-0.518D-02-0.121D-01
 Coeff:     -0.308D-01-0.255D-01 0.273D+00 0.799D+00
 Gap=     0.242 Goal=   None    Shift=    0.000
 RMSDP=5.21D-05 MaxDP=4.45D-03 DE=-7.62D-06 OVMax= 9.49D-04

 Cycle  11  Pass 1  IDiag  1:
 RMSU=  1.83D-05    CP:  1.58D-02  1.71D+00  8.39D-01  5.70D-01  9.29D-01
                    CP:  8.27D-01  9.42D-01  9.93D-01  9.17D-01  1.38D+00
 E= -3010.54419120862     Delta-E=       -0.000002200941 Rises=F Damp=F
 DIIS: error= 2.31D-05 at cycle  11 NSaved=  11.
 NSaved=11 IEnMin=11 EnMin= -3010.54419120862     IErMin=11 ErrMin= 2.31D-05
 ErrMax= 2.31D-05  0.00D+00 EMaxC= 1.00D-01 BMatC= 2.30D-07 BMatP= 1.15D-06
 IDIUse=1 WtCom= 1.00D+00 WtEn= 0.00D+00
 Coeff-Com: -0.388D-03 0.540D-03 0.208D-03 0.435D-03-0.217D-03-0.164D-02
 Coeff-Com: -0.170D-01-0.477D-01-0.287D-01 0.239D+00 0.856D+00
 Coeff:     -0.388D-03 0.540D-03 0.208D-03 0.435D-03-0.217D-03-0.164D-02
 Coeff:     -0.170D-01-0.477D-01-0.287D-01 0.239D+00 0.856D+00
 Gap=     0.242 Goal=   None    Shift=    0.000
 RMSDP=3.82D-05 MaxDP=3.67D-03 DE=-2.20D-06 OVMax= 6.21D-04

 Cycle  12  Pass 1  IDiag  1:
 RMSU=  8.57D-06    CP:  1.58D-02  1.71D+00  8.39D-01  5.70D-01  9.27D-01
                    CP:  8.27D-01  9.32D-01  9.80D-01  9.48D-01  1.58D+00
                    CP:  1.36D+00
 E= -3010.54419175709     Delta-E=       -0.000000548468 Rises=F Damp=F
 DIIS: error= 1.14D-05 at cycle  12 NSaved=  12.
 NSaved=12 IEnMin=12 EnMin= -3010.54419175709     IErMin=12 ErrMin= 1.14D-05
 ErrMax= 1.14D-05  0.00D+00 EMaxC= 1.00D-01 BMatC= 6.07D-08 BMatP= 2.30D-07
 IDIUse=1 WtCom= 1.00D+00 WtEn= 0.00D+00
 Coeff-Com: -0.166D-03 0.217D-03-0.721D-04 0.125D-03 0.102D-02 0.184D-02
 Coeff-Com:  0.707D-03-0.739D-02-0.663D-01-0.107D+00 0.275D+00 0.902D+00
 Coeff:     -0.166D-03 0.217D-03-0.721D-04 0.125D-03 0.102D-02 0.184D-02
 Coeff:      0.707D-03-0.739D-02-0.663D-01-0.107D+00 0.275D+00 0.902D+00
 Gap=     0.242 Goal=   None    Shift=    0.000
 RMSDP=2.36D-05 MaxDP=2.51D-03 DE=-5.48D-07 OVMax= 4.28D-04

 Cycle  13  Pass 1  IDiag  1:
 RMSU=  3.40D-06    CP:  1.58D-02  1.70D+00  8.39D-01  5.70D-01  9.26D-01
                    CP:  8.27D-01  9.28D-01  9.66D-01  9.29D-01  1.70D+00
                    CP:  1.69D+00  1.40D+00
 E= -3010.54419193778     Delta-E=       -0.000000180693 Rises=F Damp=F
 DIIS: error= 8.87D-06 at cycle  13 NSaved=  13.
 NSaved=13 IEnMin=13 EnMin= -3010.54419193778     IErMin=13 ErrMin= 8.87D-06
 ErrMax= 8.87D-06  0.00D+00 EMaxC= 1.00D-01 BMatC= 1.15D-08 BMatP= 6.07D-08
 IDIUse=1 WtCom= 1.00D+00 WtEn= 0.00D+00
 Coeff-Com: -0.250D-04 0.313D-04-0.443D-04-0.285D-04 0.220D-03 0.526D-03
 Coeff-Com:  0.438D-02 0.110D-01 0.139D-02-0.641D-01-0.173D+00 0.162D+00
 Coeff-Com:  0.106D+01
 Coeff:     -0.250D-04 0.313D-04-0.443D-04-0.285D-04 0.220D-03 0.526D-03
 Coeff:      0.438D-02 0.110D-01 0.139D-02-0.641D-01-0.173D+00 0.162D+00
 Coeff:      0.106D+01
 Gap=     0.242 Goal=   None    Shift=    0.000
 RMSDP=1.13D-05 MaxDP=1.15D-03 DE=-1.81D-07 OVMax= 2.54D-04

 Cycle  14  Pass 1  IDiag  1:
 RMSU=  1.82D-06    CP:  1.58D-02  1.70D+00  8.39D-01  5.70D-01  9.26D-01
                    CP:  8.27D-01  9.26D-01  9.60D-01  9.24D-01  1.75D+00
                    CP:  1.84D+00  1.83D+00  1.59D+00
 E= -3010.54419198552     Delta-E=       -0.000000047735 Rises=F Damp=F
 DIIS: error= 3.15D-06 at cycle  14 NSaved=  14.
 NSaved=14 IEnMin=14 EnMin= -3010.54419198552     IErMin=14 ErrMin= 3.15D-06
 ErrMax= 3.15D-06  0.00D+00 EMaxC= 1.00D-01 BMatC= 1.59D-09 BMatP= 1.15D-08
 IDIUse=1 WtCom= 1.00D+00 WtEn= 0.00D+00
 Coeff-Com:  0.127D-04-0.160D-04-0.571D-06-0.337D-04-0.147D-03-0.230D-03
 Coeff-Com:  0.146D-02 0.526D-02 0.144D-01 0.258D-03-0.119D+00-0.115D+00
 Coeff-Com:  0.373D+00 0.840D+00
 Coeff:      0.127D-04-0.160D-04-0.571D-06-0.337D-04-0.147D-03-0.230D-03
 Coeff:      0.146D-02 0.526D-02 0.144D-01 0.258D-03-0.119D+00-0.115D+00
 Coeff:      0.373D+00 0.840D+00
 Gap=     0.242 Goal=   None    Shift=    0.000
 RMSDP=2.83D-06 MaxDP=2.24D-04 DE=-4.77D-08 OVMax= 1.06D-04

 Cycle  15  Pass 1  IDiag  1:
 RMSU=  8.36D-07    CP:  1.58D-02  1.70D+00  8.39D-01  5.70D-01  9.26D-01
                    CP:  8.27D-01  9.26D-01  9.59D-01  9.23D-01  1.75D+00
                    CP:  1.90D+00  1.97D+00  1.87D+00  1.41D+00
 E= -3010.54419199398     Delta-E=       -0.000000008466 Rises=F Damp=F
 DIIS: error= 1.97D-06 at cycle  15 NSaved=  15.
 NSaved=15 IEnMin=15 EnMin= -3010.54419199398     IErMin=15 ErrMin= 1.97D-06
 ErrMax= 1.97D-06  0.00D+00 EMaxC= 1.00D-01 BMatC= 2.51D-10 BMatP= 1.59D-09
 IDIUse=1 WtCom= 1.00D+00 WtEn= 0.00D+00
 Coeff-Com:  0.132D-04-0.178D-04 0.507D-05-0.104D-05-0.492D-04-0.728D-04
 Coeff-Com: -0.639D-03-0.181D-02-0.397D-03 0.102D-01 0.259D-01-0.305D-01
 Coeff-Com: -0.160D+00 0.273D-01 0.113D+01
 Coeff:      0.132D-04-0.178D-04 0.507D-05-0.104D-05-0.492D-04-0.728D-04
 Coeff:     -0.639D-03-0.181D-02-0.397D-03 0.102D-01 0.259D-01-0.305D-01
 Coeff:     -0.160D+00 0.273D-01 0.113D+01
 Gap=     0.242 Goal=   None    Shift=    0.000
 RMSDP=2.13D-06 MaxDP=1.78D-04 DE=-8.47D-09 OVMax= 5.44D-05

 Cycle  16  Pass 1  IDiag  1:
 RMSU=  3.13D-07    CP:  1.58D-02  1.70D+00  8.39D-01  5.70D-01  9.26D-01
                    CP:  8.27D-01  9.26D-01  9.60D-01  9.24D-01  1.76D+00
                    CP:  1.92D+00  2.03D+00  2.00D+00  1.83D+00  1.41D+00
 E= -3010.54419199588     Delta-E=       -0.000000001898 Rises=F Damp=F
 DIIS: error= 7.99D-07 at cycle  16 NSaved=  16.
 NSaved=16 IEnMin=16 EnMin= -3010.54419199588     IErMin=16 ErrMin= 7.99D-07
 ErrMax= 7.99D-07  0.00D+00 EMaxC= 1.00D-01 BMatC= 7.24D-11 BMatP= 2.51D-10
 IDIUse=1 WtCom= 1.00D+00 WtEn= 0.00D+00
 Coeff-Com:  0.641D-05-0.896D-05-0.109D-06 0.203D-05 0.251D-04 0.569D-04
 Coeff-Com: -0.297D-03-0.119D-02-0.321D-02-0.170D-03 0.266D-01 0.211D-01
 Coeff-Com: -0.819D-01-0.178D+00 0.785D-01 0.114D+01
 Coeff:      0.641D-05-0.896D-05-0.109D-06 0.203D-05 0.251D-04 0.569D-04
 Coeff:     -0.297D-03-0.119D-02-0.321D-02-0.170D-03 0.266D-01 0.211D-01
 Coeff:     -0.819D-01-0.178D+00 0.785D-01 0.114D+01
 Gap=     0.242 Goal=   None    Shift=    0.000
 RMSDP=1.00D-06 MaxDP=7.77D-05 DE=-1.90D-09 OVMax= 2.68D-05

 Cycle  17  Pass 1  IDiag  1:
 RMSU=  1.65D-07    CP:  1.58D-02  1.70D+00  8.39D-01  5.70D-01  9.26D-01
                    CP:  8.27D-01  9.26D-01  9.60D-01  9.25D-01  1.76D+00
                    CP:  1.92D+00  2.05D+00  2.06D+00  2.00D+00  1.72D+00
                    CP:  1.37D+00
 E= -3010.54419199625     Delta-E=       -0.000000000366 Rises=F Damp=F
 DIIS: error= 2.17D-07 at cycle  17 NSaved=  17.
 NSaved=17 IEnMin=17 EnMin= -3010.54419199625     IErMin=17 ErrMin= 2.17D-07
 ErrMax= 2.17D-07  0.00D+00 EMaxC= 1.00D-01 BMatC= 1.51D-11 BMatP= 7.24D-11
 IDIUse=1 WtCom= 1.00D+00 WtEn= 0.00D+00
 Coeff-Com:  0.213D-05-0.296D-05-0.610D-06-0.368D-06 0.194D-04 0.361D-04
 Coeff-Com:  0.480D-04-0.222D-05-0.937D-03-0.240D-02 0.310D-02 0.125D-01
 Coeff-Com:  0.893D-02-0.610D-01-0.188D+00 0.337D+00 0.891D+00
 Coeff:      0.213D-05-0.296D-05-0.610D-06-0.368D-06 0.194D-04 0.361D-04
 Coeff:      0.480D-04-0.222D-05-0.937D-03-0.240D-02 0.310D-02 0.125D-01
 Coeff:      0.893D-02-0.610D-01-0.188D+00 0.337D+00 0.891D+00
 Gap=     0.242 Goal=   None    Shift=    0.000
 RMSDP=2.17D-07 MaxDP=1.88D-05 DE=-3.66D-10 OVMax= 8.31D-06

 Cycle  18  Pass 1  IDiag  1:
 RMSU=  4.67D-08    CP:  1.58D-02  1.70D+00  8.39D-01  5.70D-01  9.26D-01
                    CP:  8.27D-01  9.26D-01  9.60D-01  9.26D-01  1.76D+00
                    CP:  1.93D+00  2.05D+00  2.08D+00  2.04D+00  1.83D+00
                    CP:  1.50D+00  1.35D+00
 E= -3010.54419199630     Delta-E=       -0.000000000051 Rises=F Damp=F
 DIIS: error= 7.74D-08 at cycle  18 NSaved=  18.
 NSaved=18 IEnMin=18 EnMin= -3010.54419199630     IErMin=18 ErrMin= 7.74D-08
 ErrMax= 7.74D-08  0.00D+00 EMaxC= 1.00D-01 BMatC= 1.86D-12 BMatP= 1.51D-11
 IDIUse=1 WtCom= 1.00D+00 WtEn= 0.00D+00
 Coeff-Com:  0.267D-06-0.331D-06 0.406D-06-0.273D-06 0.348D-05 0.314D-05
 Coeff-Com:  0.590D-04 0.175D-03 0.219D-03-0.691D-03-0.339D-02 0.912D-05
 Coeff-Com:  0.162D-01 0.143D-01-0.542D-01-0.114D+00 0.185D+00 0.957D+00
 Coeff:      0.267D-06-0.331D-06 0.406D-06-0.273D-06 0.348D-05 0.314D-05
 Coeff:      0.590D-04 0.175D-03 0.219D-03-0.691D-03-0.339D-02 0.912D-05
 Coeff:      0.162D-01 0.143D-01-0.542D-01-0.114D+00 0.185D+00 0.957D+00
 Gap=     0.242 Goal=   None    Shift=    0.000
 RMSDP=6.55D-08 MaxDP=3.07D-06 DE=-5.09D-11 OVMax= 2.34D-06

 Cycle  19  Pass 1  IDiag  1:
 RMSU=  2.09D-08    CP:  1.58D-02  1.70D+00  8.39D-01  5.70D-01  9.26D-01
                    CP:  8.27D-01  9.26D-01  9.60D-01  9.26D-01  1.76D+00
                    CP:  1.93D+00  2.06D+00  2.08D+00  2.04D+00  1.85D+00
                    CP:  1.54D+00  1.51D+00  1.30D+00
 E= -3010.54419199636     Delta-E=       -0.000000000062 Rises=F Damp=F
 DIIS: error= 1.97D-08 at cycle  19 NSaved=  19.
 NSaved=19 IEnMin=19 EnMin= -3010.54419199636     IErMin=19 ErrMin= 1.97D-08
 ErrMax= 1.97D-08  0.00D+00 EMaxC= 1.00D-01 BMatC= 2.21D-13 BMatP= 1.86D-12
 IDIUse=1 WtCom= 1.00D+00 WtEn= 0.00D+00
 Coeff-Com:  0.586D-07-0.605D-07 0.219D-06-0.635D-07-0.741D-06-0.257D-05
 Coeff-Com:  0.909D-05 0.436D-04 0.146D-03 0.163D-04-0.129D-02-0.148D-02
 Coeff-Com:  0.244D-02 0.105D-01 0.140D-01-0.677D-01-0.652D-01 0.281D+00
 Coeff-Com:  0.827D+00
 Coeff:      0.586D-07-0.605D-07 0.219D-06-0.635D-07-0.741D-06-0.257D-05
 Coeff:      0.909D-05 0.436D-04 0.146D-03 0.163D-04-0.129D-02-0.148D-02
 Coeff:      0.244D-02 0.105D-01 0.140D-01-0.677D-01-0.652D-01 0.281D+00
 Coeff:      0.827D+00
 Gap=     0.242 Goal=   None    Shift=    0.000
 RMSDP=3.89D-08 MaxDP=3.13D-06 DE=-6.23D-11 OVMax= 5.73D-07

 Cycle  20  Pass 1  IDiag  1:
 RMSU=  7.72D-09    CP:  1.58D-02  1.70D+00  8.39D-01  5.70D-01  9.26D-01
                    CP:  8.27D-01  9.26D-01  9.60D-01  9.26D-01  1.76D+00
                    CP:  1.93D+00  2.06D+00  2.08D+00  2.04D+00  1.85D+00
                    CP:  1.54D+00  1.54D+00  1.42D+00  1.23D+00
 E= -3010.54419199631     Delta-E=        0.000000000046 Rises=F Damp=F
 DIIS: error= 9.34D-09 at cycle  20 NSaved=  20.
 NSaved=20 IEnMin=19 EnMin= -3010.54419199636     IErMin=20 ErrMin= 9.34D-09
 ErrMax= 9.34D-09  0.00D+00 EMaxC= 1.00D-01 BMatC= 2.85D-14 BMatP= 2.21D-13
 IDIUse=1 WtCom= 1.00D+00 WtEn= 0.00D+00
 Coeff-Com: -0.567D-07 0.748D-07-0.115D-08 0.753D-07-0.477D-06-0.953D-06
 Coeff-Com: -0.860D-05-0.206D-04-0.297D-05 0.131D-03 0.331D-03-0.256D-03
 Coeff-Com: -0.238D-02-0.289D-03 0.128D-01 0.164D-02-0.480D-01-0.747D-01
 Coeff-Com:  0.195D+00 0.915D+00
 Coeff:     -0.567D-07 0.748D-07-0.115D-08 0.753D-07-0.477D-06-0.953D-06
 Coeff:     -0.860D-05-0.206D-04-0.297D-05 0.131D-03 0.331D-03-0.256D-03
 Coeff:     -0.238D-02-0.289D-03 0.128D-01 0.164D-02-0.480D-01-0.747D-01
 Coeff:      0.195D+00 0.915D+00
 Gap=     0.242 Goal=   None    Shift=    0.000
 RMSDP=1.18D-08 MaxDP=1.18D-06 DE= 4.59D-11 OVMax= 2.17D-07

 Cycle  21  Pass 1  IDiag  1:
 Restarting incremental Fock formation.
 E= -3010.54419199634     Delta-E=       -0.000000000026 Rises=F Damp=F
 DIIS: error= 4.59D-09 at cycle  21 NSaved=  20.
 NSaved=20 IEnMin=18 EnMin= -3010.54419199636     IErMin=20 ErrMin= 4.59D-09
 ErrMax= 4.59D-09  0.00D+00 EMaxC= 1.00D-01 BMatC= 8.35D-15 BMatP= 2.85D-14
 IDIUse=1 WtCom= 1.00D+00 WtEn= 0.00D+00
 Large coefficients: NSaved= 20 BigCof=    0.00 CofMax=   10.00 Det=-1.89D-14
 Inversion failed.  Reducing to 19 matrices.
 Coeff-Com: -0.487D-08 0.418D-07 0.243D-07 0.674D-07-0.304D-05-0.125D-04
 Coeff-Com: -0.251D-04 0.249D-04 0.241D-03 0.128D-03-0.973D-03-0.166D-02
 Coeff-Com:  0.134D-02 0.110D-01 0.737D-03-0.497D-01-0.981D-01 0.201D+00
 Coeff-Com:  0.936D+00
 Coeff:     -0.487D-08 0.418D-07 0.243D-07 0.674D-07-0.304D-05-0.125D-04
 Coeff:     -0.251D-04 0.249D-04 0.241D-03 0.128D-03-0.973D-03-0.166D-02
 Coeff:      0.134D-02 0.110D-01 0.737D-03-0.497D-01-0.981D-01 0.201D+00
 Coeff:      0.936D+00
 Gap=     0.242 Goal=   None    Shift=    0.000
 RMSDP=7.40D-09 MaxDP=7.30D-07 DE=-2.64D-11 OVMax= 8.24D-08

 SCF Done:  E(RwB97XD) =  -3010.54419200     A.U. after   21 cycles
            NFock= 21  Conv=0.74D-08     -V/T= 2.0016
 KE= 3.005858622294D+03 PE=-8.702968469064D+03 EE= 1.910797517421D+03
 Leave Link  502 at Thu May  2 14:21:13 2024, MaxMem=   134217728 cpu:            1311.4 elap:            1311.8
 (Enter /software/gaussian/g16-c01/sse4/g16/l601.exe)
 Copying SCF densities to generalized density rwf, IOpCl= 0 IROHF=0.

 **********************************************************************

            Population analysis using the SCF Density.

 **********************************************************************

 Alpha  occ. eigenvalues -- -483.35290 -62.90360 -56.69985 -56.69509 -56.69505
 Alpha  occ. eigenvalues --  -19.46927 -19.46856 -14.86369 -10.60622 -10.60380
 Alpha  occ. eigenvalues --  -10.58763 -10.58655 -10.54770 -10.54063  -9.06198
 Alpha  occ. eigenvalues --   -6.88693  -6.87105  -6.87097  -2.98640  -2.98214
 Alpha  occ. eigenvalues --   -2.98206  -2.96934  -2.96934  -1.50577  -1.33520
 Alpha  occ. eigenvalues --   -1.24130  -1.15160  -1.13863  -1.07662  -1.01852
 Alpha  occ. eigenvalues --   -0.96897  -0.91944  -0.85940  -0.82028  -0.81350
 Alpha  occ. eigenvalues --   -0.80968  -0.79186  -0.77163  -0.76834  -0.74229
 Alpha  occ. eigenvalues --   -0.70002  -0.69001  -0.65588  -0.62908  -0.61007
 Alpha  occ. eigenvalues --   -0.58345  -0.57918  -0.56670  -0.56391
 Alpha virt. eigenvalues --   -0.32146  -0.21727  -0.20560  -0.17824  -0.14814
 Alpha virt. eigenvalues --   -0.14104  -0.12819  -0.10105  -0.08730  -0.07968
 Alpha virt. eigenvalues --   -0.05820  -0.05571  -0.03432  -0.02859  -0.02184
 Alpha virt. eigenvalues --   -0.01823  -0.00101   0.00724   0.01879   0.02068
 Alpha virt. eigenvalues --    0.03689   0.04459   0.04602   0.05183   0.06631
 Alpha virt. eigenvalues --    0.07372   0.07628   0.08031   0.08544   0.08886
 Alpha virt. eigenvalues --    0.09786   0.10907   0.11211   0.11856   0.12860
 Alpha virt. eigenvalues --    0.13148   0.13356   0.14249   0.14937   0.15622
 Alpha virt. eigenvalues --    0.16347   0.17664   0.17924   0.18517   0.19147
 Alpha virt. eigenvalues --    0.20137   0.20817   0.21862   0.22220   0.23200
 Alpha virt. eigenvalues --    0.24072   0.24958   0.26487   0.28099   0.28517
 Alpha virt. eigenvalues --    0.30313   0.32717   0.33389   0.33713   0.34948
 Alpha virt. eigenvalues --    0.36365   0.37539   0.38168   0.38992   0.40444
 Alpha virt. eigenvalues --    0.43041   0.43723   0.44517   0.46094   0.46967
 Alpha virt. eigenvalues --    0.47485   0.48785   0.49199   0.50187   0.52669
 Alpha virt. eigenvalues --    0.53583   0.55085   0.56964   0.57391   0.58997
 Alpha virt. eigenvalues --    0.59897   0.61150   0.62588   0.64844   0.67028
 Alpha virt. eigenvalues --    0.70307   0.70534   0.72148   0.72851   0.73488
 Alpha virt. eigenvalues --    0.73836   0.76668   0.79070   0.80089   0.84048
 Alpha virt. eigenvalues --    0.85339   0.86848   0.90578   0.92683   0.97911
 Alpha virt. eigenvalues --    0.99471   1.01217   1.02763   1.04416   1.06007
 Alpha virt. eigenvalues --    1.07754   1.12036   1.12738   1.13336   1.17048
 Alpha virt. eigenvalues --    1.20446   1.22178   1.27049   1.32197   1.35174
 Alpha virt. eigenvalues --    1.35738   1.37820   1.41436   1.53518   1.55634
 Alpha virt. eigenvalues --    1.56370   1.58873   1.60121   1.62893   1.64311
 Alpha virt. eigenvalues --    1.67200   1.70099   1.73166   1.74183   1.78186
 Alpha virt. eigenvalues --    1.82827   1.84162   1.86071   1.90418   1.92638
 Alpha virt. eigenvalues --    1.96713   2.00526   2.01765   2.05678   2.06893
 Alpha virt. eigenvalues --    2.11083   2.13206   2.21261   2.22830   2.26392
 Alpha virt. eigenvalues --    2.32442   2.39012   2.40695   2.43437   2.52075
 Alpha virt. eigenvalues --    2.57048   2.62069   2.64765   2.67599   2.71085
 Alpha virt. eigenvalues --    2.72852   2.75662   2.76487   2.79682   2.80801
 Alpha virt. eigenvalues --    2.91744   2.97037   3.00419   3.04465   3.07710
 Alpha virt. eigenvalues --    3.13686   3.15249   3.16501   3.21759   3.25857
 Alpha virt. eigenvalues --    3.26837   3.37047   3.45410   3.49147   3.53932
 Alpha virt. eigenvalues --    3.56552   3.68236   3.73572   3.82361   3.86012
 Alpha virt. eigenvalues --    4.05596   4.06401   4.15429   4.19413   4.39411
 Alpha virt. eigenvalues --    4.44441   4.53275   4.58994   4.92969   4.95854
 Alpha virt. eigenvalues --    5.04648   5.09172   5.61355   6.14570   6.63738
 Alpha virt. eigenvalues --    7.44350   7.46746   7.57054  23.20741  23.59999
 Alpha virt. eigenvalues --   23.69812  23.76538  23.94414  24.00838  35.30795
 Alpha virt. eigenvalues --   47.89961  49.84575  49.93240 289.77640 289.79985
 Alpha virt. eigenvalues --  289.926541020.91208
          Condensed to atoms (all electrons):
               1          2          3          4          5          6
     1  C    8.482224  -3.241682   1.402207  -0.310276   0.310297   0.042396
     2  C   -3.241682  19.349783  -6.585248   0.841281  -0.040412   0.177569
     3  C    1.402207  -6.585248  20.935790  -1.804891   0.053541   0.133819
     4  C   -0.310276   0.841281  -1.804891   6.682211  -0.001034  -0.017696
     5  H    0.310297  -0.040412   0.053541  -0.001034   0.324167  -0.001454
     6  H    0.042396   0.177569   0.133819  -0.017696  -0.001454   0.305736
     7  H    0.014204  -0.019364   0.025841   0.323311  -0.002615  -0.000006
     8  N   -0.149764   0.675172  -1.823040   0.029432  -0.000885  -0.031759
     9  O   -0.050519   0.119280  -0.455651  -0.003568  -0.000045  -0.002272
    10  O    0.274866  -0.551657   0.087758  -0.039020   0.000102   0.022036
    11  C    1.107556  -1.793690   2.298248  -0.461944  -0.022302   0.010456
    12  H   -0.010985   0.009607   0.016046  -0.000601   0.000012  -0.000018
    13  C   -1.738469  -2.977456  -7.905753   1.009953   0.027188   0.002925
    14  H   -0.003864   0.017443   0.034273   0.006642  -0.000021   0.000011
    15  Br  -0.077730  -0.062397  -0.312558   0.112447  -0.000087  -0.000577
               7          8          9         10         11         12
     1  C    0.014204  -0.149764  -0.050519   0.274866   1.107556  -0.010985
     2  C   -0.019364   0.675172   0.119280  -0.551657  -1.793690   0.009607
     3  C    0.025841  -1.823040  -0.455651   0.087758   2.298248   0.016046
     4  C    0.323311   0.029432  -0.003568  -0.039020  -0.461944  -0.000601
     5  H   -0.002615  -0.000885  -0.000045   0.000102  -0.022302   0.000012
     6  H   -0.000006  -0.031759  -0.002272   0.022036   0.010456  -0.000018
     7  H    0.328451   0.000011   0.000017  -0.000019   0.026075  -0.001992
     8  N    0.000011   7.723632   0.151425   0.039970  -0.263374   0.000091
     9  O    0.000017   0.151425   7.805979   0.008238   0.205604   0.000080
    10  O   -0.000019   0.039970   0.008238   7.905007   0.046420   0.000004
    11  C    0.026075  -0.263374   0.205604   0.046420   8.830846   0.326799
    12  H   -0.001992   0.000091   0.000080   0.000004   0.326799   0.307179
    13  C   -0.035607   0.755539   0.159265   0.135443  -4.071590  -0.007082
    14  H    0.000016  -0.014628   0.000363  -0.001896  -0.022680  -0.002569
    15  Br  -0.000340   0.105811  -0.031174  -0.004189  -0.084024  -0.004058
              13         14         15
     1  C   -1.738469  -0.003864  -0.077730
     2  C   -2.977456   0.017443  -0.062397
     3  C   -7.905753   0.034273  -0.312558
     4  C    1.009953   0.006642   0.112447
     5  H    0.027188  -0.000021  -0.000087
     6  H    0.002925   0.000011  -0.000577
     7  H   -0.035607   0.000016  -0.000340
     8  N    0.755539  -0.014628   0.105811
     9  O    0.159265   0.000363  -0.031174
    10  O    0.135443  -0.001896  -0.004189
    11  C   -4.071590  -0.022680  -0.084024
    12  H   -0.007082  -0.002569  -0.004058
    13  C   20.251383   0.282383   0.374296
    14  H    0.282383   0.237323  -0.018830
    15  Br   0.374296  -0.018830  35.053482
 Mulliken charges:
               1
     1  C   -0.050461
     2  C    0.081772
     3  C   -0.100382
     4  C   -0.366248
     5  H    0.353548
     6  H    0.358835
     7  H    0.342018
     8  N   -0.197633
     9  O    0.092979
    10  O    0.076937
    11  C   -0.132401
    12  H    0.367488
    13  C   -0.262418
    14  H    0.486035
    15  Br  -0.050071
 Sum of Mulliken charges =   1.00000
 Mulliken charges with hydrogens summed into heavy atoms:
               1
     1  C    0.303088
     2  C    0.440607
     3  C   -0.100382
     4  C   -0.024230
     8  N   -0.197633
     9  O    0.092979
    10  O    0.076937
    11  C    0.235087
    13  C    0.223617
    15  Br  -0.050071
 Electronic spatial extent (au):  <R**2>=           3951.5752
 Charge=              1.0000 electrons
 Dipole moment (field-independent basis, Debye):
    X=              2.4787    Y=             -0.0002    Z=              3.4436  Tot=              4.2429
 Quadrupole moment (field-independent basis, Debye-Ang):
   XX=            -67.7693   YY=            -52.6497   ZZ=            -68.0685
   XY=             -1.1800   XZ=              6.0746   YZ=             -1.6507
 Traceless Quadrupole moment (field-independent basis, Debye-Ang):
   XX=             -4.9401   YY=             10.1795   ZZ=             -5.2394
   XY=             -1.1800   XZ=              6.0746   YZ=             -1.6507
 Octapole moment (field-independent basis, Debye-Ang**2):
  XXX=           -509.8237  YYY=             99.3032  ZZZ=            106.1859  XYY=           -140.7228
  XXY=             28.3431  XXZ=             52.3860  XZZ=           -145.4253  YZZ=             28.9327
  YYZ=             39.4852  XYZ=             -1.1333
 Hexadecapole moment (field-independent basis, Debye-Ang**3):
 XXXX=          -3420.4586 YYYY=           -719.7886 ZZZZ=           -457.0605 XXXY=            187.3926
 XXXZ=            277.3680 YYYX=            200.8485 YYYZ=           -198.9350 ZZZX=            216.5557
 ZZZY=           -181.5605 XXYY=           -633.8314 XXZZ=           -558.8644 YYZZ=           -199.9546
 XXYZ=            -64.5577 YYXZ=             79.0216 ZZXY=             54.5572
 N-N= 7.757681373521D+02 E-N=-8.702968468704D+03  KE= 3.005858622294D+03
 No NMR shielding tensors so no spin-rotation constants.
 Leave Link  601 at Thu May  2 14:21:20 2024, MaxMem=   134217728 cpu:               7.3 elap:               7.4
 (Enter /software/gaussian/g16-c01/sse4/g16/l9999.exe)
 Unable to Open any file for archive entry.
 1\1\GINC-BHX0015\SP\RwB97XD\6-311+G(d)\C6H5Br1N1O2(1+)\BWEIGHT\02-May-
 2024\0\\#P wB97XD/6-311+G* NoSymm #P Field=Z-233\\TitleMe\\1,1\C,0,0.5
 193,1.233,-0.0319\C,0,1.9445,1.2692,-0.0367\C,0,2.6204,0.0928,-0.025\C
 ,0,-0.196,0.0301,0.001\H,0,-0.0207,2.1742,-0.0434\H,0,2.4828,2.2089,-0
 .0361\H,0,-1.2777,0.0399,0.0117\N,0,4.0921,0.0959,0.0366\O,0,4.6393,-1
 .0217,0.1446\O,0,4.6649,1.1984,-0.0233\C,0,0.4943,-1.1671,0.021\H,0,-0
 .0325,-2.1149,0.0545\C,0,1.9629,-1.2165,-0.0211\H,0,2.4436,-1.9631,0.6
 151\Br,0,2.173,-1.9491,-1.9062\\Version=ES64L-G16RevC.01\HF=-3010.5441
 92\RMSD=7.396e-09\Dipole=-3.3540127,1.2280517,2.6040191\Quadrupole=-3.
 6728388,7.5681786,-3.8953398,-0.8773078,4.5162834,-1.2272378\PG=C01 [X
 (C6H5Br1N1O2)]\\@
 The archive entry for this job was punched.


 SUPPORT THE RIGHT TO ARM BEARS!
 (ADD A CLAWS TO THE BILL OF RIGHTS)
 Job cpu time:       0 days  0 hours 23 minutes  1.2 seconds.
 Elapsed time:       0 days  0 hours 23 minutes  1.7 seconds.
 File lengths (MBytes):  RWF=     40 Int=      0 D2E=      0 Chk=     32 Scr=      1
 Normal termination of Gaussian 16 at Thu May  2 14:21:21 2024.
