 Entering Gaussian System, Link 0=g16
 Initial command:
 /software/gaussian/g16-c01/sse4/g16/l1.exe "/local_scratch/24657420/Gau-4868.inp" -scrdir="/local_scratch/24657420/"
 Entering Link 1 = /software/gaussian/g16-c01/sse4/g16/l1.exe PID=      4884.
  
 Copyright (c) 1988-2019, Gaussian, Inc.  All Rights Reserved.
  
 This is part of the Gaussian(R) 16 program.  It is based on
 the Gaussian(R) 09 system (copyright 2009, Gaussian, Inc.),
 the Gaussian(R) 03 system (copyright 2003, Gaussian, Inc.),
 the Gaussian(R) 98 system (copyright 1998, Gaussian, Inc.),
 the Gaussian(R) 94 system (copyright 1995, Gaussian, Inc.),
 the Gaussian 92(TM) system (copyright 1992, Gaussian, Inc.),
 the Gaussian 90(TM) system (copyright 1990, Gaussian, Inc.),
 the Gaussian 88(TM) system (copyright 1988, Gaussian, Inc.),
 the Gaussian 86(TM) system (copyright 1986, Carnegie Mellon
 University), and the Gaussian 82(TM) system (copyright 1983,
 Carnegie Mellon University). Gaussian is a federally registered
 trademark of Gaussian, Inc.
  
 This software contains proprietary and confidential information,
 including trade secrets, belonging to Gaussian, Inc.
  
 This software is provided under written license and may be
 used, copied, transmitted, or stored only in accord with that
 written license.
  
 The following legend is applicable only to US Government
 contracts under FAR:
  
                    RESTRICTED RIGHTS LEGEND
  
 Use, reproduction and disclosure by the US Government is
 subject to restrictions as set forth in subparagraphs (a)
 and (c) of the Commercial Computer Software - Restricted
 Rights clause in FAR 52.227-19.
  
 Gaussian, Inc.
 340 Quinnipiac St., Bldg. 40, Wallingford CT 06492
  
  
 ---------------------------------------------------------------
 Warning -- This program may not be used in any manner that
 competes with the business of Gaussian, Inc. or will provide
 assistance to any competitor of Gaussian, Inc.  The licensee
 of this program is prohibited from giving any competitor of
 Gaussian, Inc. access to this program.  By using this program,
 the user acknowledges that Gaussian, Inc. is engaged in the
 business of creating and licensing software in the field of
 computational chemistry and represents and warrants to the
 licensee that it is not a competitor of Gaussian, Inc. and that
 it will not use this program in any manner prohibited above.
 ---------------------------------------------------------------
  

 Cite this work as:
 Gaussian 16, Revision C.01,
 M. J. Frisch, G. W. Trucks, H. B. Schlegel, G. E. Scuseria, 
 M. A. Robb, J. R. Cheeseman, G. Scalmani, V. Barone, 
 G. A. Petersson, H. Nakatsuji, X. Li, M. Caricato, A. V. Marenich, 
 J. Bloino, B. G. Janesko, R. Gomperts, B. Mennucci, H. P. Hratchian, 
 J. V. Ortiz, A. F. Izmaylov, J. L. Sonnenberg, D. Williams-Young, 
 F. Ding, F. Lipparini, F. Egidi, J. Goings, B. Peng, A. Petrone, 
 T. Henderson, D. Ranasinghe, V. G. Zakrzewski, J. Gao, N. Rega, 
 G. Zheng, W. Liang, M. Hada, M. Ehara, K. Toyota, R. Fukuda, 
 J. Hasegawa, M. Ishida, T. Nakajima, Y. Honda, O. Kitao, H. Nakai, 
 T. Vreven, K. Throssell, J. A. Montgomery, Jr., J. E. Peralta, 
 F. Ogliaro, M. J. Bearpark, J. J. Heyd, E. N. Brothers, K. N. Kudin, 
 V. N. Staroverov, T. A. Keith, R. Kobayashi, J. Normand, 
 K. Raghavachari, A. P. Rendell, J. C. Burant, S. S. Iyengar, 
 J. Tomasi, M. Cossi, J. M. Millam, M. Klene, C. Adamo, R. Cammi, 
 J. W. Ochterski, R. L. Martin, K. Morokuma, O. Farkas, 
 J. B. Foresman, and D. J. Fox, Gaussian, Inc., Wallingford CT, 2019.
 
 ******************************************
 Gaussian 16:  ES64L-G16RevC.01  3-Jul-2019
                 1-May-2024 
 ******************************************
 %chk=geometry.chk
 %mem=9GB
 %nprocshared=12
 Will use up to   12 processors via shared memory.
 ----------------------------------------
 #P wB97XD/6-311+G* NoSymm #P Field=X-204
 ----------------------------------------
 1/38=1,172=1/1;
 2/12=2,15=1,17=6,18=5,40=1/2;
 3/5=4,6=6,7=11,11=2,14=1,15=-204,25=1,30=1,74=-58/1,2,3;
 4//1;
 5/5=2,38=5/2;
 6/7=2,8=2,9=2,10=2,28=1/1;
 99/5=1,9=1/99;
 Leave Link    1 at Wed May  1 14:27:44 2024, MaxMem=  1207959552 cpu:               1.7 elap:               1.7
 (Enter /software/gaussian/g16-c01/sse4/g16/l101.exe)
 -------
 TitleMe
 -------
 Symbolic Z-matrix:
 Charge =  1 Multiplicity = 1
 C                     0.0295    1.3397    0.0682 
 C                     1.4348    1.2867    0.0064 
 C                     2.1118    0.0511   -0.0054 
 C                     1.4451   -1.1372    0.0312 
 C                    -0.6879    0.1682    0.11 
 H                    -0.4713    2.2984    0.0781 
 H                     2.0273    2.1965   -0.0322 
 H                     1.9897   -2.0764    0.0232 
 H                    -1.7716    0.1804    0.1582 
 N                     3.5864    0.051    -0.0675 
 O                     4.1471   -1.0597   -0.0881 
 O                     4.145     1.1639   -0.0901 
 C                    -0.0236   -1.1458    0.0835 
 H                    -0.4367   -1.8725    0.7889 
 Br                   -0.5359   -1.8697   -1.7408 
 
 ITRead=  0  0  0  0  0  0  0  0  0  0  0  0  0  0  0
 MicOpt= -1 -1 -1 -1 -1 -1 -1 -1 -1 -1 -1 -1 -1 -1 -1
 NAtoms=     15 NQM=       15 NQMF=       0 NMMI=      0 NMMIF=      0
                NMic=       0 NMicF=      0.
                    Isotopes and Nuclear Properties:
 (Nuclear quadrupole moments (NQMom) in fm**2, nuclear magnetic moments (NMagM)
  in nuclear magnetons)

  Atom         1           2           3           4           5           6           7           8           9          10
 IAtWgt=          12          12          12          12          12           1           1           1           1          14
 AtmWgt=  12.0000000  12.0000000  12.0000000  12.0000000  12.0000000   1.0078250   1.0078250   1.0078250   1.0078250  14.0030740
 NucSpn=           0           0           0           0           0           1           1           1           1           2
 AtZEff=  -0.0000000  -0.0000000  -0.0000000  -0.0000000  -0.0000000  -0.0000000  -0.0000000  -0.0000000  -0.0000000  -0.0000000
 NQMom=    0.0000000   0.0000000   0.0000000   0.0000000   0.0000000   0.0000000   0.0000000   0.0000000   0.0000000   2.0440000
 NMagM=    0.0000000   0.0000000   0.0000000   0.0000000   0.0000000   2.7928460   2.7928460   2.7928460   2.7928460   0.4037610
 AtZNuc=   6.0000000   6.0000000   6.0000000   6.0000000   6.0000000   1.0000000   1.0000000   1.0000000   1.0000000   7.0000000

  Atom        11          12          13          14          15
 IAtWgt=          16          16          12           1          79
 AtmWgt=  15.9949146  15.9949146  12.0000000   1.0078250  78.9183361
 NucSpn=           0           0           0           1           3
 AtZEff=  -0.0000000  -0.0000000  -0.0000000  -0.0000000  -0.0000000
 NQMom=    0.0000000   0.0000000   0.0000000   0.0000000  31.3000000
 NMagM=    0.0000000   0.0000000   0.0000000   2.7928460   2.1063990
 AtZNuc=   8.0000000   8.0000000   6.0000000   1.0000000  35.0000000
 Leave Link  101 at Wed May  1 14:27:46 2024, MaxMem=  1207959552 cpu:               1.6 elap:               1.6
 (Enter /software/gaussian/g16-c01/sse4/g16/l202.exe)
                          Input orientation:                          
 ---------------------------------------------------------------------
 Center     Atomic      Atomic             Coordinates (Angstroms)
 Number     Number       Type             X           Y           Z
 ---------------------------------------------------------------------
      1          6           0        0.029500    1.339700    0.068200
      2          6           0        1.434800    1.286700    0.006400
      3          6           0        2.111800    0.051100   -0.005400
      4          6           0        1.445100   -1.137200    0.031200
      5          6           0       -0.687900    0.168200    0.110000
      6          1           0       -0.471300    2.298400    0.078100
      7          1           0        2.027300    2.196500   -0.032200
      8          1           0        1.989700   -2.076400    0.023200
      9          1           0       -1.771600    0.180400    0.158200
     10          7           0        3.586400    0.051000   -0.067500
     11          8           0        4.147100   -1.059700   -0.088100
     12          8           0        4.145000    1.163900   -0.090100
     13          6           0       -0.023600   -1.145800    0.083500
     14          1           0       -0.436700   -1.872500    0.788900
     15         35           0       -0.535900   -1.869700   -1.740800
 ---------------------------------------------------------------------
                    Distance matrix (angstroms):
                    1          2          3          4          5
     1  C    0.000000
     2  C    1.407656   0.000000
     3  C    2.449874   1.408963   0.000000
     4  C    2.853126   2.424049   1.363043   0.000000
     5  C    1.374344   2.401589   2.804523   2.501993   0.000000
     6  H    1.081667   2.159142   3.424870   3.934226   2.141421
     7  H    2.176095   1.086408   2.147231   3.384750   3.392128
     8  H    3.938800   3.408612   2.131193   1.085702   3.495040
     9  H    2.143837   3.395283   3.888995   3.478413   1.084840
    10  N    3.785591   2.482297   1.475907   2.450862   4.279589
    11  O    4.768247   3.587631   2.320164   2.705743   4.992415
    12  O    4.122294   2.714696   2.319353   3.549540   4.938459
    13  C    2.486114   2.837240   2.449573   1.469656   1.472614
    14  H    3.324903   3.754379   3.290289   2.157764   2.165286
    15  Br   3.727252   4.110867   3.702891   2.756973   2.757100
                    6          7          8          9         10
     6  H    0.000000
     7  H    2.503108   0.000000
     8  H    5.019802   4.273425   0.000000
     9  H    2.486588   4.304945   4.388479   0.000000
    10  N    4.640790   2.652397   2.661486   5.364313   0.000000
    11  O    5.712624   3.885809   2.387560   6.052233   1.244373
    12  O    4.756638   2.356750   3.893289   6.002923   1.245428
    13  C    3.473180   3.923079   2.218790   2.195425   3.806210
    14  H    4.231175   4.827242   2.552506   2.528663   4.540772
    15  Br   4.548146   5.101303   3.087568   3.055498   4.845862
                   11         12         13         14         15
    11  O    0.000000
    12  O    2.223602   0.000000
    13  C    4.175117   4.768865   0.000000
    14  H    4.737193   5.566358   1.093770   0.000000
    15  Br   5.031700   5.817075   2.028436   2.531646   0.000000
 Symmetry turned off by external request.
 Stoichiometry    C6H5BrNO2(1+)
 Framework group  C1[X(C6H5BrNO2)]
 Deg. of freedom    39
 Full point group                 C1      NOp   1
 Rotational constants (GHZ):           1.8252210           0.5518633           0.4576002
 Leave Link  202 at Wed May  1 14:27:47 2024, MaxMem=  1207959552 cpu:               1.2 elap:               1.2
 (Enter /software/gaussian/g16-c01/sse4/g16/l301.exe)
 Standard basis: 6-311+G(d) (5D, 7F)
 Ernie: Thresh=  0.10000D-02 Tol=  0.10000D-05 Strict=F.
 The following finite field(s) will be applied:
 An electric field of             -0.0204  0.0000  0.0000
   261 basis functions,   443 primitive gaussians,   273 cartesian basis functions
    49 alpha electrons       49 beta electrons
       nuclear repulsion energy       739.2122215416 Hartrees.
 IExCor= 4639 DFT=T Ex+Corr=wB97XD ExCW=0 ScaHFX=  1.000000
 ScaDFX=  1.000000  1.000000  1.000000  1.000000 ScalE2=  1.000000  1.000000
 IRadAn=      5 IRanWt=     -1 IRanGd=            0 ICorTp=0 IEmpDi=121
 HFx  wShort=  0.000000 wLong=  0.200000 cFull=  0.222036 cShort=  0.000000 cLong=  0.777964
 DFx  wShort=  0.000000 wLong=  0.200000 cFull=  0.000000 cShort=  0.000000 cLong=  1.000000
 NAtoms=   15 NActive=   15 NUniq=   15 SFac= 1.00D+00 NAtFMM=   60 NAOKFM=F Big=F
 Integral buffers will be    131072 words long.
 Raffenetti 2 integral format.
 Two-electron integral symmetry is turned off.
 R6Disp:  Grimme-D2 Dispersion energy=       -0.0077368520 Hartrees.
 Nuclear repulsion after empirical dispersion term =      739.2044846896 Hartrees.
 Leave Link  301 at Wed May  1 14:27:48 2024, MaxMem=  1207959552 cpu:               1.1 elap:               1.0
 (Enter /software/gaussian/g16-c01/sse4/g16/l302.exe)
 NPDir=0 NMtPBC=     1 NCelOv=     1 NCel=       1 NClECP=     1 NCelD=      1
         NCelK=      1 NCelE2=     1 NClLst=     1 CellRange=     0.0.
 One-electron integrals computed using PRISM.
 NBasis=   261 RedAO= T EigKep=  2.35D-06  NBF=   261
 NBsUse=   261 1.00D-06 EigRej= -1.00D+00 NBFU=   261
 Precomputing XC quadrature grid using
 IXCGrd= 4 IRadAn=           5 IRanWt=          -1 IRanGd=           0 AccXCQ= 0.00D+00.
 Generated NRdTot=       0 NPtTot=           0 NUsed=           0 NTot=          32
 NSgBfM=   273   273   273   273   273 MxSgAt=    15 MxSgA2=    15.
 Leave Link  302 at Wed May  1 14:28:10 2024, MaxMem=  1207959552 cpu:              21.6 elap:              21.6
 (Enter /software/gaussian/g16-c01/sse4/g16/l303.exe)
 DipDrv:  MaxL=1.
 The nuclear repulsion energy is now       735.3540424597 hartrees.
 Leave Link  303 at Wed May  1 14:28:13 2024, MaxMem=  1207959552 cpu:               3.3 elap:               3.4
 (Enter /software/gaussian/g16-c01/sse4/g16/l401.exe)
 ExpMin= 3.50D-02 ExpMax= 4.40D+05 ExpMxC= 1.51D+04 IAcc=3 IRadAn=         5 AccDes= 0.00D+00
 Harris functional with IExCor= 4639 and IRadAn=       5 diagonalized for initial guess.
 HarFok:  IExCor= 4639 AccDes= 0.00D+00 IRadAn=         5 IDoV= 1 UseB2=F ITyADJ=14
 ICtDFT=  3500011 ScaDFX=  1.000000  1.000000  1.000000  1.000000
 FoFCou: FMM=F IPFlag=           0 FMFlag=      100000 FMFlg1=           0
         NFxFlg=           0 DoJE=T BraDBF=F KetDBF=T FulRan=T
         wScrn=  0.000000 ICntrl=       500 IOpCl=  0 I1Cent=   200000004 NGrid=           0
         NMat0=    1 NMatS0=      1 NMatT0=    0 NMatD0=    1 NMtDS0=    0 NMtDT0=    0
 Symmetry not used in FoFCou.
 Harris En= -2971.14180235455    
 JPrj=0 DoOrth=F DoCkMO=F.
 Leave Link  401 at Wed May  1 14:28:44 2024, MaxMem=  1207959552 cpu:              30.6 elap:              30.6
 (Enter /software/gaussian/g16-c01/sse4/g16/l502.exe)
 Two-electron integral symmetry not used.
 Closed shell SCF:
 Using DIIS extrapolation, IDIIS=  1040.
 NGot=  1207959552 LenX=  1207804877 LenY=  1207729907
 Requested convergence on RMS density matrix=1.00D-08 within 128 cycles.
 Requested convergence on MAX density matrix=1.00D-06.
 Requested convergence on             energy=1.00D-06.
 No special actions if energy rises.
 Fock matrices will be formed incrementally for  20 cycles.

 Cycle   1  Pass 1  IDiag  1:
 FoFJK:  IHMeth= 1 ICntrl=       0 DoSepK=T KAlg= 0 I1Cent=           0 FoldK=F
 IRaf=         1 NMat=       1 IRICut=       1 DoRegI=T DoRafI=F ISym2E= 0 IDoP0=0 IntGTp=1.
 FoFCou: FMM=F IPFlag=           0 FMFlag=      100000 FMFlg1=           0
         NFxFlg=           0 DoJE=T BraDBF=F KetDBF=F FulRan=T
         wScrn=  0.000000 ICntrl=       500 IOpCl=  0 I1Cent=           0 NGrid=           0
         NMat0=    1 NMatS0=      1 NMatT0=    0 NMatD0=    1 NMtDS0=    0 NMtDT0=    0
 Symmetry not used in FoFCou.
 E= -3001.35862948363    
 DIIS: error= 3.19D-01 at cycle   1 NSaved=   1.
 NSaved= 1 IEnMin= 1 EnMin= -3001.35862948363     IErMin= 1 ErrMin= 3.19D-01
 ErrMax= 3.19D-01  0.00D+00 EMaxC= 1.00D-01 BMatC= 1.43D+01 BMatP= 1.43D+01
 IDIUse=3 WtCom= 0.00D+00 WtEn= 1.00D+00
 Coeff-Com:  0.100D+01
 Coeff-En:   0.100D+01
 Coeff:      0.100D+01
 Gap=     0.092 Goal=   None    Shift=    0.000
 GapD=    0.092 DampG=0.500 DampE=0.250 DampFc=0.2500 IDamp=-1.
 Damping current iteration by 2.50D-01
 RMSDP=9.82D+00 MaxDP=9.79D+02              OVMax= 9.96D-01

 Cycle   2  Pass 1  IDiag  1:
 RMSU=  2.01D-01    CP:  7.57D-01
 E= -3002.26032606945     Delta-E=       -0.901696585820 Rises=F Damp=T
 DIIS: error= 2.23D-01 at cycle   2 NSaved=   2.
 NSaved= 2 IEnMin= 2 EnMin= -3002.26032606945     IErMin= 2 ErrMin= 2.23D-01
 ErrMax= 2.23D-01  0.00D+00 EMaxC= 1.00D-01 BMatC= 6.32D+00 BMatP= 1.43D+01
 IDIUse=3 WtCom= 0.00D+00 WtEn= 1.00D+00
 Coeff-Com: -0.327D+00 0.133D+01
 Coeff-En:   0.448D+00 0.552D+00
 Coeff:      0.448D+00 0.552D+00
 Gap=     0.458 Goal=   None    Shift=    0.000
 RMSDP=7.57D+00 MaxDP=7.38D+02 DE=-9.02D-01 OVMax= 9.70D-01

 Cycle   3  Pass 1  IDiag  1:
 RMSU=  6.26D-02    CP:  4.32D-03  2.35D-01
 E= -2998.86977944006     Delta-E=        3.390546629390 Rises=F Damp=F
 DIIS: error= 1.42D-01 at cycle   3 NSaved=   3.
 NSaved= 3 IEnMin= 2 EnMin= -3002.26032606945     IErMin= 3 ErrMin= 1.42D-01
 ErrMax= 1.42D-01  0.00D+00 EMaxC= 1.00D-01 BMatC= 8.16D+00 BMatP= 6.32D+00
 IDIUse=2 WtCom= 0.00D+00 WtEn= 1.00D+00
 EnCoef did   100 forward-backward iterations
 Coeff-En:   0.539D+00 0.810D-02 0.453D+00
 Coeff:      0.539D+00 0.810D-02 0.453D+00
 Gap=    -0.208 Goal=   None    Shift=    0.000
 RMSDP=2.82D-02 MaxDP=1.73D+00 DE= 3.39D+00 OVMax= 7.85D-01

 Cycle   4  Pass 1  IDiag  1:
 RMSU=  2.60D-02    CP:  4.48D-03  1.92D-01  8.99D-01
 E= -3009.71092508173     Delta-E=      -10.841145641667 Rises=F Damp=F
 DIIS: error= 5.99D-02 at cycle   4 NSaved=   4.
 NSaved= 4 IEnMin= 4 EnMin= -3009.71092508173     IErMin= 4 ErrMin= 5.99D-02
 ErrMax= 5.99D-02  0.00D+00 EMaxC= 1.00D-01 BMatC= 1.14D+00 BMatP= 6.32D+00
 IDIUse=3 WtCom= 4.01D-01 WtEn= 5.99D-01
 Coeff-Com:  0.139D+00 0.525D-01 0.760D-01 0.733D+00
 Coeff-En:   0.419D-01 0.000D+00 0.000D+00 0.958D+00
 Coeff:      0.807D-01 0.211D-01 0.305D-01 0.868D+00
 Gap=     0.381 Goal=   None    Shift=    0.000
 RMSDP=3.92D-02 MaxDP=2.37D+00 DE=-1.08D+01 OVMax= 6.72D-01

 Cycle   5  Pass 1  IDiag  1:
 RMSU=  3.60D-02    CP:  4.39D-03  1.75D-01  6.60D-01  9.27D-01
 E= -3008.77924097581     Delta-E=        0.931684105922 Rises=F Damp=F
 DIIS: error= 6.91D-02 at cycle   5 NSaved=   5.
 NSaved= 5 IEnMin= 4 EnMin= -3009.71092508173     IErMin= 4 ErrMin= 5.99D-02
 ErrMax= 6.91D-02  0.00D+00 EMaxC= 1.00D-01 BMatC= 1.70D+00 BMatP= 1.14D+00
 IDIUse=2 WtCom= 0.00D+00 WtEn= 1.00D+00
 Coeff-En:   0.000D+00 0.000D+00 0.000D+00 0.672D+00 0.328D+00
 Coeff:      0.000D+00 0.000D+00 0.000D+00 0.672D+00 0.328D+00
 Gap=     0.073 Goal=   None    Shift=    0.000
 RMSDP=2.67D-02 MaxDP=2.77D+00 DE= 9.32D-01 OVMax= 8.62D-01

 Cycle   6  Pass 1  IDiag  1:
 RMSU=  1.72D-02    CP:  4.80D-03  1.33D-01  5.24D-01  8.32D-01  5.60D-01
 E= -3010.26534116662     Delta-E=       -1.486100190810 Rises=F Damp=F
 DIIS: error= 2.99D-02 at cycle   6 NSaved=   6.
 NSaved= 6 IEnMin= 6 EnMin= -3010.26534116662     IErMin= 6 ErrMin= 2.99D-02
 ErrMax= 2.99D-02  0.00D+00 EMaxC= 1.00D-01 BMatC= 2.85D-01 BMatP= 1.14D+00
 IDIUse=3 WtCom= 7.01D-01 WtEn= 2.99D-01
 Coeff-Com: -0.218D-01 0.496D-01 0.371D-01 0.292D+00 0.126D+00 0.517D+00
 Coeff-En:   0.000D+00 0.000D+00 0.000D+00 0.155D+00 0.000D+00 0.845D+00
 Coeff:     -0.153D-01 0.348D-01 0.260D-01 0.251D+00 0.881D-01 0.615D+00
 Gap=     0.201 Goal=   None    Shift=    0.000
 RMSDP=1.59D-02 MaxDP=1.29D+00 DE=-1.49D+00 OVMax= 4.18D-01

 Cycle   7  Pass 1  IDiag  1:
 RMSU=  6.95D-03    CP:  3.70D-03  1.29D-01  5.29D-01  6.73D-01  3.92D-01
                    CP:  7.05D-01
 E= -3010.49872125263     Delta-E=       -0.233380086007 Rises=F Damp=F
 DIIS: error= 2.01D-02 at cycle   7 NSaved=   7.
 NSaved= 7 IEnMin= 7 EnMin= -3010.49872125263     IErMin= 7 ErrMin= 2.01D-02
 ErrMax= 2.01D-02  0.00D+00 EMaxC= 1.00D-01 BMatC= 6.62D-02 BMatP= 2.85D-01
 IDIUse=3 WtCom= 7.99D-01 WtEn= 2.01D-01
 Coeff-Com: -0.260D-01 0.307D-01 0.993D-03 0.874D-01 0.404D-01 0.332D+00
 Coeff-Com:  0.534D+00
 Coeff-En:   0.000D+00 0.000D+00 0.000D+00 0.000D+00 0.000D+00 0.953D-01
 Coeff-En:   0.905D+00
 Coeff:     -0.208D-01 0.246D-01 0.794D-03 0.698D-01 0.322D-01 0.285D+00
 Coeff:      0.609D+00
 Gap=     0.153 Goal=   None    Shift=    0.000
 RMSDP=6.71D-03 MaxDP=3.53D-01 DE=-2.33D-01 OVMax= 9.56D-02

 Cycle   8  Pass 1  IDiag  1:
 RMSU=  3.87D-03    CP:  4.09D-03  1.33D-01  5.25D-01  7.49D-01  4.25D-01
                    CP:  7.85D-01  6.34D-01
 E= -3010.53732201492     Delta-E=       -0.038600762290 Rises=F Damp=F
 DIIS: error= 9.03D-03 at cycle   8 NSaved=   8.
 NSaved= 8 IEnMin= 8 EnMin= -3010.53732201492     IErMin= 8 ErrMin= 9.03D-03
 ErrMax= 9.03D-03  0.00D+00 EMaxC= 1.00D-01 BMatC= 1.34D-02 BMatP= 6.62D-02
 IDIUse=3 WtCom= 9.10D-01 WtEn= 9.03D-02
 Coeff-Com:  0.597D-03-0.242D-03-0.532D-02-0.123D-01 0.708D-03-0.131D-01
 Coeff-Com:  0.325D+00 0.704D+00
 Coeff-En:   0.000D+00 0.000D+00 0.000D+00 0.000D+00 0.000D+00 0.000D+00
 Coeff-En:   0.158D+00 0.842D+00
 Coeff:      0.543D-03-0.220D-03-0.484D-02-0.112D-01 0.644D-03-0.119D-01
 Coeff:      0.310D+00 0.717D+00
 Gap=     0.192 Goal=   None    Shift=    0.000
 RMSDP=2.84D-03 MaxDP=1.79D-01 DE=-3.86D-02 OVMax= 1.02D-01

 Cycle   9  Pass 1  IDiag  1:
 RMSU=  1.06D-03    CP:  3.89D-03  1.32D-01  5.27D-01  7.23D-01  4.05D-01
                    CP:  7.42D-01  7.73D-01  8.22D-01
 E= -3010.54974449738     Delta-E=       -0.012422482465 Rises=F Damp=F
 DIIS: error= 3.94D-03 at cycle   9 NSaved=   9.
 NSaved= 9 IEnMin= 9 EnMin= -3010.54974449738     IErMin= 9 ErrMin= 3.94D-03
 ErrMax= 3.94D-03  0.00D+00 EMaxC= 1.00D-01 BMatC= 2.06D-03 BMatP= 1.34D-02
 IDIUse=3 WtCom= 9.61D-01 WtEn= 3.94D-02
 Coeff-Com:  0.352D-02-0.427D-02-0.350D-02-0.934D-02-0.457D-02-0.165D-01
 Coeff-Com:  0.127D+00 0.409D+00 0.499D+00
 Coeff-En:   0.000D+00 0.000D+00 0.000D+00 0.000D+00 0.000D+00 0.000D+00
 Coeff-En:   0.000D+00 0.000D+00 0.100D+01
 Coeff:      0.338D-02-0.410D-02-0.336D-02-0.897D-02-0.439D-02-0.159D-01
 Coeff:      0.122D+00 0.393D+00 0.519D+00
 Gap=     0.194 Goal=   None    Shift=    0.000
 RMSDP=6.99D-04 MaxDP=3.72D-02 DE=-1.24D-02 OVMax= 2.75D-02

 Cycle  10  Pass 1  IDiag  1:
 RMSU=  4.66D-04    CP:  3.90D-03  1.32D-01  5.25D-01  7.26D-01  4.05D-01
                    CP:  7.39D-01  7.55D-01  9.42D-01  1.00D+00
 E= -3010.55157464933     Delta-E=       -0.001830151949 Rises=F Damp=F
 DIIS: error= 1.96D-03 at cycle  10 NSaved=  10.
 NSaved=10 IEnMin=10 EnMin= -3010.55157464933     IErMin=10 ErrMin= 1.96D-03
 ErrMax= 1.96D-03  0.00D+00 EMaxC= 1.00D-01 BMatC= 7.39D-04 BMatP= 2.06D-03
 IDIUse=3 WtCom= 9.80D-01 WtEn= 1.96D-02
 Coeff-Com:  0.398D-02-0.585D-02-0.202D-02 0.172D-02-0.403D-02 0.299D-03
 Coeff-Com: -0.542D-01 0.102D-01 0.363D+00 0.687D+00
 Coeff-En:   0.000D+00 0.000D+00 0.000D+00 0.000D+00 0.000D+00 0.000D+00
 Coeff-En:   0.000D+00 0.000D+00 0.000D+00 0.100D+01
 Coeff:      0.390D-02-0.574D-02-0.198D-02 0.169D-02-0.395D-02 0.293D-03
 Coeff:     -0.532D-01 0.996D-02 0.356D+00 0.693D+00
 Gap=     0.189 Goal=   None    Shift=    0.000
 RMSDP=6.95D-04 MaxDP=2.86D-02 DE=-1.83D-03 OVMax= 2.55D-02

 Cycle  11  Pass 1  IDiag  1:
 RMSU=  3.61D-04    CP:  3.91D-03  1.32D-01  5.22D-01  7.29D-01  4.09D-01
                    CP:  7.45D-01  7.23D-01  1.02D+00  1.32D+00  1.08D+00
 E= -3010.55273366447     Delta-E=       -0.001159015134 Rises=F Damp=F
 DIIS: error= 1.11D-03 at cycle  11 NSaved=  11.
 NSaved=11 IEnMin=11 EnMin= -3010.55273366447     IErMin=11 ErrMin= 1.11D-03
 ErrMax= 1.11D-03  0.00D+00 EMaxC= 1.00D-01 BMatC= 2.08D-04 BMatP= 7.39D-04
 IDIUse=3 WtCom= 9.89D-01 WtEn= 1.11D-02
 Coeff-Com:  0.222D-02-0.311D-02-0.308D-03 0.445D-02-0.269D-02 0.991D-02
 Coeff-Com: -0.412D-01-0.788D-01-0.189D+00-0.762D-01 0.137D+01
 Coeff-En:   0.000D+00 0.000D+00 0.000D+00 0.000D+00 0.000D+00 0.000D+00
 Coeff-En:   0.000D+00 0.000D+00 0.000D+00 0.000D+00 0.100D+01
 Coeff:      0.219D-02-0.307D-02-0.304D-03 0.440D-02-0.266D-02 0.980D-02
 Coeff:     -0.408D-01-0.780D-01-0.187D+00-0.754D-01 0.137D+01
 Gap=     0.184 Goal=   None    Shift=    0.000
 RMSDP=7.36D-04 MaxDP=2.90D-02 DE=-1.16D-03 OVMax= 2.86D-02

 Cycle  12  Pass 1  IDiag  1:
 RMSU=  1.66D-04    CP:  3.90D-03  1.32D-01  5.19D-01  7.34D-01  4.11D-01
                    CP:  7.44D-01  6.84D-01  1.11D+00  1.59D+00  1.60D+00
                    CP:  1.89D+00
 E= -3010.55334372894     Delta-E=       -0.000610064473 Rises=F Damp=F
 DIIS: error= 3.65D-04 at cycle  12 NSaved=  12.
 NSaved=12 IEnMin=12 EnMin= -3010.55334372894     IErMin=12 ErrMin= 3.65D-04
 ErrMax= 3.65D-04  0.00D+00 EMaxC= 1.00D-01 BMatC= 4.24D-05 BMatP= 2.08D-04
 IDIUse=3 WtCom= 9.96D-01 WtEn= 3.65D-03
 Coeff-Com:  0.306D-04 0.186D-03-0.301D-03 0.150D-02 0.137D-03 0.417D-02
 Coeff-Com:  0.154D-01-0.130D-02-0.209D+00-0.332D+00 0.626D+00 0.896D+00
 Coeff-En:   0.000D+00 0.000D+00 0.000D+00 0.000D+00 0.000D+00 0.000D+00
 Coeff-En:   0.000D+00 0.000D+00 0.000D+00 0.000D+00 0.000D+00 0.100D+01
 Coeff:      0.305D-04 0.186D-03-0.300D-03 0.149D-02 0.137D-03 0.416D-02
 Coeff:      0.154D-01-0.130D-02-0.208D+00-0.331D+00 0.624D+00 0.896D+00
 Gap=     0.181 Goal=   None    Shift=    0.000
 RMSDP=4.42D-04 MaxDP=1.88D-02 DE=-6.10D-04 OVMax= 1.05D-02

 Cycle  13  Pass 1  IDiag  1:
 RMSU=  7.09D-05    CP:  3.90D-03  1.33D-01  5.16D-01  7.36D-01  4.13D-01
                    CP:  7.46D-01  6.60D-01  1.16D+00  1.70D+00  1.77D+00
                    CP:  2.58D+00  1.29D+00
 E= -3010.55344037531     Delta-E=       -0.000096646367 Rises=F Damp=F
 DIIS: error= 9.71D-05 at cycle  13 NSaved=  13.
 NSaved=13 IEnMin=13 EnMin= -3010.55344037531     IErMin=13 ErrMin= 9.71D-05
 ErrMax= 9.71D-05  0.00D+00 EMaxC= 1.00D-01 BMatC= 1.13D-06 BMatP= 4.24D-05
 IDIUse=1 WtCom= 1.00D+00 WtEn= 0.00D+00
 Coeff-Com: -0.183D-04 0.115D-04-0.866D-04-0.343D-03 0.174D-03-0.293D-03
 Coeff-Com:  0.766D-02 0.115D-01-0.405D-02-0.173D-01-0.289D-01 0.700D-01
 Coeff-Com:  0.962D+00
 Coeff:     -0.183D-04 0.115D-04-0.866D-04-0.343D-03 0.174D-03-0.293D-03
 Coeff:      0.766D-02 0.115D-01-0.405D-02-0.173D-01-0.289D-01 0.700D-01
 Coeff:      0.962D+00
 Gap=     0.181 Goal=   None    Shift=    0.000
 RMSDP=6.10D-05 MaxDP=4.78D-03 DE=-9.66D-05 OVMax= 1.43D-03

 Cycle  14  Pass 1  IDiag  1:
 RMSU=  3.61D-05    CP:  3.90D-03  1.33D-01  5.16D-01  7.36D-01  4.14D-01
                    CP:  7.46D-01  6.61D-01  1.15D+00  1.70D+00  1.77D+00
                    CP:  2.56D+00  1.29D+00  1.05D+00
 E= -3010.55344479999     Delta-E=       -0.000004424680 Rises=F Damp=F
 DIIS: error= 4.41D-05 at cycle  14 NSaved=  14.
 NSaved=14 IEnMin=14 EnMin= -3010.55344479999     IErMin=14 ErrMin= 4.41D-05
 ErrMax= 4.41D-05  0.00D+00 EMaxC= 1.00D-01 BMatC= 5.92D-07 BMatP= 1.13D-06
 IDIUse=1 WtCom= 1.00D+00 WtEn= 0.00D+00
 Coeff-Com:  0.312D-04-0.679D-04-0.111D-04-0.258D-03 0.100D-03-0.716D-03
 Coeff-Com:  0.991D-03 0.414D-02 0.155D-01 0.223D-01-0.686D-01-0.791D-01
 Coeff-Com:  0.375D+00 0.731D+00
 Coeff:      0.312D-04-0.679D-04-0.111D-04-0.258D-03 0.100D-03-0.716D-03
 Coeff:      0.991D-03 0.414D-02 0.155D-01 0.223D-01-0.686D-01-0.791D-01
 Coeff:      0.375D+00 0.731D+00
 Gap=     0.181 Goal=   None    Shift=    0.000
 RMSDP=3.27D-05 MaxDP=1.59D-03 DE=-4.42D-06 OVMax= 1.34D-03

 Cycle  15  Pass 1  IDiag  1:
 RMSU=  1.20D-05    CP:  3.90D-03  1.33D-01  5.16D-01  7.36D-01  4.14D-01
                    CP:  7.46D-01  6.59D-01  1.15D+00  1.71D+00  1.78D+00
                    CP:  2.60D+00  1.30D+00  1.25D+00  1.18D+00
 E= -3010.55344706690     Delta-E=       -0.000002266916 Rises=F Damp=F
 DIIS: error= 2.70D-05 at cycle  15 NSaved=  15.
 NSaved=15 IEnMin=15 EnMin= -3010.55344706690     IErMin=15 ErrMin= 2.70D-05
 ErrMax= 2.70D-05  0.00D+00 EMaxC= 1.00D-01 BMatC= 1.32D-07 BMatP= 5.92D-07
 IDIUse=1 WtCom= 1.00D+00 WtEn= 0.00D+00
 Coeff-Com:  0.338D-04-0.505D-04 0.126D-04 0.248D-04 0.645D-04-0.295D-03
 Coeff-Com: -0.126D-02-0.621D-03 0.486D-02 0.905D-02-0.196D-01-0.508D-01
 Coeff-Com: -0.114D+00 0.237D+00 0.935D+00
 Coeff:      0.338D-04-0.505D-04 0.126D-04 0.248D-04 0.645D-04-0.295D-03
 Coeff:     -0.126D-02-0.621D-03 0.486D-02 0.905D-02-0.196D-01-0.508D-01
 Coeff:     -0.114D+00 0.237D+00 0.935D+00
 Gap=     0.181 Goal=   None    Shift=    0.000
 RMSDP=2.80D-05 MaxDP=1.12D-03 DE=-2.27D-06 OVMax= 1.28D-03

 Cycle  16  Pass 1  IDiag  1:
 RMSU=  1.00D-05    CP:  3.90D-03  1.33D-01  5.16D-01  7.36D-01  4.14D-01
                    CP:  7.46D-01  6.58D-01  1.15D+00  1.72D+00  1.79D+00
                    CP:  2.62D+00  1.32D+00  1.32D+00  1.45D+00  1.70D+00
 E= -3010.55344818889     Delta-E=       -0.000001121987 Rises=F Damp=F
 DIIS: error= 1.38D-05 at cycle  16 NSaved=  16.
 NSaved=16 IEnMin=16 EnMin= -3010.55344818889     IErMin=16 ErrMin= 1.38D-05
 ErrMax= 1.38D-05  0.00D+00 EMaxC= 1.00D-01 BMatC= 2.14D-08 BMatP= 1.32D-07
 IDIUse=1 WtCom= 1.00D+00 WtEn= 0.00D+00
 Coeff-Com:  0.795D-05-0.778D-05-0.178D-05 0.293D-04 0.203D-05-0.601D-05
 Coeff-Com: -0.477D-03-0.889D-03-0.101D-02-0.897D-03 0.590D-02-0.532D-03
 Coeff-Com: -0.983D-01-0.635D-01 0.154D+00 0.101D+01
 Coeff:      0.795D-05-0.778D-05-0.178D-05 0.293D-04 0.203D-05-0.601D-05
 Coeff:     -0.477D-03-0.889D-03-0.101D-02-0.897D-03 0.590D-02-0.532D-03
 Coeff:     -0.983D-01-0.635D-01 0.154D+00 0.101D+01
 Gap=     0.181 Goal=   None    Shift=    0.000
 RMSDP=1.41D-05 MaxDP=5.15D-04 DE=-1.12D-06 OVMax= 8.06D-04

 Cycle  17  Pass 1  IDiag  1:
 RMSU=  3.74D-06    CP:  3.90D-03  1.33D-01  5.16D-01  7.36D-01  4.14D-01
                    CP:  7.46D-01  6.57D-01  1.15D+00  1.73D+00  1.79D+00
                    CP:  2.63D+00  1.32D+00  1.34D+00  1.65D+00  2.15D+00
                    CP:  1.46D+00
 E= -3010.55344852984     Delta-E=       -0.000000340951 Rises=F Damp=F
 DIIS: error= 8.46D-06 at cycle  17 NSaved=  17.
 NSaved=17 IEnMin=17 EnMin= -3010.55344852984     IErMin=17 ErrMin= 8.46D-06
 ErrMax= 8.46D-06  0.00D+00 EMaxC= 1.00D-01 BMatC= 8.18D-09 BMatP= 2.14D-08
 IDIUse=1 WtCom= 1.00D+00 WtEn= 0.00D+00
 Coeff-Com: -0.170D-06 0.261D-05-0.406D-05-0.317D-05-0.134D-04 0.424D-04
 Coeff-Com:  0.189D-03-0.924D-04-0.110D-02-0.179D-02 0.404D-02 0.124D-01
 Coeff-Com:  0.107D-01-0.529D-01-0.255D+00 0.204D+00 0.108D+01
 Coeff:     -0.170D-06 0.261D-05-0.406D-05-0.317D-05-0.134D-04 0.424D-04
 Coeff:      0.189D-03-0.924D-04-0.110D-02-0.179D-02 0.404D-02 0.124D-01
 Coeff:      0.107D-01-0.529D-01-0.255D+00 0.204D+00 0.108D+01
 Gap=     0.181 Goal=   None    Shift=    0.000
 RMSDP=1.05D-05 MaxDP=3.48D-04 DE=-3.41D-07 OVMax= 6.00D-04

 Cycle  18  Pass 1  IDiag  1:
 RMSU=  1.82D-06    CP:  3.90D-03  1.33D-01  5.16D-01  7.36D-01  4.14D-01
                    CP:  7.46D-01  6.57D-01  1.15D+00  1.73D+00  1.80D+00
                    CP:  2.63D+00  1.32D+00  1.35D+00  1.78D+00  2.43D+00
                    CP:  1.93D+00  1.86D+00
 E= -3010.55344867137     Delta-E=       -0.000000141534 Rises=F Damp=F
 DIIS: error= 4.28D-06 at cycle  18 NSaved=  18.
 NSaved=18 IEnMin=18 EnMin= -3010.55344867137     IErMin=18 ErrMin= 4.28D-06
 ErrMax= 4.28D-06  0.00D+00 EMaxC= 1.00D-01 BMatC= 2.91D-09 BMatP= 8.18D-09
 IDIUse=1 WtCom= 1.00D+00 WtEn= 0.00D+00
 Coeff-Com: -0.208D-06-0.704D-06-0.110D-05-0.395D-05-0.691D-06 0.211D-05
 Coeff-Com:  0.263D-03 0.503D-03 0.297D-03-0.129D-03-0.229D-02 0.362D-02
 Coeff-Com:  0.384D-01 0.200D-01-0.122D+00-0.389D+00 0.240D+00 0.121D+01
 Coeff:     -0.208D-06-0.704D-06-0.110D-05-0.395D-05-0.691D-06 0.211D-05
 Coeff:      0.263D-03 0.503D-03 0.297D-03-0.129D-03-0.229D-02 0.362D-02
 Coeff:      0.384D-01 0.200D-01-0.122D+00-0.389D+00 0.240D+00 0.121D+01
 Gap=     0.181 Goal=   None    Shift=    0.000
 RMSDP=8.76D-06 MaxDP=3.04D-04 DE=-1.42D-07 OVMax= 4.99D-04

 Cycle  19  Pass 1  IDiag  1:
 RMSU=  1.23D-06    CP:  3.90D-03  1.33D-01  5.16D-01  7.36D-01  4.14D-01
                    CP:  7.46D-01  6.56D-01  1.15D+00  1.73D+00  1.80D+00
                    CP:  2.64D+00  1.33D+00  1.35D+00  1.90D+00  2.65D+00
                    CP:  2.28D+00  2.78D+00  2.15D+00
 E= -3010.55344872818     Delta-E=       -0.000000056804 Rises=F Damp=F
 DIIS: error= 2.82D-06 at cycle  19 NSaved=  19.
 NSaved=19 IEnMin=19 EnMin= -3010.55344872818     IErMin=19 ErrMin= 2.82D-06
 ErrMax= 2.82D-06  0.00D+00 EMaxC= 1.00D-01 BMatC= 5.43D-10 BMatP= 2.91D-09
 IDIUse=1 WtCom= 1.00D+00 WtEn= 0.00D+00
 Coeff-Com: -0.394D-06-0.508D-06 0.138D-05-0.441D-05 0.249D-06 0.715D-05
 Coeff-Com:  0.590D-04 0.149D-03 0.977D-04-0.996D-04-0.875D-03-0.531D-03
 Coeff-Com:  0.709D-02 0.840D-02 0.221D-01-0.111D+00-0.150D+00 0.254D+00
 Coeff-Com:  0.971D+00
 Coeff:     -0.394D-06-0.508D-06 0.138D-05-0.441D-05 0.249D-06 0.715D-05
 Coeff:      0.590D-04 0.149D-03 0.977D-04-0.996D-04-0.875D-03-0.531D-03
 Coeff:      0.709D-02 0.840D-02 0.221D-01-0.111D+00-0.150D+00 0.254D+00
 Coeff:      0.971D+00
 Gap=     0.181 Goal=   None    Shift=    0.000
 RMSDP=3.19D-06 MaxDP=1.51D-04 DE=-5.68D-08 OVMax= 1.56D-04

 Cycle  20  Pass 1  IDiag  1:
 RMSU=  6.14D-07    CP:  3.90D-03  1.33D-01  5.16D-01  7.36D-01  4.14D-01
                    CP:  7.46D-01  6.56D-01  1.15D+00  1.73D+00  1.80D+00
                    CP:  2.64D+00  1.33D+00  1.35D+00  1.94D+00  2.69D+00
                    CP:  2.39D+00  3.00D+00  2.88D+00  1.48D+00
 E= -3010.55344873654     Delta-E=       -0.000000008366 Rises=F Damp=F
 DIIS: error= 1.58D-06 at cycle  20 NSaved=  20.
 NSaved=20 IEnMin=20 EnMin= -3010.55344873654     IErMin=20 ErrMin= 1.58D-06
 ErrMax= 1.58D-06  0.00D+00 EMaxC= 1.00D-01 BMatC= 2.21D-10 BMatP= 5.43D-10
 IDIUse=1 WtCom= 1.00D+00 WtEn= 0.00D+00
 Coeff-Com: -0.778D-06 0.101D-05 0.633D-06-0.714D-06-0.220D-06 0.825D-05
 Coeff-Com: -0.348D-04-0.916D-04-0.263D-04 0.117D-04 0.740D-03-0.613D-03
 Coeff-Com: -0.584D-02-0.397D-02 0.331D-01 0.637D-01-0.928D-01-0.231D+00
 Coeff-Com:  0.159D+00 0.108D+01
 Coeff:     -0.778D-06 0.101D-05 0.633D-06-0.714D-06-0.220D-06 0.825D-05
 Coeff:     -0.348D-04-0.916D-04-0.263D-04 0.117D-04 0.740D-03-0.613D-03
 Coeff:     -0.584D-02-0.397D-02 0.331D-01 0.637D-01-0.928D-01-0.231D+00
 Coeff:      0.159D+00 0.108D+01
 Gap=     0.181 Goal=   None    Shift=    0.000
 RMSDP=1.75D-06 MaxDP=9.40D-05 DE=-8.37D-09 OVMax= 7.14D-05

 Cycle  21  Pass 1  IDiag  1:
 Restarting incremental Fock formation.
 E= -3010.55344873934     Delta-E=       -0.000000002792 Rises=F Damp=F
 DIIS: error= 6.18D-07 at cycle  21 NSaved=  20.
 NSaved=20 IEnMin=20 EnMin= -3010.55344873934     IErMin=20 ErrMin= 6.18D-07
 ErrMax= 6.18D-07  0.00D+00 EMaxC= 1.00D-01 BMatC= 9.57D-11 BMatP= 2.21D-10
 IDIUse=1 WtCom= 1.00D+00 WtEn= 0.00D+00
 Coeff-Com: -0.120D-05 0.189D-05 0.133D-05-0.102D-05 0.289D-05-0.317D-04
 Coeff-Com: -0.862D-04 0.239D-04 0.146D-03 0.465D-03-0.157D-03-0.278D-02
 Coeff-Com: -0.271D-02 0.448D-02 0.321D-01 0.138D-01-0.824D-01-0.270D+00
 Coeff-Com:  0.405D+00 0.902D+00
 Coeff:     -0.120D-05 0.189D-05 0.133D-05-0.102D-05 0.289D-05-0.317D-04
 Coeff:     -0.862D-04 0.239D-04 0.146D-03 0.465D-03-0.157D-03-0.278D-02
 Coeff:     -0.271D-02 0.448D-02 0.321D-01 0.138D-01-0.824D-01-0.270D+00
 Coeff:      0.405D+00 0.902D+00
 Gap=     0.181 Goal=   None    Shift=    0.000
 RMSDP=8.22D-07 MaxDP=4.44D-05 DE=-2.79D-09 OVMax= 3.63D-05

 Cycle  22  Pass 1  IDiag  1:
 RMSU=  8.22D-07    CP:  1.00D+00
 E= -3010.55344873992     Delta-E=       -0.000000000586 Rises=F Damp=F
 DIIS: error= 2.81D-07 at cycle  22 NSaved=  20.
 NSaved=20 IEnMin=20 EnMin= -3010.55344873992     IErMin=20 ErrMin= 2.81D-07
 ErrMax= 2.81D-07  0.00D+00 EMaxC= 1.00D-01 BMatC= 2.75D-11 BMatP= 9.57D-11
 IDIUse=1 WtCom= 1.00D+00 WtEn= 0.00D+00
 Coeff-Com:  0.147D-06 0.139D-05-0.719D-06-0.437D-05-0.152D-04-0.890D-05
 Coeff-Com:  0.564D-04 0.114D-03-0.947D-04-0.193D-03 0.207D-03 0.942D-03
 Coeff-Com:  0.963D-03-0.195D-01 0.953D-04 0.719D-01-0.788D-01-0.109D+00
 Coeff-Com: -0.185D+00 0.132D+01
 Coeff:      0.147D-06 0.139D-05-0.719D-06-0.437D-05-0.152D-04-0.890D-05
 Coeff:      0.564D-04 0.114D-03-0.947D-04-0.193D-03 0.207D-03 0.942D-03
 Coeff:      0.963D-03-0.195D-01 0.953D-04 0.719D-01-0.788D-01-0.109D+00
 Coeff:     -0.185D+00 0.132D+01
 Gap=     0.181 Goal=   None    Shift=    0.000
 RMSDP=5.29D-07 MaxDP=2.48D-05 DE=-5.86D-10 OVMax= 1.94D-05

 Cycle  23  Pass 1  IDiag  1:
 RMSU=  1.66D-07    CP:  1.00D+00  1.61D+00
 E= -3010.55344874008     Delta-E=       -0.000000000161 Rises=F Damp=F
 DIIS: error= 1.21D-07 at cycle  23 NSaved=  20.
 NSaved=20 IEnMin=20 EnMin= -3010.55344874008     IErMin=20 ErrMin= 1.21D-07
 ErrMax= 1.21D-07  0.00D+00 EMaxC= 1.00D-01 BMatC= 5.06D-12 BMatP= 2.75D-11
 IDIUse=1 WtCom= 1.00D+00 WtEn= 0.00D+00
 Coeff-Com:  0.246D-06 0.130D-06-0.850D-06 0.433D-05 0.364D-05-0.310D-04
 Coeff-Com: -0.679D-04-0.164D-04 0.900D-04-0.906D-04-0.318D-03 0.114D-02
 Coeff-Com: -0.412D-02-0.117D-01 0.189D-01 0.296D-01 0.176D-01-0.301D+00
 Coeff-Com:  0.142D+00 0.111D+01
 Coeff:      0.246D-06 0.130D-06-0.850D-06 0.433D-05 0.364D-05-0.310D-04
 Coeff:     -0.679D-04-0.164D-04 0.900D-04-0.906D-04-0.318D-03 0.114D-02
 Coeff:     -0.412D-02-0.117D-01 0.189D-01 0.296D-01 0.176D-01-0.301D+00
 Coeff:      0.142D+00 0.111D+01
 Gap=     0.181 Goal=   None    Shift=    0.000
 RMSDP=2.38D-07 MaxDP=9.05D-06 DE=-1.61D-10 OVMax= 1.20D-05

 Cycle  24  Pass 1  IDiag  1:
 RMSU=  1.90D-07    CP:  1.00D+00  1.75D+00  1.49D+00
 E= -3010.55344874017     Delta-E=       -0.000000000087 Rises=F Damp=F
 DIIS: error= 4.98D-08 at cycle  24 NSaved=  20.
 NSaved=20 IEnMin=20 EnMin= -3010.55344874017     IErMin=20 ErrMin= 4.98D-08
 ErrMax= 4.98D-08  0.00D+00 EMaxC= 1.00D-01 BMatC= 6.70D-13 BMatP= 5.06D-12
 IDIUse=1 WtCom= 1.00D+00 WtEn= 0.00D+00
 Coeff-Com: -0.249D-06 0.447D-06 0.152D-05 0.202D-06-0.283D-05-0.329D-05
 Coeff-Com: -0.720D-05 0.275D-04-0.421D-04 0.918D-04-0.115D-04 0.169D-02
 Coeff-Com: -0.226D-02-0.533D-02 0.951D-02 0.371D-01-0.364D-01-0.157D+00
 Coeff-Com:  0.859D-01 0.107D+01
 Coeff:     -0.249D-06 0.447D-06 0.152D-05 0.202D-06-0.283D-05-0.329D-05
 Coeff:     -0.720D-05 0.275D-04-0.421D-04 0.918D-04-0.115D-04 0.169D-02
 Coeff:     -0.226D-02-0.533D-02 0.951D-02 0.371D-01-0.364D-01-0.157D+00
 Coeff:      0.859D-01 0.107D+01
 Gap=     0.181 Goal=   None    Shift=    0.000
 RMSDP=6.09D-08 MaxDP=3.35D-06 DE=-8.73D-11 OVMax= 2.37D-06

 Cycle  25  Pass 1  IDiag  1:
 RMSU=  2.49D-08    CP:  1.00D+00  1.80D+00  1.63D+00  1.13D+00
 E= -3010.55344874014     Delta-E=        0.000000000027 Rises=F Damp=F
 DIIS: error= 2.78D-08 at cycle  25 NSaved=  20.
 NSaved=20 IEnMin=19 EnMin= -3010.55344874017     IErMin=20 ErrMin= 2.78D-08
 ErrMax= 2.78D-08  0.00D+00 EMaxC= 1.00D-01 BMatC= 9.51D-14 BMatP= 6.70D-13
 IDIUse=1 WtCom= 1.00D+00 WtEn= 0.00D+00
 Coeff-Com:  0.247D-06-0.103D-05-0.723D-06 0.497D-05 0.126D-04-0.102D-04
 Coeff-Com: -0.161D-04 0.259D-04 0.157D-03-0.835D-04 0.356D-03 0.125D-02
 Coeff-Com: -0.257D-02-0.229D-02 0.239D-02 0.306D-01-0.352D-01-0.157D+00
 Coeff-Com:  0.135D+00 0.103D+01
 Coeff:      0.247D-06-0.103D-05-0.723D-06 0.497D-05 0.126D-04-0.102D-04
 Coeff:     -0.161D-04 0.259D-04 0.157D-03-0.835D-04 0.356D-03 0.125D-02
 Coeff:     -0.257D-02-0.229D-02 0.239D-02 0.306D-01-0.352D-01-0.157D+00
 Coeff:      0.135D+00 0.103D+01
 Gap=     0.181 Goal=   None    Shift=    0.000
 RMSDP=3.18D-08 MaxDP=2.19D-06 DE= 2.73D-11 OVMax= 1.09D-06

 Cycle  26  Pass 1  IDiag  1:
 RMSU=  1.45D-08    CP:  1.00D+00  1.82D+00  1.64D+00  1.25D+00  1.40D+00
 E= -3010.55344874017     Delta-E=       -0.000000000025 Rises=F Damp=F
 DIIS: error= 1.81D-08 at cycle  26 NSaved=  20.
 NSaved=20 IEnMin=18 EnMin= -3010.55344874017     IErMin=20 ErrMin= 1.81D-08
 ErrMax= 1.81D-08  0.00D+00 EMaxC= 1.00D-01 BMatC= 2.80D-14 BMatP= 9.51D-14
 IDIUse=1 WtCom= 1.00D+00 WtEn= 0.00D+00
 Coeff-Com:  0.157D-06 0.111D-05 0.156D-05 0.214D-05-0.259D-05-0.181D-07
 Coeff-Com:  0.432D-04-0.189D-05-0.157D-03-0.681D-04 0.125D-02-0.128D-03
 Coeff-Com: -0.360D-02-0.747D-02 0.204D-01 0.177D-01-0.642D-01-0.160D+00
 Coeff-Com:  0.238D+00 0.958D+00
 Coeff:      0.157D-06 0.111D-05 0.156D-05 0.214D-05-0.259D-05-0.181D-07
 Coeff:      0.432D-04-0.189D-05-0.157D-03-0.681D-04 0.125D-02-0.128D-03
 Coeff:     -0.360D-02-0.747D-02 0.204D-01 0.177D-01-0.642D-01-0.160D+00
 Coeff:      0.238D+00 0.958D+00
 Gap=     0.181 Goal=   None    Shift=    0.000
 RMSDP=1.67D-08 MaxDP=1.40D-06 DE=-2.46D-11 OVMax= 7.65D-07

 Cycle  27  Pass 1  IDiag  1:
 RMSU=  4.78D-09    CP:  1.00D+00  1.83D+00  1.63D+00  1.28D+00  1.57D+00
                    CP:  1.65D+00
 E= -3010.55344874016     Delta-E=        0.000000000005 Rises=F Damp=F
 DIIS: error= 1.06D-08 at cycle  27 NSaved=  20.
 NSaved=20 IEnMin=17 EnMin= -3010.55344874017     IErMin=20 ErrMin= 1.06D-08
 ErrMax= 1.06D-08  0.00D+00 EMaxC= 1.00D-01 BMatC= 7.61D-15 BMatP= 2.80D-14
 IDIUse=1 WtCom= 1.00D+00 WtEn= 0.00D+00
 Large coefficients: NSaved= 20 BigCof=    0.00 CofMax=   10.00 Det=-6.90D-15
 Inversion failed.  Reducing to 19 matrices.
 Large coefficients: NSaved= 19 BigCof=    0.00 CofMax=   10.00 Det=-8.97D-15
 Inversion failed.  Reducing to 18 matrices.
 Large coefficients: NSaved= 18 BigCof=    0.00 CofMax=   10.00 Det=-9.04D-15
 Inversion failed.  Reducing to 17 matrices.
 Large coefficients: NSaved= 17 BigCof=    0.00 CofMax=   10.00 Det=-9.04D-15
 Inversion failed.  Reducing to 16 matrices.
 Large coefficients: NSaved= 16 BigCof=    0.00 CofMax=   10.00 Det=-9.47D-15
 Inversion failed.  Reducing to 15 matrices.
 Coeff-Com: -0.101D-06-0.381D-04-0.352D-04-0.493D-04 0.816D-05 0.443D-03
 Coeff-Com:  0.574D-03-0.298D-02-0.189D-02 0.665D-02 0.208D-01-0.122D-01
 Coeff-Com: -0.220D+00-0.119D+00 0.133D+01
 Coeff:     -0.101D-06-0.381D-04-0.352D-04-0.493D-04 0.816D-05 0.443D-03
 Coeff:      0.574D-03-0.298D-02-0.189D-02 0.665D-02 0.208D-01-0.122D-01
 Coeff:     -0.220D+00-0.119D+00 0.133D+01
 Gap=     0.181 Goal=   None    Shift=    0.000
 RMSDP=1.41D-08 MaxDP=1.19D-06 DE= 4.55D-12 OVMax= 6.25D-07

 Cycle  28  Pass 1  IDiag  1:
 RMSU=  3.99D-09    CP:  1.00D+00  1.83D+00  1.63D+00  1.29D+00  1.70D+00
                    CP:  2.25D+00  1.84D+00
 E= -3010.55344874015     Delta-E=        0.000000000017 Rises=F Damp=F
 DIIS: error= 5.46D-09 at cycle  28 NSaved=  16.
 NSaved=16 IEnMin=12 EnMin= -3010.55344874017     IErMin=16 ErrMin= 5.46D-09
 ErrMax= 5.46D-09  0.00D+00 EMaxC= 1.00D-01 BMatC= 1.86D-15 BMatP= 7.61D-15
 IDIUse=1 WtCom= 1.00D+00 WtEn= 0.00D+00
 Large coefficients: NSaved= 16 BigCof=    0.00 CofMax=   10.00 Det=-1.74D-15
 Inversion failed.  Reducing to 15 matrices.
 Coeff-Com: -0.677D-06 0.822D-05-0.540D-04-0.162D-03 0.149D-03 0.919D-03
 Coeff-Com:  0.312D-03-0.293D-02-0.321D-02 0.140D-01 0.319D-01-0.104D+00
 Coeff-Com: -0.215D+00 0.196D+00 0.108D+01
 Coeff:     -0.677D-06 0.822D-05-0.540D-04-0.162D-03 0.149D-03 0.919D-03
 Coeff:      0.312D-03-0.293D-02-0.321D-02 0.140D-01 0.319D-01-0.104D+00
 Coeff:     -0.215D+00 0.196D+00 0.108D+01
 Gap=     0.181 Goal=   None    Shift=    0.000
 RMSDP=7.08D-09 MaxDP=5.56D-07 DE= 1.73D-11 OVMax= 3.39D-07

 SCF Done:  E(RwB97XD) =  -3010.55344874     A.U. after   28 cycles
            NFock= 28  Conv=0.71D-08     -V/T= 2.0016
 KE= 3.005855776533D+03 PE=-8.628372191583D+03 EE= 1.876608923850D+03
 Leave Link  502 at Wed May  1 14:55:59 2024, MaxMem=  1207959552 cpu:            1635.5 elap:            1635.8
 (Enter /software/gaussian/g16-c01/sse4/g16/l601.exe)
 Copying SCF densities to generalized density rwf, IOpCl= 0 IROHF=0.

 **********************************************************************

            Population analysis using the SCF Density.

 **********************************************************************

 Alpha  occ. eigenvalues -- -483.29972 -62.85023 -56.64675 -56.64162 -56.64156
 Alpha  occ. eigenvalues --  -19.35771 -19.35709 -14.75306 -10.56570 -10.54470
 Alpha  occ. eigenvalues --  -10.53611 -10.52695 -10.52016 -10.51048  -9.00848
 Alpha  occ. eigenvalues --   -6.83411  -6.81720  -6.81699  -2.93342  -2.92893
 Alpha  occ. eigenvalues --   -2.92875  -2.91521  -2.91521  -1.39434  -1.22300
 Alpha  occ. eigenvalues --   -1.19436  -1.10784  -1.08308  -1.02329  -0.95558
 Alpha  occ. eigenvalues --   -0.92275  -0.86799  -0.81190  -0.76944  -0.75837
 Alpha  occ. eigenvalues --   -0.73391  -0.72334  -0.70763  -0.68817  -0.66302
 Alpha  occ. eigenvalues --   -0.66070  -0.63548  -0.60610  -0.57582  -0.55613
 Alpha  occ. eigenvalues --   -0.52999  -0.46509  -0.44984  -0.44957
 Alpha virt. eigenvalues --   -0.26894  -0.15607  -0.15100  -0.13457  -0.10699
 Alpha virt. eigenvalues --   -0.08850  -0.07805  -0.06911  -0.03844  -0.03357
 Alpha virt. eigenvalues --   -0.02390  -0.01100  -0.00300   0.00126   0.01017
 Alpha virt. eigenvalues --    0.02397   0.03068   0.03299   0.04124   0.04491
 Alpha virt. eigenvalues --    0.05426   0.07255   0.08208   0.08423   0.09322
 Alpha virt. eigenvalues --    0.09804   0.10580   0.11660   0.11989   0.12895
 Alpha virt. eigenvalues --    0.14209   0.15038   0.15407   0.16312   0.17107
 Alpha virt. eigenvalues --    0.18137   0.19003   0.19590   0.21196   0.22414
 Alpha virt. eigenvalues --    0.22919   0.23654   0.25221   0.25608   0.27411
 Alpha virt. eigenvalues --    0.28769   0.29810   0.30556   0.30969   0.31421
 Alpha virt. eigenvalues --    0.32370   0.32931   0.34665   0.35746   0.36836
 Alpha virt. eigenvalues --    0.37657   0.38952   0.39207   0.40901   0.41567
 Alpha virt. eigenvalues --    0.43007   0.44064   0.44331   0.46062   0.46816
 Alpha virt. eigenvalues --    0.48375   0.49015   0.49888   0.50403   0.51980
 Alpha virt. eigenvalues --    0.53411   0.53720   0.53918   0.55938   0.57261
 Alpha virt. eigenvalues --    0.59248   0.59628   0.60692   0.62639   0.64050
 Alpha virt. eigenvalues --    0.64736   0.66347   0.66896   0.68817   0.69984
 Alpha virt. eigenvalues --    0.72850   0.74099   0.75731   0.76434   0.78027
 Alpha virt. eigenvalues --    0.81004   0.84051   0.86299   0.88057   0.88856
 Alpha virt. eigenvalues --    0.89829   0.94019   0.97069   0.99819   1.05311
 Alpha virt. eigenvalues --    1.05788   1.08383   1.09076   1.11001   1.12514
 Alpha virt. eigenvalues --    1.15133   1.18371   1.22265   1.23183   1.25957
 Alpha virt. eigenvalues --    1.30321   1.32350   1.34053   1.36733   1.40178
 Alpha virt. eigenvalues --    1.40791   1.41266   1.48341   1.58635   1.61369
 Alpha virt. eigenvalues --    1.62742   1.62980   1.66988   1.68870   1.69916
 Alpha virt. eigenvalues --    1.73663   1.76349   1.76601   1.81851   1.83046
 Alpha virt. eigenvalues --    1.84324   1.91134   1.92153   1.94708   1.97323
 Alpha virt. eigenvalues --    2.02917   2.07119   2.08300   2.10867   2.11970
 Alpha virt. eigenvalues --    2.13470   2.18145   2.23862   2.28413   2.32659
 Alpha virt. eigenvalues --    2.41516   2.46884   2.48086   2.49572   2.55740
 Alpha virt. eigenvalues --    2.59917   2.66882   2.69830   2.72199   2.78528
 Alpha virt. eigenvalues --    2.82164   2.83752   2.85596   2.86512   2.91461
 Alpha virt. eigenvalues --    2.96461   2.99973   3.08304   3.10924   3.13380
 Alpha virt. eigenvalues --    3.16428   3.19211   3.23112   3.27940   3.33279
 Alpha virt. eigenvalues --    3.37929   3.45096   3.50748   3.56831   3.60802
 Alpha virt. eigenvalues --    3.65816   3.79756   3.84328   3.85756   3.90989
 Alpha virt. eigenvalues --    4.09899   4.10142   4.17905   4.23027   4.43935
 Alpha virt. eigenvalues --    4.54995   4.60746   4.68933   5.03919   5.06690
 Alpha virt. eigenvalues --    5.15313   5.19470   5.73054   6.26406   6.65665
 Alpha virt. eigenvalues --    7.48569   7.50144   7.60073  23.24422  23.64544
 Alpha virt. eigenvalues --   23.71640  23.83064  23.98795  24.05471  35.42632
 Alpha virt. eigenvalues --   47.92386  49.95713  50.04526 289.81742 289.83410
 Alpha virt. eigenvalues --  289.958841020.92850
          Condensed to atoms (all electrons):
               1          2          3          4          5          6
     1  C   10.901628  -3.744778   0.284125  -2.391427  -1.121090   0.298719
     2  C   -3.744778  15.138717  -2.574927  -1.374441   0.449996   0.028087
     3  C    0.284125  -2.574927  14.725122  -4.712849  -1.374707   0.029242
     4  C   -2.391427  -1.374441  -4.712849  18.584097   1.023098   0.014417
     5  C   -1.121090   0.449996  -1.374707   1.023098   9.439417  -0.024484
     6  H    0.298719   0.028087   0.029242   0.014417  -0.024484   0.379719
     7  H    0.117264   0.168175   0.074199  -0.041056  -0.015853  -0.001707
     8  H    0.013500  -0.029872   0.105052   0.149632  -0.037934  -0.000004
     9  H    0.083539  -0.063205   0.024587  -0.026284   0.217071  -0.003845
    10  N   -0.295616   0.480072  -1.009854   0.470986  -0.011333  -0.000712
    11  O   -0.006886  -0.167701  -0.253394   0.048374  -0.081468  -0.000030
    12  O    0.476533  -0.036506  -0.250518  -0.230059  -0.045735   0.000116
    13  C    1.919906  -2.760712   1.613713  -5.804443  -2.409168  -0.009876
    14  H   -0.041163   0.026856  -0.018905  -0.093117   0.110106  -0.000022
    15  Br   0.019962   0.057335  -0.042866   0.054843  -0.081448  -0.000202
               7          8          9         10         11         12
     1  C    0.117264   0.013500   0.083539  -0.295616  -0.006886   0.476533
     2  C    0.168175  -0.029872  -0.063205   0.480072  -0.167701  -0.036506
     3  C    0.074199   0.105052   0.024587  -1.009854  -0.253394  -0.250518
     4  C   -0.041056   0.149632  -0.026284   0.470986   0.048374  -0.230059
     5  C   -0.015853  -0.037934   0.217071  -0.011333  -0.081468  -0.045735
     6  H   -0.001707  -0.000004  -0.003845  -0.000712  -0.000030   0.000116
     7  H    0.272686   0.000016   0.000048  -0.029460  -0.001645   0.034907
     8  H    0.000016   0.266718   0.000110  -0.026384   0.033007  -0.000595
     9  H    0.000048   0.000110   0.432686   0.000180   0.000020   0.000014
    10  N   -0.029460  -0.026384   0.000180   7.822117   0.010251  -0.019814
    11  O   -0.001645   0.033007   0.000020   0.010251   7.845626   0.021572
    12  O    0.034907  -0.000595   0.000014  -0.019814   0.021572   7.879748
    13  C    0.021845   0.117485   0.088592  -0.281486   0.421514   0.038627
    14  H   -0.000029  -0.002539  -0.008276   0.001674  -0.000500  -0.000090
    15  Br   0.000135   0.009073   0.002493   0.011470  -0.000320   0.002222
              13         14         15
     1  C    1.919906  -0.041163   0.019962
     2  C   -2.760712   0.026856   0.057335
     3  C    1.613713  -0.018905  -0.042866
     4  C   -5.804443  -0.093117   0.054843
     5  C   -2.409168   0.110106  -0.081448
     6  H   -0.009876  -0.000022  -0.000202
     7  H    0.021845  -0.000029   0.000135
     8  H    0.117485  -0.002539   0.009073
     9  H    0.088592  -0.008276   0.002493
    10  N   -0.281486   0.001674   0.011470
    11  O    0.421514  -0.000500  -0.000320
    12  O    0.038627  -0.000090   0.002222
    13  C   13.088900   0.329690   0.110070
    14  H    0.329690   0.379374  -0.053640
    15  Br   0.110070  -0.053640  34.844347
 Mulliken charges:
               1
     1  C   -0.514215
     2  C    0.402905
     3  C   -0.618019
     4  C    0.328227
     5  C   -0.036469
     6  H    0.290581
     7  H    0.400475
     8  H    0.402735
     9  H    0.252271
    10  N   -0.122091
    11  O    0.131580
    12  O    0.129577
    13  C   -0.484660
    14  H    0.370578
    15  Br   0.066526
 Sum of Mulliken charges =   1.00000
 Mulliken charges with hydrogens summed into heavy atoms:
               1
     1  C   -0.223634
     2  C    0.803379
     3  C   -0.618019
     4  C    0.730962
     5  C    0.215802
    10  N   -0.122091
    11  O    0.131580
    12  O    0.129577
    13  C   -0.114082
    15  Br   0.066526
 Electronic spatial extent (au):  <R**2>=           2789.3903
 Charge=              1.0000 electrons
 Dipole moment (field-independent basis, Debye):
    X=              5.4820    Y=              0.0963    Z=              0.4724  Tot=              5.5032
 Quadrupole moment (field-independent basis, Debye-Ang):
   XX=            -56.6766   YY=            -52.8137   ZZ=            -64.2817
   XY=              0.1767   XZ=             -0.5252   YZ=              0.2452
 Traceless Quadrupole moment (field-independent basis, Debye-Ang):
   XX=              1.2474   YY=              5.1103   ZZ=             -6.3577
   XY=              0.1767   XZ=             -0.5252   YZ=              0.2452
 Octapole moment (field-independent basis, Debye-Ang**2):
  XXX=           -212.4421  YYY=             92.8472  ZZZ=             81.3667  XYY=            -61.5246
  XXY=             33.0997  XXZ=             32.8840  XZZ=            -71.2627  YZZ=             19.8268
  YYZ=             28.6161  XYZ=             -0.3760
 Hexadecapole moment (field-independent basis, Debye-Ang**3):
 XXXX=          -1917.1900 YYYY=           -690.4098 ZZZZ=           -360.6527 XXXY=            -69.8533
 XXXZ=            -32.6567 YYYX=            -67.4735 YYYZ=           -165.0177 ZZZX=            -26.8441
 ZZZY=           -144.5272 XXYY=           -430.1503 XXZZ=           -366.7334 YYZZ=           -171.8775
 XXYZ=            -58.8489 YYXZ=             -9.3467 ZZXY=            -14.8828
 N-N= 7.353540424597D+02 E-N=-8.628372191726D+03  KE= 3.005855776533D+03
 No NMR shielding tensors so no spin-rotation constants.
 Leave Link  601 at Wed May  1 14:56:07 2024, MaxMem=  1207959552 cpu:               7.3 elap:               7.3
 (Enter /software/gaussian/g16-c01/sse4/g16/l9999.exe)
 Unable to Open any file for archive entry.
 1\1\GINC-BHX0006\SP\RwB97XD\6-311+G(d)\C6H5Br1N1O2(1+)\BWEIGHT\01-May-
 2024\0\\#P wB97XD/6-311+G* NoSymm #P Field=X-204\\TitleMe\\1,1\C,0,0.0
 295,1.3397,0.0682\C,0,1.4348,1.2867,0.0064\C,0,2.1118,0.0511,-0.0054\C
 ,0,1.4451,-1.1372,0.0312\C,0,-0.6879,0.1682,0.11\H,0,-0.4713,2.2984,0.
 0781\H,0,2.0273,2.1965,-0.0322\H,0,1.9897,-2.0764,0.0232\H,0,-1.7716,0
 .1804,0.1582\N,0,3.5864,0.051,-0.0675\O,0,4.1471,-1.0597,-0.0881\O,0,4
 .145,1.1639,-0.0901\C,0,-0.0236,-1.1458,0.0835\H,0,-0.4367,-1.8725,0.7
 889\Br,0,-0.5359,-1.8697,-1.7408\\Version=ES64L-G16RevC.01\HF=-3010.55
 34487\RMSD=7.077e-09\Dipole=0.2502536,1.1859762,1.3320211\Quadrupole=0
 .9274111,3.7993909,-4.726802,0.1313614,-0.3904688,0.182321\PG=C01 [X(C
 6H5Br1N1O2)]\\@
 The archive entry for this job was punched.


 EXPERIENCE IS A WONDERFUL THING.  IT ENABLES
 YOU TO RECOGNIZE A MISTAKE WHEN YOU MAKE IT AGAIN.
           - BACK OF A SUGAR PACKET
 Job cpu time:       0 days  0 hours 28 minutes 24.9 seconds.
 Elapsed time:       0 days  0 hours 28 minutes 25.1 seconds.
 File lengths (MBytes):  RWF=     40 Int=      0 D2E=      0 Chk=     32 Scr=      1
 Normal termination of Gaussian 16 at Wed May  1 14:56:08 2024.
