 Entering Gaussian System, Link 0=g16
 Initial command:
 /software/gaussian/g16-a03/l1.exe "/local_scratch/6484981/Gau-30014.inp" -scrdir="/local_scratch/6484981/"
 Entering Link 1 = /software/gaussian/g16-a03/l1.exe PID=     30020.
  
 Copyright (c) 1988,1990,1992,1993,1995,1998,2003,2009,2016,
            Gaussian, Inc.  All Rights Reserved.
  
 This is part of the Gaussian(R) 16 program.  It is based on
 the Gaussian(R) 09 system (copyright 2009, Gaussian, Inc.),
 the Gaussian(R) 03 system (copyright 2003, Gaussian, Inc.),
 the Gaussian(R) 98 system (copyright 1998, Gaussian, Inc.),
 the Gaussian(R) 94 system (copyright 1995, Gaussian, Inc.),
 the Gaussian 92(TM) system (copyright 1992, Gaussian, Inc.),
 the Gaussian 90(TM) system (copyright 1990, Gaussian, Inc.),
 the Gaussian 88(TM) system (copyright 1988, Gaussian, Inc.),
 the Gaussian 86(TM) system (copyright 1986, Carnegie Mellon
 University), and the Gaussian 82(TM) system (copyright 1983,
 Carnegie Mellon University). Gaussian is a federally registered
 trademark of Gaussian, Inc.
  
 This software contains proprietary and confidential information,
 including trade secrets, belonging to Gaussian, Inc.
  
 This software is provided under written license and may be
 used, copied, transmitted, or stored only in accord with that
 written license.
  
 The following legend is applicable only to US Government
 contracts under FAR:
  
                    RESTRICTED RIGHTS LEGEND
  
 Use, reproduction and disclosure by the US Government is
 subject to restrictions as set forth in subparagraphs (a)
 and (c) of the Commercial Computer Software - Restricted
 Rights clause in FAR 52.227-19.
  
 Gaussian, Inc.
 340 Quinnipiac St., Bldg. 40, Wallingford CT 06492
  
  
 ---------------------------------------------------------------
 Warning -- This program may not be used in any manner that
 competes with the business of Gaussian, Inc. or will provide
 assistance to any competitor of Gaussian, Inc.  The licensee
 of this program is prohibited from giving any competitor of
 Gaussian, Inc. access to this program.  By using this program,
 the user acknowledges that Gaussian, Inc. is engaged in the
 business of creating and licensing software in the field of
 computational chemistry and represents and warrants to the
 licensee that it is not a competitor of Gaussian, Inc. and that
 it will not use this program in any manner prohibited above.
 ---------------------------------------------------------------
  

 Cite this work as:
 Gaussian 16, Revision A.03,
 M. J. Frisch, G. W. Trucks, H. B. Schlegel, G. E. Scuseria, 
 M. A. Robb, J. R. Cheeseman, G. Scalmani, V. Barone, 
 G. A. Petersson, H. Nakatsuji, X. Li, M. Caricato, A. V. Marenich, 
 J. Bloino, B. G. Janesko, R. Gomperts, B. Mennucci, H. P. Hratchian, 
 J. V. Ortiz, A. F. Izmaylov, J. L. Sonnenberg, D. Williams-Young, 
 F. Ding, F. Lipparini, F. Egidi, J. Goings, B. Peng, A. Petrone, 
 T. Henderson, D. Ranasinghe, V. G. Zakrzewski, J. Gao, N. Rega, 
 G. Zheng, W. Liang, M. Hada, M. Ehara, K. Toyota, R. Fukuda, 
 J. Hasegawa, M. Ishida, T. Nakajima, Y. Honda, O. Kitao, H. Nakai, 
 T. Vreven, K. Throssell, J. A. Montgomery, Jr., J. E. Peralta, 
 F. Ogliaro, M. J. Bearpark, J. J. Heyd, E. N. Brothers, K. N. Kudin, 
 V. N. Staroverov, T. A. Keith, R. Kobayashi, J. Normand, 
 K. Raghavachari, A. P. Rendell, J. C. Burant, S. S. Iyengar, 
 J. Tomasi, M. Cossi, J. M. Millam, M. Klene, C. Adamo, R. Cammi, 
 J. W. Ochterski, R. L. Martin, K. Morokuma, O. Farkas, 
 J. B. Foresman, and D. J. Fox, Gaussian, Inc., Wallingford CT, 2016.
 
 ******************************************
 Gaussian 16:  ES64L-G16RevA.03 25-Dec-2016
                17-Sep-2021 
 ******************************************
 %chk=geometry.chk
 %mem=2GB
 %nprocshared=1
 Will use up to    1 processors via shared memory.
 --------------------------------------------------------------------
 #p B3LYP/6-311+G** #p TD=(singlets,nstates=30)IOp(6/8=3) IOp(9/40=4)
 --------------------------------------------------------------------
 1/38=1,172=1/1;
 2/12=2,17=6,18=5,40=1/2;
 3/5=4,6=6,7=111,11=9,25=1,30=1,74=-5/1,2,3,8;
 4//1;
 5/5=2,38=5/2;
 8/6=1,10=2,108=30/1;
 9/40=4,41=30,42=1,48=1,70=2/14;
 6/7=2,8=3,9=2,10=2/1;
 99/5=1,9=1/99;
 Leave Link    1 at Fri Sep 17 10:52:40 2021, MaxMem=   268435456 cpu:               0.0 elap:               0.3
 (Enter /software/gaussian/g16-a03/l101.exe)
 -------------------------------
 Scan Step 250, Bond Length 1.75
 -------------------------------
 Symbolic Z-matrix:
 Charge =  0 Multiplicity = 1
 C                     0.        0.       -0.52736 
 H                     0.        0.93726  -1.11871 
 H                     0.       -0.93726  -1.11871 
 O                     0.        0.        1.22264 
 
 ITRead=  0  0  0  0
 MicOpt= -1 -1 -1 -1
 NAtoms=      4 NQM=        4 NQMF=       0 NMMI=      0 NMMIF=      0
                NMic=       0 NMicF=      0.
                    Isotopes and Nuclear Properties:
 (Nuclear quadrupole moments (NQMom) in fm**2, nuclear magnetic moments (NMagM)
  in nuclear magnetons)

  Atom         1           2           3           4
 IAtWgt=          12           1           1          16
 AtmWgt=  12.0000000   1.0078250   1.0078250  15.9949146
 NucSpn=           0           1           1           0
 AtZEff=  -0.0000000  -0.0000000  -0.0000000  -0.0000000
 NQMom=    0.0000000   0.0000000   0.0000000   0.0000000
 NMagM=    0.0000000   2.7928460   2.7928460   0.0000000
 AtZNuc=   6.0000000   1.0000000   1.0000000   8.0000000
 Leave Link  101 at Fri Sep 17 10:52:40 2021, MaxMem=   268435456 cpu:               0.1 elap:               0.1
 (Enter /software/gaussian/g16-a03/l202.exe)
                          Input orientation:                          
 ---------------------------------------------------------------------
 Center     Atomic      Atomic             Coordinates (Angstroms)
 Number     Number       Type             X           Y           Z
 ---------------------------------------------------------------------
      1          6           0        0.000000    0.000000   -0.527360
      2          1           0        0.000000    0.937260   -1.118710
      3          1           0        0.000000   -0.937260   -1.118710
      4          8           0        0.000000    0.000000    1.222640
 ---------------------------------------------------------------------
                    Distance matrix (angstroms):
                    1          2          3          4
     1  C    0.000000
     2  H    1.108220   0.000000
     3  H    1.108220   1.874520   0.000000
     4  O    1.750000   2.521979   2.521979   0.000000
 Stoichiometry    CH2O
 Framework group  C2V[C2(CO),SGV(H2)]
 Deg. of freedom     3
 Full point group                 C2V     NOp   4
 Largest Abelian subgroup         C2V     NOp   4
 Largest concise Abelian subgroup C2      NOp   2
                         Standard orientation:                         
 ---------------------------------------------------------------------
 Center     Atomic      Atomic             Coordinates (Angstroms)
 Number     Number       Type             X           Y           Z
 ---------------------------------------------------------------------
      1          6           0        0.000000    0.000000   -0.801081
      2          1           0        0.000000    0.937260   -1.392431
      3          1           0       -0.000000   -0.937260   -1.392431
      4          8           0        0.000000   -0.000000    0.948919
 ---------------------------------------------------------------------
 Rotational constants (GHZ):         285.4183527          19.6203433          18.3583464
 Leave Link  202 at Fri Sep 17 10:52:40 2021, MaxMem=   268435456 cpu:               0.0 elap:               0.0
 (Enter /software/gaussian/g16-a03/l301.exe)
 Standard basis: 6-311+G(d,p) (5D, 7F)
 Ernie: Thresh=  0.10000D-02 Tol=  0.10000D-05 Strict=F.
 There are    29 symmetry adapted cartesian basis functions of A1  symmetry.
 There are     3 symmetry adapted cartesian basis functions of A2  symmetry.
 There are    11 symmetry adapted cartesian basis functions of B1  symmetry.
 There are    15 symmetry adapted cartesian basis functions of B2  symmetry.
 There are    27 symmetry adapted basis functions of A1  symmetry.
 There are     3 symmetry adapted basis functions of A2  symmetry.
 There are    11 symmetry adapted basis functions of B1  symmetry.
 There are    15 symmetry adapted basis functions of B2  symmetry.
    56 basis functions,    88 primitive gaussians,    58 cartesian basis functions
     8 alpha electrons        8 beta electrons
       nuclear repulsion energy        23.8841188026 Hartrees.
 IExCor=  402 DFT=T Ex+Corr=B3LYP ExCW=0 ScaHFX=  0.200000
 ScaDFX=  0.800000  0.720000  1.000000  0.810000 ScalE2=  1.000000  1.000000
 IRadAn=      5 IRanWt=     -1 IRanGd=            0 ICorTp=0 IEmpDi=  4
 NAtoms=    4 NActive=    4 NUniq=    3 SFac= 1.78D+00 NAtFMM=   60 NAOKFM=F Big=F
 Integral buffers will be    131072 words long.
 Regular integral format.
 Two-electron integral symmetry is turned on.
 Leave Link  301 at Fri Sep 17 10:52:40 2021, MaxMem=   268435456 cpu:               0.0 elap:               0.1
 (Enter /software/gaussian/g16-a03/l302.exe)
 NPDir=0 NMtPBC=     1 NCelOv=     1 NCel=       1 NClECP=     1 NCelD=      1
         NCelK=      1 NCelE2=     1 NClLst=     1 CellRange=     0.0.
 One-electron integrals computed using PRISM.
 One-electron integral symmetry used in STVInt
 NBasis=    56 RedAO= T EigKep=  1.19D-02  NBF=    27     3    11    15
 NBsUse=    56 1.00D-06 EigRej= -1.00D+00 NBFU=    27     3    11    15
 Precomputing XC quadrature grid using
 IXCGrd= 4 IRadAn=           5 IRanWt=          -1 IRanGd=           0 AccXCQ= 0.00D+00.
 Generated NRdTot=       0 NPtTot=           0 NUsed=           0 NTot=          32
 NSgBfM=    58    58    58    58    58 MxSgAt=     4 MxSgA2=     4.
 Leave Link  302 at Fri Sep 17 10:52:40 2021, MaxMem=   268435456 cpu:               0.1 elap:               0.1
 (Enter /software/gaussian/g16-a03/l303.exe)
 DipDrv:  MaxL=1.
 Leave Link  303 at Fri Sep 17 10:52:40 2021, MaxMem=   268435456 cpu:               0.0 elap:               0.0
 (Enter /software/gaussian/g16-a03/l308.exe)
 Leave Link  308 at Fri Sep 17 10:52:40 2021, MaxMem=   268435456 cpu:               0.0 elap:               0.0
 (Enter /software/gaussian/g16-a03/l401.exe)
 ExpMin= 4.38D-02 ExpMax= 8.59D+03 ExpMxC= 1.30D+03 IAcc=3 IRadAn=         5 AccDes= 0.00D+00
 Harris functional with IExCor=  402 and IRadAn=       5 diagonalized for initial guess.
 HarFok:  IExCor=  402 AccDes= 0.00D+00 IRadAn=         5 IDoV= 1 UseB2=F ITyADJ=14
 ICtDFT=  3500011 ScaDFX=  1.000000  1.000000  1.000000  1.000000
 FoFCou: FMM=F IPFlag=           0 FMFlag=      100000 FMFlg1=           0
         NFxFlg=           0 DoJE=T BraDBF=F KetDBF=T FulRan=T
         wScrn=  0.000000 ICntrl=       500 IOpCl=  0 I1Cent=   200000004 NGrid=           0
         NMat0=    1 NMatS0=      1 NMatT0=    0 NMatD0=    1 NMtDS0=    0 NMtDT0=    0
 Petite list used in FoFCou.
 Harris En= -114.405622789357    
 JPrj=0 DoOrth=F DoCkMO=F.
 Initial guess orbital symmetries:
       Occupied  (A1) (A1) (A1) (A1) (B2) (A1) (B1) (B2)
       Virtual   (B1) (A1) (A1) (B2) (A1) (B1) (A1) (B2) (A1) (B1)
                 (B2) (A1) (B2) (A1) (B1) (A1) (B2) (A1) (B1) (A2)
                 (B2) (A1) (B1) (A1) (B2) (A1) (A1) (B2) (B1) (A2)
                 (A1) (B2) (A1) (B2) (A1) (B1) (A1) (A2) (A1) (B1)
                 (B2) (A1) (B2) (B1) (B2) (A1) (A1) (A1)
 The electronic state of the initial guess is 1-A1.
 Leave Link  401 at Fri Sep 17 10:52:41 2021, MaxMem=   268435456 cpu:               0.3 elap:               0.3
 (Enter /software/gaussian/g16-a03/l502.exe)
 Keep R1 ints in memory in symmetry-blocked form, NReq=2159901.
 FoFCou: FMM=F IPFlag=           0 FMFlag=           0 FMFlg1=           0
         NFxFlg=           0 DoJE=F BraDBF=F KetDBF=F FulRan=T
         wScrn=  0.000000 ICntrl=       600 IOpCl=  0 I1Cent=           0 NGrid=           0
         NMat0=    1 NMatS0=   1596 NMatT0=    0 NMatD0=    1 NMtDS0=    0 NMtDT0=    0
 Petite list used in FoFCou.
 Closed shell SCF:
 Using DIIS extrapolation, IDIIS=  1040.
 NGot=   268435456 LenX=   268074392 LenY=   268070587
 Requested convergence on RMS density matrix=1.00D-08 within 128 cycles.
 Requested convergence on MAX density matrix=1.00D-06.
 Requested convergence on             energy=1.00D-06.
 No special actions if energy rises.

 Cycle   1  Pass 1  IDiag  1:
 E= -114.239779050777    
 DIIS: error= 7.18D-02 at cycle   1 NSaved=   1.
 NSaved= 1 IEnMin= 1 EnMin= -114.239779050777     IErMin= 1 ErrMin= 7.18D-02
 ErrMax= 7.18D-02  0.00D+00 EMaxC= 1.00D-01 BMatC= 1.42D-01 BMatP= 1.42D-01
 IDIUse=3 WtCom= 2.82D-01 WtEn= 7.18D-01
 Coeff-Com:  0.100D+01
 Coeff-En:   0.100D+01
 Coeff:      0.100D+01
 Gap=     0.185 Goal=   None    Shift=    0.000
 GapD=    0.185 DampG=1.000 DampE=0.500 DampFc=0.5000 IDamp=-1.
 Damping current iteration by 5.00D-01
 RMSDP=2.26D-02 MaxDP=2.27D-01              OVMax= 4.47D-01

 Cycle   2  Pass 1  IDiag  1:
 E= -113.892943909070     Delta-E=        0.346835141707 Rises=F Damp=T
 DIIS: error= 8.89D-02 at cycle   2 NSaved=   2.
 NSaved= 2 IEnMin= 1 EnMin= -114.239779050777     IErMin= 1 ErrMin= 7.18D-02
 ErrMax= 8.89D-02  0.00D+00 EMaxC= 1.00D-01 BMatC= 2.94D-01 BMatP= 1.42D-01
 IDIUse=2 WtCom= 0.00D+00 WtEn= 1.00D+00
 Coeff-En:   0.738D+00 0.262D+00
 Coeff:      0.738D+00 0.262D+00
 Gap=     0.034 Goal=   None    Shift=    0.000
 RMSDP=6.59D-03 MaxDP=9.12D-02 DE= 3.47D-01 OVMax= 3.91D-01

 Cycle   3  Pass 1  IDiag  1:
 E= -113.957547729517     Delta-E=       -0.064603820447 Rises=F Damp=F
 DIIS: error= 1.56D-01 at cycle   3 NSaved=   3.
 NSaved= 3 IEnMin= 1 EnMin= -114.239779050777     IErMin= 1 ErrMin= 7.18D-02
 ErrMax= 1.56D-01  0.00D+00 EMaxC= 1.00D-01 BMatC= 4.43D-01 BMatP= 1.42D-01
 IDIUse=2 WtCom= 0.00D+00 WtEn= 1.00D+00
 Coeff-En:   0.666D+00 0.000D+00 0.334D+00
 Coeff:      0.666D+00 0.000D+00 0.334D+00
 Gap=     0.097 Goal=   None    Shift=    0.000
 RMSDP=4.86D-03 MaxDP=6.12D-02 DE=-6.46D-02 OVMax= 3.00D-01

 Cycle   4  Pass 1  IDiag  1:
 E= -114.362387134984     Delta-E=       -0.404839405467 Rises=F Damp=F
 DIIS: error= 2.55D-02 at cycle   4 NSaved=   4.
 NSaved= 4 IEnMin= 4 EnMin= -114.362387134984     IErMin= 4 ErrMin= 2.55D-02
 ErrMax= 2.55D-02  0.00D+00 EMaxC= 1.00D-01 BMatC= 1.38D-02 BMatP= 1.42D-01
 IDIUse=3 WtCom= 7.45D-01 WtEn= 2.55D-01
 Coeff-Com:  0.164D+00 0.314D-01-0.906D-01 0.895D+00
 Coeff-En:   0.154D+00 0.000D+00 0.000D+00 0.846D+00
 Coeff:      0.161D+00 0.234D-01-0.675D-01 0.883D+00
 Gap=     0.124 Goal=   None    Shift=    0.000
 RMSDP=1.18D-03 MaxDP=1.57D-02 DE=-4.05D-01 OVMax= 6.23D-02

 Cycle   5  Pass 1  IDiag  1:
 E= -114.373122404109     Delta-E=       -0.010735269125 Rises=F Damp=F
 DIIS: error= 4.23D-03 at cycle   5 NSaved=   5.
 NSaved= 5 IEnMin= 5 EnMin= -114.373122404109     IErMin= 5 ErrMin= 4.23D-03
 ErrMax= 4.23D-03  0.00D+00 EMaxC= 1.00D-01 BMatC= 5.33D-04 BMatP= 1.38D-02
 IDIUse=3 WtCom= 9.58D-01 WtEn= 4.23D-02
 Coeff-Com:  0.155D-01 0.803D-03-0.230D-01 0.302D+00 0.705D+00
 Coeff-En:   0.000D+00 0.000D+00 0.000D+00 0.725D-01 0.927D+00
 Coeff:      0.149D-01 0.769D-03-0.221D-01 0.292D+00 0.714D+00
 Gap=     0.123 Goal=   None    Shift=    0.000
 RMSDP=2.41D-04 MaxDP=3.55D-03 DE=-1.07D-02 OVMax= 1.35D-02

 Cycle   6  Pass 1  IDiag  1:
 E= -114.373467263325     Delta-E=       -0.000344859216 Rises=F Damp=F
 DIIS: error= 1.82D-03 at cycle   6 NSaved=   6.
 NSaved= 6 IEnMin= 6 EnMin= -114.373467263325     IErMin= 6 ErrMin= 1.82D-03
 ErrMax= 1.82D-03  0.00D+00 EMaxC= 1.00D-01 BMatC= 6.65D-05 BMatP= 5.33D-04
 IDIUse=3 WtCom= 9.82D-01 WtEn= 1.82D-02
 Coeff-Com:  0.313D-02-0.125D-03-0.103D-01 0.702D-01 0.262D+00 0.675D+00
 Coeff-En:   0.000D+00 0.000D+00 0.000D+00 0.000D+00 0.195D+00 0.805D+00
 Coeff:      0.308D-02-0.123D-03-0.101D-01 0.689D-01 0.260D+00 0.678D+00
 Gap=     0.124 Goal=   None    Shift=    0.000
 RMSDP=5.52D-05 MaxDP=7.87D-04 DE=-3.45D-04 OVMax= 3.40D-03

 Cycle   7  Pass 1  IDiag  1:
 E= -114.373522679861     Delta-E=       -0.000055416537 Rises=F Damp=F
 DIIS: error= 2.64D-04 at cycle   7 NSaved=   7.
 NSaved= 7 IEnMin= 7 EnMin= -114.373522679861     IErMin= 7 ErrMin= 2.64D-04
 ErrMax= 2.64D-04  0.00D+00 EMaxC= 1.00D-01 BMatC= 1.54D-06 BMatP= 6.65D-05
 IDIUse=3 WtCom= 9.97D-01 WtEn= 2.64D-03
 Coeff-Com:  0.434D-03-0.192D-04-0.362D-03-0.630D-02 0.698D-02 0.810D-02
 Coeff-Com:  0.991D+00
 Coeff-En:   0.000D+00 0.000D+00 0.000D+00 0.000D+00 0.000D+00 0.000D+00
 Coeff-En:   0.100D+01
 Coeff:      0.433D-03-0.191D-04-0.361D-03-0.628D-02 0.696D-02 0.808D-02
 Coeff:      0.991D+00
 Gap=     0.124 Goal=   None    Shift=    0.000
 RMSDP=1.09D-05 MaxDP=1.14D-04 DE=-5.54D-05 OVMax= 4.96D-04

 Cycle   8  Pass 1  IDiag  1:
 E= -114.373523948214     Delta-E=       -0.000001268353 Rises=F Damp=F
 DIIS: error= 1.43D-05 at cycle   8 NSaved=   8.
 NSaved= 8 IEnMin= 8 EnMin= -114.373523948214     IErMin= 8 ErrMin= 1.43D-05
 ErrMax= 1.43D-05  0.00D+00 EMaxC= 1.00D-01 BMatC= 5.75D-09 BMatP= 1.54D-06
 IDIUse=1 WtCom= 1.00D+00 WtEn= 0.00D+00
 Coeff-Com:  0.490D-04-0.258D-04-0.795D-06 0.206D-03 0.109D-03-0.426D-02
 Coeff-Com: -0.275D-01 0.103D+01
 Coeff:      0.490D-04-0.258D-04-0.795D-06 0.206D-03 0.109D-03-0.426D-02
 Coeff:     -0.275D-01 0.103D+01
 Gap=     0.124 Goal=   None    Shift=    0.000
 RMSDP=4.95D-07 MaxDP=5.62D-06 DE=-1.27D-06 OVMax= 1.89D-05

 Cycle   9  Pass 1  IDiag  1:
 E= -114.373523950712     Delta-E=       -0.000000002498 Rises=F Damp=F
 DIIS: error= 1.14D-05 at cycle   9 NSaved=   9.
 NSaved= 9 IEnMin= 9 EnMin= -114.373523950712     IErMin= 9 ErrMin= 1.14D-05
 ErrMax= 1.14D-05  0.00D+00 EMaxC= 1.00D-01 BMatC= 2.49D-09 BMatP= 5.75D-09
 IDIUse=1 WtCom= 1.00D+00 WtEn= 0.00D+00
 Coeff-Com:  0.248D-04-0.288D-05-0.175D-05-0.277D-04-0.128D-02-0.407D-02
 Coeff-Com: -0.282D-01 0.148D+00 0.886D+00
 Coeff:      0.248D-04-0.288D-05-0.175D-05-0.277D-04-0.128D-02-0.407D-02
 Coeff:     -0.282D-01 0.148D+00 0.886D+00
 Gap=     0.124 Goal=   None    Shift=    0.000
 RMSDP=3.67D-07 MaxDP=3.42D-06 DE=-2.50D-09 OVMax= 1.63D-05

 Cycle  10  Pass 1  IDiag  1:
 E= -114.373523952898     Delta-E=       -0.000000002186 Rises=F Damp=F
 DIIS: error= 2.26D-06 at cycle  10 NSaved=  10.
 NSaved=10 IEnMin=10 EnMin= -114.373523952898     IErMin=10 ErrMin= 2.26D-06
 ErrMax= 2.26D-06  0.00D+00 EMaxC= 1.00D-01 BMatC= 1.03D-10 BMatP= 2.49D-09
 IDIUse=1 WtCom= 1.00D+00 WtEn= 0.00D+00
 Coeff-Com:  0.167D-05 0.762D-06-0.173D-06-0.931D-05 0.207D-04-0.175D-04
 Coeff-Com:  0.168D-02-0.240D-01-0.218D+00 0.124D+01
 Coeff:      0.167D-05 0.762D-06-0.173D-06-0.931D-05 0.207D-04-0.175D-04
 Coeff:      0.168D-02-0.240D-01-0.218D+00 0.124D+01
 Gap=     0.124 Goal=   None    Shift=    0.000
 RMSDP=9.51D-08 MaxDP=1.02D-06 DE=-2.19D-09 OVMax= 4.09D-06

 Cycle  11  Pass 1  IDiag  1:
 E= -114.373523952990     Delta-E=       -0.000000000093 Rises=F Damp=F
 DIIS: error= 8.04D-08 at cycle  11 NSaved=  11.
 NSaved=11 IEnMin=11 EnMin= -114.373523952990     IErMin=11 ErrMin= 8.04D-08
 ErrMax= 8.04D-08  0.00D+00 EMaxC= 1.00D-01 BMatC= 1.14D-13 BMatP= 1.03D-10
 IDIUse=1 WtCom= 1.00D+00 WtEn= 0.00D+00
 Coeff-Com: -0.144D-06 0.114D-07-0.206D-07 0.431D-05 0.314D-04 0.604D-04
 Coeff-Com:  0.500D-03-0.270D-02-0.287D-01 0.930D-01 0.938D+00
 Coeff:     -0.144D-06 0.114D-07-0.206D-07 0.431D-05 0.314D-04 0.604D-04
 Coeff:      0.500D-03-0.270D-02-0.287D-01 0.930D-01 0.938D+00
 Gap=     0.124 Goal=   None    Shift=    0.000
 RMSDP=4.03D-09 MaxDP=5.40D-08 DE=-9.29D-11 OVMax= 2.69D-07

 SCF Done:  E(RB3LYP) =  -114.373523953     A.U. after   11 cycles
            NFock= 11  Conv=0.40D-08     -V/T= 2.0092
 KE= 1.133261076684D+02 PE=-3.162048734034D+02 EE= 6.462112297941D+01
 Leave Link  502 at Fri Sep 17 10:52:43 2021, MaxMem=   268435456 cpu:               1.9 elap:               2.1
 (Enter /software/gaussian/g16-a03/l801.exe)
 DoSCS=F DFT=T ScalE2(SS,OS)=  1.000000  1.000000
 ExpMin= 4.38D-02 ExpMax= 8.59D+03 ExpMxC= 1.30D+03 IAcc=3 IRadAn=         5 AccDes= 0.00D+00
 HarFok:  IExCor=  205 AccDes= 0.00D+00 IRadAn=         5 IDoV=-2 UseB2=F ITyADJ=14
 ICtDFT= 12500011 ScaDFX=  1.000000  1.000000  1.000000  1.000000
 Largest valence mixing into a core orbital is  5.41D-05
 Largest core mixing into a valence orbital is  1.28D-05
 Range of M.O.s used for correlation:     3    56
 NBasis=    56 NAE=     8 NBE=     8 NFC=     2 NFV=     0
 NROrb=     54 NOA=     6 NOB=     6 NVA=    48 NVB=    48
 Leave Link  801 at Fri Sep 17 10:52:43 2021, MaxMem=   268435456 cpu:               0.2 elap:               0.2
 (Enter /software/gaussian/g16-a03/l914.exe)
 RHF ground state
 Keep R1, R2, and R3 ints in memory in symmetry-blocked form, NReq=6042840.
 FoFCou: FMM=F IPFlag=           0 FMFlag=           0 FMFlg1=           0
         NFxFlg=           0 DoJE=F BraDBF=F KetDBF=F FulRan=T
         wScrn=  0.000000 ICntrl=       600 IOpCl=  0 I1Cent=           0 NGrid=           0
         NMat0=    1 NMatS0=   1596 NMatT0=    0 NMatD0=    1 NMtDS0=    0 NMtDT0=    0
 Petite list used in FoFCou.
 MDV=   268435456 DFT=T DoStab=F Mixed=T DoRPA=T DoScal=F NonHer=T
 Making orbital integer symmetry assigments:
 Orbital symmetries:
       Occupied  (A1) (A1) (A1) (A1) (B2) (A1) (B1) (B2)
       Virtual   (B1) (A1) (A1) (B2) (B1) (A1) (A1) (B2) (A1) (B1)
                 (B2) (A1) (A1) (B2) (B1) (A1) (B2) (A1) (A2) (B1)
                 (B2) (A1) (B1) (A1) (B2) (A1) (B2) (A1) (B1) (A2)
                 (A1) (B2) (A1) (B2) (A1) (B1) (A1) (A2) (A1) (B1)
                 (B2) (A1) (B2) (B1) (B2) (A1) (A1) (A1)
   120 initial guesses have been made.
 Convergence on wavefunction:    0.001000000000000
 Davidson Disk Diagonalization:  ConvIn= 1.00D-03 SkipCon=T Conv= 1.00D-03.
 Max sub-space:  1728 roots to seek:   120 dimension of matrix:          576
 Iteration     1 Dimension   120 NMult     0 NNew    120
 CISAX will form   120 AO SS matrices at one time.
 NMat=   120 NSing=   120 JSym2X=-1.
 New state      7 was old state      8
 New state      8 was old state      7
 New state     10 was old state     11
 New state     11 was old state     13
 New state     13 was old state     14
 New state     14 was old state     15
 New state     15 was old state     10
 New state     16 was old state     17
 New state     17 was old state     16
 New state     18 was old state     21
 New state     21 was old state     22
 New state     22 was old state     18
 New state     24 was old state     25
 New state     25 was old state     27
 New state     27 was old state     28
 New state     28 was old state     24
 New state     29 was old state     30
 New state     30 was old state     29
 Excitation Energies [eV] at current iteration:
 Root      1 :     1.506425320775772
 Root      2 :     3.944388361677615
 Root      3 :     4.411919863544618
 Root      4 :     4.549719824202032
 Root      5 :     5.420679458842910
 Root      6 :     6.932266956204890
 Root      7 :     7.096420884318485
 Root      8 :     7.574275430011427
 Root      9 :     8.024093150930804
 Root     10 :     8.582685685801001
 Root     11 :     8.607612956266268
 Root     12 :     8.648929793645895
 Root     13 :     9.239760856837979
 Root     14 :     9.304602524309589
 Root     15 :     9.531268465849545
 Root     16 :    10.082396470090450
 Root     17 :    10.084703952412090
 Root     18 :    10.603426947380770
 Root     19 :    10.668055434058810
 Root     20 :    10.966581334919110
 Root     21 :    10.968535532650200
 Root     22 :    11.047602524189880
 Root     23 :    11.500379833583000
 Root     24 :    11.543350120561870
 Root     25 :    12.093140310065710
 Root     26 :    12.226448930404430
 Root     27 :    12.367559139702230
 Root     28 :    12.380210504427930
 Root     29 :    12.941669837121260
 Root     30 :    13.047886475853050
 Root     31 :    13.405910427274230
 Root     32 :    13.778551463469650
 Root     33 :    13.784904659682310
 Root     34 :    13.881608469148220
 Root     35 :    14.175524917030050
 Root     36 :    14.347272391033530
 Root     37 :    14.507895559746260
 Root     38 :    14.791453206388810
 Root     39 :    15.268947571858240
 Root     40 :    15.617445037894820
 Root     41 :    15.751886732480180
 Root     42 :    15.832153633849650
 Root     43 :    16.033350361622280
 Root     44 :    16.241996337759460
 Root     45 :    17.364446778742620
 Root     46 :    17.368730570094520
 Root     47 :    17.586444247433080
 Root     48 :    17.715915605671570
 Root     49 :    17.922566561024290
 Root     50 :    18.052806321968390
 Root     51 :    18.121405508448860
 Root     52 :    18.293268000354830
 Root     53 :    18.749192543237260
 Root     54 :    19.119536486872230
 Root     55 :    19.399086995027630
 Root     56 :    19.556335398257300
 Root     57 :    19.975929705615350
 Root     58 :    20.116756402150620
 Root     59 :    20.353752577736440
 Root     60 :    20.474623972464710
 Root     61 :    20.481671077216280
 Root     62 :    20.692774310260780
 Root     63 :    21.160573079536110
 Root     64 :    21.239399051361060
 Root     65 :    21.676574913013810
 Root     66 :    21.898346665167780
 Root     67 :    21.937091157322000
 Root     68 :    22.378568198440380
 Root     69 :    22.799178608169600
 Root     70 :    23.030256410313320
 Root     71 :    23.053708429343110
 Root     72 :    23.190207342363530
 Root     73 :    23.535962848649310
 Root     74 :    23.773947424950610
 Root     75 :    24.005118588731540
 Root     76 :    24.065608425249350
 Root     77 :    24.575214040276170
 Root     78 :    24.748511706549330
 Root     79 :    24.835287182413550
 Root     80 :    25.092928827102520
 Root     81 :    25.225000583774760
 Root     82 :    25.310123147802460
 Root     83 :    25.346905436805230
 Root     84 :    25.600118062484420
 Root     85 :    25.930208469586990
 Root     86 :    26.501224778539850
 Root     87 :    26.517852842260150
 Root     88 :    26.794792431760000
 Root     89 :    27.250982378085470
 Root     90 :    28.164169609035270
 Root     91 :    28.512446098555280
 Root     92 :    28.670036605885940
 Root     93 :    29.173847308286710
 Root     94 :    29.246135068879160
 Root     95 :    29.678461837007570
 Root     96 :    29.949341732238250
 Root     97 :    30.650640822100440
 Root     98 :    31.428970228877270
 Root     99 :    31.604437621756570
 Root    100 :    32.731172211115830
 Root    101 :    33.104593642947140
 Root    102 :    33.211128200700290
 Root    103 :    33.601475951456840
 Root    104 :    34.026944546751050
 Root    105 :    34.141799208902960
 Root    106 :    34.156145597888800
 Root    107 :    34.305359253984980
 Root    108 :    35.024322969280810
 Root    109 :    35.623340413402620
 Root    110 :    35.709356153841480
 Root    111 :    36.035343403040710
 Root    112 :    36.184910267265860
 Root    113 :    36.979703619686610
 Root    114 :    36.997426879012670
 Root    115 :    37.765436864250490
 Root    116 :    38.025855186024630
 Root    117 :    38.190819480285030
 Root    118 :    38.987276987051800
 Root    119 :    39.784756767475780
 Root    120 :    43.637979705062900
 Iteration     2 Dimension   180 NMult   120 NNew     60
 CISAX will form    60 AO SS matrices at one time.
 NMat=    60 NSing=    60 JSym2X=-1.
 Root      1 not converged, maximum delta is    0.006775000474021
 Root      2 not converged, maximum delta is    0.005606161252078
 Root      3 not converged, maximum delta is    0.008976602173709
 Root      4 not converged, maximum delta is    0.007774616513516
 Root      5 not converged, maximum delta is    0.008210094476542
 Root      6 not converged, maximum delta is    0.002604505518038
 Root      7 not converged, maximum delta is    0.011433754632468
 Root      8 not converged, maximum delta is    0.002997839978506
 Root      9 not converged, maximum delta is    0.001905763278009
 Root     10 not converged, maximum delta is    0.001847774206221
 Root     11 not converged, maximum delta is    0.003283995517358
 Root     12 not converged, maximum delta is    0.001500582309935
 Root     13 not converged, maximum delta is    0.007251629490358
 Root     14 not converged, maximum delta is    0.002493430842715
 Root     15 not converged, maximum delta is    0.009544766160432
 New state     16 was old state     17
 Root     16 not converged, maximum delta is    0.006028507142285
 New state     17 was old state     16
 Root     17 not converged, maximum delta is    0.002213842130640
 Root     18 not converged, maximum delta is    0.019263033953955
 Root     19 not converged, maximum delta is    0.005136534455081
 Root     20 not converged, maximum delta is    0.018231499960596
 Root     21 not converged, maximum delta is    0.003986995264894
 Root     22 not converged, maximum delta is    0.009653699849897
 Root     23 not converged, maximum delta is    0.001626565875295
 Root     24 not converged, maximum delta is    0.004533589356487
 Root     25 not converged, maximum delta is    0.007162941716733
 Root     26 not converged, maximum delta is    0.004495685577517
 New state     27 was old state     28
 Root     27 not converged, maximum delta is    0.008470981344881
 New state     28 was old state     27
 Root     28 not converged, maximum delta is    0.002949500321676
 Root     29 not converged, maximum delta is    0.008426414968283
 Root     30 not converged, maximum delta is    0.011391386911363
 Excitation Energies [eV] at current iteration:
 Root      1 :     1.498391239110272   Change is   -0.008034081665500
 Root      2 :     3.926929422798807   Change is   -0.017458938878808
 Root      3 :     4.387134453525193   Change is   -0.024785410019425
 Root      4 :     4.520490884190290   Change is   -0.029228940011742
 Root      5 :     5.402551862518721   Change is   -0.018127596324189
 Root      6 :     6.929759408678342   Change is   -0.002507547526549
 Root      7 :     7.080465152168352   Change is   -0.015955732150133
 Root      8 :     7.572827526442008   Change is   -0.001447903569419
 Root      9 :     8.023156708062904   Change is   -0.000936442867901
 Root     10 :     8.582314941145995   Change is   -0.000370744655006
 Root     11 :     8.604019737368379   Change is   -0.003593218897888
 Root     12 :     8.648401880033024   Change is   -0.000527913612870
 Root     13 :     9.235756156256542   Change is   -0.004004700581437
 Root     14 :     9.302852091384967   Change is   -0.001750432924620
 Root     15 :     9.521508696152345   Change is   -0.009759769697199
 Root     16 :    10.075726182223830   Change is   -0.008977770188264
 Root     17 :    10.080977910778830   Change is   -0.001418559311621
 Root     18 :    10.580386331063050   Change is   -0.023040616317715
 Root     19 :    10.665264966536810   Change is   -0.002790467522002
 Root     20 :    10.960929511084620   Change is   -0.005651823834486
 Root     21 :    10.966180647526710   Change is   -0.002354885123481
 Root     22 :    11.034031566762050   Change is   -0.013570957427827
 Root     23 :    11.499582611110490   Change is   -0.000797222472506
 Root     24 :    11.536457766708430   Change is   -0.006892353853440
 Root     25 :    12.088938879024510   Change is   -0.004201431041200
 Root     26 :    12.221995061613760   Change is   -0.004453868790666
 Root     27 :    12.359786401817790   Change is   -0.020424102610137
 Root     28 :    12.364924993315880   Change is   -0.002634146386352
 Root     29 :    12.937262462502400   Change is   -0.004407374618862
 Root     30 :    13.039315997994510   Change is   -0.008570477858548
 Iteration     3 Dimension   240 NMult   180 NNew     60
 CISAX will form    60 AO SS matrices at one time.
 NMat=    60 NSing=    60 JSym2X=-1.
 Root      1 has converged.
 Root      2 has converged.
 Root      3 has converged.
 Root      4 has converged.
 Root      5 has converged.
 Root      6 has converged.
 Root      7 has converged.
 Root      8 has converged.
 Root      9 has converged.
 Root     10 has converged.
 Root     11 has converged.
 Root     12 has converged.
 Root     13 has converged.
 Root     14 has converged.
 Root     15 has converged.
 Root     16 has converged.
 Root     17 has converged.
 Root     18 has converged.
 Root     19 has converged.
 Root     20 has converged.
 Root     21 has converged.
 Root     22 has converged.
 Root     23 has converged.
 Root     24 has converged.
 Root     25 has converged.
 Root     26 has converged.
 Root     27 has converged.
 Root     28 has converged.
 Root     29 has converged.
 Root     30 has converged.
 Excitation Energies [eV] at current iteration:
 Root      1 :     1.498390125265243   Change is   -0.000001113845030
 Root      2 :     3.926915569574331   Change is   -0.000013853224476
 Root      3 :     4.387122652274622   Change is   -0.000011801250571
 Root      4 :     4.520480051159744   Change is   -0.000010833030546
 Root      5 :     5.402546091029812   Change is   -0.000005771488909
 Root      6 :     6.929758219410086   Change is   -0.000001189268255
 Root      7 :     7.080460032497761   Change is   -0.000005119670591
 Root      8 :     7.572826932392116   Change is   -0.000000594049892
 Root      9 :     8.023155616206195   Change is   -0.000001091856709
 Root     10 :     8.582314855482863   Change is   -0.000000085663133
 Root     11 :     8.604017633796603   Change is   -0.000002103571776
 Root     12 :     8.648401636074979   Change is   -0.000000243958044
 Root     13 :     9.235749954264341   Change is   -0.000006201992203
 Root     14 :     9.302851117793665   Change is   -0.000000973591302
 Root     15 :     9.521488611235199   Change is   -0.000020084917147
 Root     16 :    10.075711628513010   Change is   -0.000014553710823
 Root     17 :    10.080977044386500   Change is   -0.000000866392336
 Root     18 :    10.580359061779800   Change is   -0.000027269283253
 Root     19 :    10.665261800389640   Change is   -0.000003166147163
 Root     20 :    10.960923450591820   Change is   -0.000006060492800
 Root     21 :    10.966177452060580   Change is   -0.000003195466129
 Root     22 :    11.034000836066960   Change is   -0.000030730695099
 Root     23 :    11.499582229081870   Change is   -0.000000382028623
 Root     24 :    11.536451542692190   Change is   -0.000006224016243
 Root     25 :    12.088937124879570   Change is   -0.000001754144939
 Root     26 :    12.221989243323790   Change is   -0.000005818289971
 Root     27 :    12.359734108389350   Change is   -0.000052293428445
 Root     28 :    12.364920269908260   Change is   -0.000004723407618
 Root     29 :    12.937252562839870   Change is   -0.000009899662530
 Root     30 :    13.039293762140990   Change is   -0.000022235853516
 Convergence achieved on expansion vectors.
 ***********************************************************************
 Excited states from <AA,BB:AA,BB> singles matrix:
 ***********************************************************************
 
 1PDM for each excited state written to RWF  633
 Ground to excited state transition densities written to RWF  633
 Ground to excited state transition electric dipole moments (Au):
       state          X           Y           Z        Dip. S.      Osc.
         1        -0.0000     -0.0000      0.0000      0.0000      0.0000
         2        -0.0000      0.0000      0.6720      0.4515      0.0434
         3         0.0888      0.0000      0.0000      0.0079      0.0008
         4         0.0000     -0.2033     -0.0000      0.0413      0.0046
         5        -0.2402      0.0000     -0.0000      0.0577      0.0076
         6        -0.0000     -0.0980      0.0000      0.0096      0.0016
         7         0.0000     -0.0000     -0.0000      0.0000      0.0000
         8        -0.6305     -0.0000      0.0000      0.3975      0.0738
         9        -0.0000     -0.0000     -0.2863      0.0820      0.0161
        10        -0.0000     -0.0000     -0.0000      0.0000      0.0000
        11         0.0000     -0.3945     -0.0000      0.1557      0.0328
        12         0.0000      0.0000     -0.0000      0.0000      0.0000
        13        -0.0000     -0.0000      0.5276      0.2783      0.0630
        14        -0.3680     -0.0000     -0.0000      0.1354      0.0309
        15         0.0000      0.0000     -1.0602      1.1240      0.2622
        16         0.0000     -0.0000     -0.5079      0.2580      0.0637
        17        -0.0000     -0.2702      0.0000      0.0730      0.0180
        18        -0.0000      0.1840      0.0000      0.0338      0.0088
        19        -0.4320      0.0000     -0.0000      0.1866      0.0488
        20        -0.0000     -0.2217      0.0000      0.0491      0.0132
        21         0.0000     -0.0000     -0.0000      0.0000      0.0000
        22         0.0000     -0.0000     -0.9620      0.9255      0.2502
        23        -0.0912      0.0000     -0.0000      0.0083      0.0023
        24         0.0000     -0.0870      0.0000      0.0076      0.0021
        25         0.0000     -0.0000      0.0000      0.0000      0.0000
        26         0.0000     -0.6871      0.0000      0.4722      0.1414
        27         0.0000      0.0000      1.1174      1.2487      0.3781
        28         0.0985      0.0000      0.0000      0.0097      0.0029
        29        -0.0000     -0.0000     -0.0647      0.0042      0.0013
        30         0.0000      0.0000     -0.6732      0.4532      0.1448
 Ground to excited state transition velocity dipole moments (Au):
       state          X           Y           Z        Dip. S.      Osc.
         1         0.0000      0.0000     -0.0000      0.0000      0.0000
         2         0.0000      0.0000     -0.0854      0.0073      0.0337
         3        -0.0348     -0.0000      0.0000      0.0012      0.0050
         4        -0.0000      0.0312      0.0000      0.0010      0.0039
         5         0.0401      0.0000      0.0000      0.0016      0.0054
         6         0.0000      0.0205     -0.0000      0.0004      0.0011
         7        -0.0000     -0.0000     -0.0000      0.0000      0.0000
         8         0.1784      0.0000      0.0000      0.0318      0.0762
         9        -0.0000      0.0000      0.0820      0.0067      0.0152
        10         0.0000      0.0000     -0.0000      0.0000      0.0000
        11        -0.0000      0.1282      0.0000      0.0164      0.0347
        12        -0.0000     -0.0000      0.0000      0.0000      0.0000
        13         0.0000      0.0000     -0.1772      0.0314      0.0617
        14         0.1374      0.0000      0.0000      0.0189      0.0368
        15         0.0000      0.0000      0.3748      0.1405      0.2676
        16        -0.0000     -0.0000      0.1975      0.0390      0.0702
        17         0.0000      0.1034     -0.0000      0.0107      0.0192
        18         0.0000     -0.0775     -0.0000      0.0060      0.0103
        19         0.1523     -0.0000      0.0000      0.0232      0.0394
        20         0.0000      0.0878     -0.0000      0.0077      0.0128
        21        -0.0000      0.0000      0.0000      0.0000      0.0000
        22        -0.0000      0.0000      0.3915      0.1533      0.2520
        23         0.0333      0.0000      0.0000      0.0011      0.0018
        24        -0.0000      0.0301     -0.0000      0.0009      0.0014
        25        -0.0000      0.0000     -0.0000      0.0000      0.0000
        26        -0.0000      0.3047     -0.0000      0.0928      0.1378
        27         0.0000     -0.0000     -0.4902      0.2403      0.3527
        28        -0.0351     -0.0000     -0.0000      0.0012      0.0018
        29         0.0000      0.0000      0.0321      0.0010      0.0014
        30         0.0000     -0.0000      0.3065      0.0939      0.1307
 Ground to excited state transition magnetic dipole moments (Au):
       state          X           Y           Z
         1         0.0000     -0.0000      0.9833
         2        -0.0000      0.0000      0.0000
         3        -0.0000     -1.8443      0.0000
         4         0.4332     -0.0000     -0.0000
         5        -0.0000     -0.5281     -0.0000
         6        -0.3383      0.0000      0.0000
         7        -0.0000      0.0000     -1.0459
         8        -0.0000     -0.1621     -0.0000
         9        -0.0000     -0.0000      0.0000
        10        -0.0000      0.0000      0.0064
        11        -0.5474     -0.0000      0.0000
        12         0.0000     -0.0000      0.0243
        13        -0.0000     -0.0000     -0.0000
        14         0.0000      0.2961     -0.0000
        15        -0.0000      0.0000     -0.0000
        16         0.0000     -0.0000     -0.0000
        17         0.3835      0.0000     -0.0000
        18         0.7454     -0.0000      0.0000
        19        -0.0000      0.1921     -0.0000
        20         0.1214      0.0000      0.0000
        21         0.0000     -0.0000     -0.0680
        22         0.0000     -0.0000     -0.0000
        23        -0.0000      0.0883      0.0000
        24         0.0731      0.0000     -0.0000
        25         0.0000      0.0000     -0.0311
        26         0.8016      0.0000      0.0000
        27        -0.0000     -0.0000      0.0000
        28        -0.0000      0.0599      0.0000
        29        -0.0000     -0.0000     -0.0000
        30        -0.0000      0.0000     -0.0000
 Ground to excited state transition velocity quadrupole moments (Au):
       state          XX          YY          ZZ          XY          XZ          YZ
         1        -0.0000     -0.0000      0.0000     -0.0289     -0.0000      0.0000
         2         0.0584     -0.0065     -0.0319     -0.0000      0.0000      0.0000
         3        -0.0000     -0.0000     -0.0000     -0.0000     -0.0878     -0.0000
         4        -0.0000      0.0000      0.0000      0.0000     -0.0000      0.0147
         5         0.0000      0.0000      0.0000      0.0000      0.1577      0.0000
         6         0.0000      0.0000      0.0000      0.0000      0.0000      0.2652
         7         0.0000      0.0000      0.0000      0.1744      0.0000      0.0000
         8        -0.0000     -0.0000     -0.0000     -0.0000     -0.1546     -0.0000
         9         0.0380      0.0813     -0.2093     -0.0000     -0.0000      0.0000
        10         0.0000      0.0000      0.0000      0.1175     -0.0000      0.0000
        11         0.0000      0.0000      0.0000     -0.0000     -0.0000      0.2206
        12        -0.0000     -0.0000     -0.0000      0.2671     -0.0000     -0.0000
        13         0.7714      0.0561     -0.0596      0.0000     -0.0000      0.0000
        14        -0.0000      0.0000     -0.0000      0.0000      0.3301     -0.0000
        15         0.2467      0.0401     -0.3394      0.0000      0.0000      0.0000
        16         0.2751      0.2637      0.5879      0.0000     -0.0000     -0.0000
        17        -0.0000     -0.0000     -0.0000      0.0000     -0.0000     -0.0189
        18         0.0000     -0.0000      0.0000      0.0000      0.0000      0.5261
        19        -0.0000      0.0000     -0.0000      0.0000     -0.0591     -0.0000
        20         0.0000      0.0000      0.0000      0.0000     -0.0000     -0.2402
        21        -0.0000     -0.0000     -0.0000     -0.2753      0.0000     -0.0000
        22        -0.0752     -0.4113     -0.1300      0.0000     -0.0000      0.0000
        23         0.0000     -0.0000      0.0000     -0.0000     -0.1532     -0.0000
        24        -0.0000      0.0000     -0.0000      0.0000     -0.0000      0.4469
        25        -0.0000      0.0000     -0.0000      0.3758      0.0000     -0.0000
        26        -0.0000      0.0000     -0.0000     -0.0000      0.0000     -0.7695
        27        -0.2915      0.4734     -0.2469     -0.0000     -0.0000      0.0000
        28        -0.0000      0.0000     -0.0000     -0.0000      0.3507      0.0000
        29         0.3154     -0.2638     -0.2689      0.0000     -0.0000      0.0000
        30        -0.1025      0.0551     -0.0168      0.0000     -0.0000      0.0000
 <0|del|b> * <b|rxdel|0> + <0|del|b> * <b|delr+rdel|0>
 Rotatory Strengths (R) in cgs (10**-40 erg-esu-cm/Gauss)
       state          XX          YY          ZZ    R(velocity)    E-M Angle
         1        -0.0000     -0.0000     -0.0000     -0.0000       90.00
         2        -0.0000     -0.0000     -0.0000     -0.0000       90.00
         3         0.0000      0.0000      0.0000      0.0000       90.00
         4        -0.0000     -0.0000     -0.0000     -0.0000       90.00
         5        -0.0000      0.0000     -0.0000     -0.0000       90.00
         6        -0.0000     -0.0000      0.0000      0.0000       90.00
         7         0.0000      0.0000      0.0000      0.0000       90.00
         8        -0.0000     -0.0000     -0.0000     -0.0000       90.00
         9        -0.0000      0.0000     -0.0000      0.0000       90.00
        10        -0.0000      0.0000     -0.0000     -0.0000       90.00
        11        -0.0000      0.0000      0.0000      0.0000       90.00
        12         0.0000     -0.0000     -0.0000      0.0000       90.00
        13        -0.0000      0.0000     -0.0000      0.0000       90.00
        14        -0.0000      0.0000      0.0000      0.0000       90.00
        15        -0.0000     -0.0000     -0.0000     -0.0000       90.00
        16         0.0000     -0.0000     -0.0000     -0.0000       90.00
        17         0.0000      0.0000      0.0000      0.0000       90.00
        18         0.0000      0.0000      0.0000      0.0000       90.00
        19        -0.0000     -0.0000     -0.0000     -0.0000       90.00
        20         0.0000     -0.0000      0.0000      0.0000       90.00
        21        -0.0000      0.0000     -0.0000     -0.0000       90.00
        22        -0.0000     -0.0000     -0.0000     -0.0000       90.00
        23         0.0000     -0.0000      0.0000      0.0000       90.00
        24         0.0000     -0.0000      0.0000     -0.0000       90.00
        25        -0.0000      0.0000     -0.0000      0.0000       90.00
        26        -0.0000     -0.0000     -0.0000     -0.0000       90.00
        27         0.0000     -0.0000      0.0000     -0.0000       90.00
        28         0.0000      0.0000     -0.0000      0.0000       90.00
        29         0.0000     -0.0000     -0.0000     -0.0000       90.00
        30        -0.0000     -0.0000     -0.0000     -0.0000       90.00
 1/2[<0|r|b>*<b|rxdel|0> + (<0|rxdel|b>*<b|r|0>)*]
 Rotatory Strengths (R) in cgs (10**-40 erg-esu-cm/Gauss)
       state          XX          YY          ZZ     R(length)
         1         0.0000     -0.0000     -0.0000     -0.0000
         2        -0.0000     -0.0000     -0.0000     -0.0000
         3         0.0000      0.0000     -0.0000      0.0000
         4        -0.0000     -0.0000     -0.0000     -0.0000
         5        -0.0000      0.0000     -0.0000      0.0000
         6        -0.0000      0.0000     -0.0000     -0.0000
         7         0.0000      0.0000     -0.0000     -0.0000
         8        -0.0000     -0.0000      0.0000     -0.0000
         9        -0.0000     -0.0000      0.0000      0.0000
        10        -0.0000      0.0000      0.0000      0.0000
        11         0.0000     -0.0000      0.0000      0.0000
        12        -0.0000      0.0000      0.0000      0.0000
        13        -0.0000     -0.0000      0.0000      0.0000
        14         0.0000      0.0000     -0.0000      0.0000
        15         0.0000     -0.0000     -0.0000     -0.0000
        16        -0.0000     -0.0000     -0.0000     -0.0000
        17         0.0000      0.0000      0.0000      0.0000
        18         0.0000      0.0000     -0.0000      0.0000
        19        -0.0000     -0.0000     -0.0000     -0.0000
        20         0.0000      0.0000     -0.0000      0.0000
        21        -0.0000     -0.0000     -0.0000     -0.0000
        22        -0.0000     -0.0000     -0.0000     -0.0000
        23        -0.0000     -0.0000      0.0000     -0.0000
        24        -0.0000      0.0000      0.0000      0.0000
        25        -0.0000      0.0000      0.0000      0.0000
        26        -0.0000      0.0000     -0.0000     -0.0000
        27         0.0000      0.0000     -0.0000     -0.0000
        28         0.0000     -0.0000     -0.0000      0.0000
        29        -0.0000     -0.0000     -0.0000     -0.0000
        30         0.0000     -0.0000     -0.0000     -0.0000
  1/2[<0|del|b>*<b|r|0> + (<0|r|b>*<b|del|0>)*] (Au)
       state          X           Y           Z        Dip. S.   Osc.(frdel)
         1        -0.0000     -0.0000     -0.0000      0.0000      0.0000
         2        -0.0000      0.0000     -0.0574      0.0574      0.0383
         3        -0.0031     -0.0000      0.0000      0.0031      0.0021
         4        -0.0000     -0.0063     -0.0000      0.0063      0.0042
         5        -0.0096      0.0000     -0.0000      0.0096      0.0064
         6        -0.0000     -0.0020     -0.0000      0.0020      0.0013
         7        -0.0000      0.0000      0.0000      0.0000      0.0000
         8        -0.1125     -0.0000      0.0000      0.1125      0.0750
         9         0.0000     -0.0000     -0.0235      0.0235      0.0157
        10        -0.0000     -0.0000      0.0000      0.0000      0.0000
        11        -0.0000     -0.0506     -0.0000      0.0506      0.0337
        12        -0.0000     -0.0000     -0.0000      0.0000      0.0000
        13        -0.0000     -0.0000     -0.0935      0.0935      0.0623
        14        -0.0506     -0.0000     -0.0000      0.0506      0.0337
        15         0.0000      0.0000     -0.3974      0.3974      0.2649
        16        -0.0000      0.0000     -0.1003      0.1003      0.0669
        17        -0.0000     -0.0279     -0.0000      0.0279      0.0186
        18        -0.0000     -0.0143     -0.0000      0.0143      0.0095
        19        -0.0658     -0.0000     -0.0000      0.0658      0.0438
        20        -0.0000     -0.0195     -0.0000      0.0195      0.0130
        21        -0.0000     -0.0000     -0.0000      0.0000      0.0000
        22        -0.0000     -0.0000     -0.3766      0.3766      0.2511
        23        -0.0030      0.0000     -0.0000      0.0030      0.0020
        24        -0.0000     -0.0026     -0.0000      0.0026      0.0017
        25        -0.0000     -0.0000     -0.0000      0.0000      0.0000
        26        -0.0000     -0.2093     -0.0000      0.2093      0.1396
        27         0.0000     -0.0000     -0.5477      0.5477      0.3652
        28        -0.0035     -0.0000     -0.0000      0.0035      0.0023
        29        -0.0000     -0.0000     -0.0021      0.0021      0.0014
        30         0.0000     -0.0000     -0.2063      0.2063      0.1375

 Excitation energies and oscillator strengths:
 
 Excited State   1:      Singlet-A2     1.4984 eV  827.45 nm  f=0.0000  <S**2>=0.000
       3 -> 27         0.00085
       3 -> 38         0.00057
       3 -> 46         0.00336
       4 -> 27         0.00048
       4 -> 46        -0.00109
       5 ->  9         0.00334
       5 -> 13         0.00111
       5 -> 18         0.00206
       5 -> 23         0.00149
       5 -> 28         0.00167
       5 -> 37         0.00092
       5 -> 44         0.00025
       5 -> 52         0.00022
       6 -> 27        -0.00060
       6 -> 38        -0.00064
       6 -> 46         0.00108
       7 -> 12        -0.00114
       7 -> 16         0.00515
       7 -> 19        -0.00446
       7 -> 22        -0.00104
       7 -> 25        -0.00069
       7 -> 29        -0.00179
       7 -> 33         0.00030
       7 -> 49         0.00013
       7 -> 51         0.00011
       7 -> 53         0.00041
       8 ->  9         0.70992
       8 -> 13        -0.00865
       8 -> 18         0.02114
       8 -> 23        -0.00167
       8 -> 28         0.01063
       8 -> 31         0.00152
       8 -> 37         0.00054
       8 -> 48        -0.00031
       8 -> 52         0.00190
       3 <- 27         0.00030
       3 <- 38         0.00033
       3 <- 46         0.00339
       4 <- 27         0.00087
       4 <- 38         0.00021
       4 <- 46        -0.00086
       5 <-  9         0.00014
       5 <- 13        -0.00040
       5 <- 18        -0.00048
       5 <- 23         0.00020
       5 <- 28        -0.00034
       5 <- 31         0.00026
       5 <- 37         0.00053
       6 <- 38        -0.00050
       6 <- 46         0.00081
       7 <- 12         0.00140
       7 <- 16        -0.01047
       7 <- 19         0.00496
       7 <- 22         0.00620
       7 <- 25        -0.00061
       7 <- 29         0.00554
       7 <- 33        -0.00038
       7 <- 35         0.00034
       7 <- 40        -0.00023
       7 <- 42         0.00015
       7 <- 49        -0.00047
       7 <- 53         0.00146
       8 <-  9        -0.06663
       8 <- 13        -0.00014
       8 <- 18        -0.00737
       8 <- 23        -0.00018
       8 <- 28        -0.00266
       8 <- 31        -0.00075
       8 <- 37        -0.00028
       8 <- 48         0.00012
       8 <- 52         0.00047
 This state for optimization and/or second-order correction.
 Total Energy, E(TD-HF/TD-DFT) =  -114.318459129    
 Copying the excited state density for this state as the 1-particle RhoCI density.
 
 Excited State   2:      Singlet-A1     3.9269 eV  315.73 nm  f=0.0434  <S**2>=0.000
       3 -> 10        -0.01709
       3 -> 11        -0.00516
       3 -> 14         0.00374
       3 -> 15         0.00129
       3 -> 17        -0.00326
       3 -> 20        -0.00384
       3 -> 24         0.00109
       3 -> 26         0.00212
       3 -> 30        -0.00114
       3 -> 32         0.00276
       3 -> 34        -0.00137
       3 -> 36        -0.00113
       3 -> 39         0.00055
       3 -> 43         0.00052
       3 -> 45         0.00070
       3 -> 47         0.00230
       3 -> 50         0.00140
       4 -> 10        -0.00380
       4 -> 11         0.01197
       4 -> 14         0.00273
       4 -> 15        -0.00865
       4 -> 17         0.00258
       4 -> 20         0.00306
       4 -> 21         0.00034
       4 -> 24        -0.00415
       4 -> 26         0.00395
       4 -> 30         0.00070
       4 -> 32        -0.00133
       4 -> 34         0.00102
       4 -> 36         0.00029
       4 -> 39         0.00010
       4 -> 41         0.00010
       4 -> 43        -0.00051
       4 -> 45        -0.00081
       4 -> 47        -0.00091
       4 -> 50        -0.00031
       4 -> 54         0.00014
       5 -> 12         0.01198
       5 -> 16         0.00493
       5 -> 19         0.00131
       5 -> 22         0.00731
       5 -> 25        -0.00580
       5 -> 29         0.00026
       5 -> 33        -0.00264
       5 -> 35         0.00277
       5 -> 40        -0.00119
       5 -> 42         0.00087
       5 -> 49         0.00026
       5 -> 51        -0.00080
       6 -> 10         0.22847
       6 -> 11         0.05423
       6 -> 14        -0.06047
       6 -> 15        -0.03159
       6 -> 17        -0.01740
       6 -> 20        -0.00403
       6 -> 21         0.00789
       6 -> 24        -0.00983
       6 -> 26        -0.00431
       6 -> 30        -0.00589
       6 -> 32         0.00267
       6 -> 34        -0.00140
       6 -> 36         0.00014
       6 -> 39         0.00117
       6 -> 41        -0.00020
       6 -> 43         0.00085
       6 -> 45         0.00083
       6 -> 47         0.00092
       6 -> 50         0.00068
       6 -> 54        -0.00089
       7 ->  9         0.67905
       7 -> 13        -0.00499
       7 -> 18        -0.01299
       7 -> 23        -0.00192
       7 -> 28         0.00047
       7 -> 31        -0.00324
       7 -> 37         0.00122
       7 -> 44        -0.00099
       7 -> 48         0.00018
       7 -> 52         0.00106
       8 -> 12        -0.00787
       8 -> 16         0.04640
       8 -> 19        -0.02062
       8 -> 22        -0.01685
       8 -> 29        -0.00936
       8 -> 33         0.00129
       8 -> 35        -0.00122
       8 -> 40         0.00055
       8 -> 42        -0.00034
       8 -> 49         0.00030
       8 -> 51         0.00017
       8 -> 53        -0.00057
       3 <- 10        -0.01276
       3 <- 11        -0.00422
       3 <- 14         0.00303
       3 <- 15         0.00060
       3 <- 17        -0.00180
       3 <- 20        -0.00312
       3 <- 21        -0.00040
       3 <- 24         0.00047
       3 <- 26         0.00101
       3 <- 30        -0.00063
       3 <- 32         0.00247
       3 <- 34        -0.00076
       3 <- 36        -0.00105
       3 <- 39         0.00052
       3 <- 43         0.00060
       3 <- 45         0.00086
       3 <- 47         0.00233
       3 <- 50         0.00139
       3 <- 54         0.00013
       4 <- 10        -0.00126
       4 <- 11         0.00827
       4 <- 14         0.00178
       4 <- 15        -0.00564
       4 <- 17         0.00147
       4 <- 20         0.00321
       4 <- 21         0.00019
       4 <- 24        -0.00305
       4 <- 26         0.00336
       4 <- 32        -0.00152
       4 <- 34         0.00087
       4 <- 36         0.00057
       4 <- 43        -0.00047
       4 <- 45        -0.00079
       4 <- 47        -0.00057
       4 <- 50        -0.00017
       4 <- 54         0.00011
       5 <- 12         0.00656
       5 <- 16         0.00299
       5 <- 19         0.00100
       5 <- 22         0.00501
       5 <- 25        -0.00433
       5 <- 29         0.00031
       5 <- 33        -0.00215
       5 <- 35         0.00235
       5 <- 40        -0.00107
       5 <- 42         0.00076
       5 <- 49         0.00024
       5 <- 51        -0.00074
       6 <- 10         0.07539
       6 <- 11         0.02057
       6 <- 14        -0.02717
       6 <- 15        -0.01564
       6 <- 17        -0.00979
       6 <- 20        -0.00365
       6 <- 21         0.00514
       6 <- 24        -0.00634
       6 <- 26        -0.00238
       6 <- 30        -0.00412
       6 <- 32         0.00285
       6 <- 34        -0.00161
       6 <- 36        -0.00034
       6 <- 39         0.00111
       6 <- 41        -0.00016
       6 <- 43         0.00071
       6 <- 45         0.00064
       6 <- 47         0.00054
       6 <- 50         0.00053
       6 <- 54        -0.00079
       7 <-  9        -0.13018
       7 <- 13         0.00474
       7 <- 18        -0.01232
       7 <- 23         0.00166
       7 <- 28        -0.00242
       7 <- 31        -0.00158
       7 <- 37         0.00055
       7 <- 44        -0.00072
       7 <- 48        -0.00035
       7 <- 52         0.00096
       8 <- 12        -0.00273
       8 <- 16         0.02083
       8 <- 19        -0.01085
       8 <- 22        -0.01045
       8 <- 29        -0.00726
       8 <- 33         0.00101
       8 <- 35        -0.00096
       8 <- 40         0.00044
       8 <- 42        -0.00027
       8 <- 49         0.00014
       8 <- 51         0.00015
       8 <- 53        -0.00053
 
 Excited State   3:      Singlet-B1     4.3871 eV  282.61 nm  f=0.0008  <S**2>=0.000
       3 ->  9        -0.02517
       3 -> 13         0.00111
       3 -> 18        -0.00394
       3 -> 23         0.00136
       3 -> 28        -0.00078
       3 -> 31        -0.00058
       3 -> 37         0.00011
       3 -> 44         0.00028
       3 -> 48         0.00083
       3 -> 52         0.00082
       4 ->  9         0.01049
       4 -> 13        -0.00229
       4 -> 18         0.00013
       4 -> 23        -0.00204
       4 -> 28         0.00039
       4 -> 31        -0.00132
       4 -> 37        -0.00033
       4 -> 48        -0.00075
       4 -> 52        -0.00040
       5 -> 27         0.00012
       5 -> 38         0.00186
       5 -> 46         0.00057
       6 ->  9         0.69259
       6 -> 13        -0.01779
       6 -> 18         0.01492
       6 -> 23        -0.01042
       6 -> 28         0.00364
       6 -> 31         0.00262
       6 -> 37        -0.00177
       6 -> 44        -0.00218
       6 -> 48         0.00364
       6 -> 52         0.00116
       7 -> 10         0.14336
       7 -> 11         0.02550
       7 -> 14        -0.02284
       7 -> 15        -0.00674
       7 -> 17        -0.00919
       7 -> 20         0.00352
       7 -> 21         0.00119
       7 -> 24        -0.00184
       7 -> 26        -0.00236
       7 -> 30        -0.00414
       7 -> 32        -0.00015
       7 -> 34        -0.00083
       7 -> 36         0.00155
       7 -> 39         0.00018
       7 -> 41        -0.00027
       7 -> 43         0.00048
       7 -> 45         0.00036
       7 -> 47         0.00377
       7 -> 50         0.00122
       8 -> 27         0.00017
       8 -> 46         0.00465
       3 <-  9        -0.00850
       3 <- 13        -0.00083
       3 <- 18        -0.00262
       3 <- 23        -0.00060
       3 <- 28        -0.00044
       3 <- 31        -0.00074
       3 <- 37         0.00015
       3 <- 44        -0.00011
       3 <- 48         0.00095
       3 <- 52         0.00071
       4 <-  9         0.00612
       4 <- 13        -0.00042
       4 <- 18         0.00158
       4 <- 23        -0.00074
       4 <- 28         0.00143
       4 <- 31        -0.00090
       4 <- 37        -0.00020
       4 <- 48        -0.00066
       4 <- 52        -0.00022
       5 <- 27        -0.00041
       5 <- 38         0.00158
       5 <- 46         0.00050
       6 <-  9        -0.03310
       6 <- 13         0.00193
       6 <- 18        -0.00410
       6 <- 28        -0.00378
       6 <- 31         0.00054
       6 <- 37        -0.00148
       6 <- 44        -0.00088
       6 <- 48         0.00326
       6 <- 52         0.00022
       7 <- 10        -0.03647
       7 <- 11        -0.00986
       7 <- 14         0.01410
       7 <- 15         0.00922
       7 <- 17         0.00251
       7 <- 20         0.00371
       7 <- 21        -0.00359
       7 <- 24         0.00426
       7 <- 26         0.00172
       7 <- 30         0.00174
       7 <- 32         0.00035
       7 <- 34        -0.00109
       7 <- 36         0.00185
       7 <- 39         0.00056
       7 <- 43         0.00029
       7 <- 45         0.00014
       7 <- 47         0.00349
       7 <- 50         0.00126
       7 <- 54         0.00094
       8 <- 27         0.00065
       8 <- 38         0.00014
       8 <- 46         0.00436
 
 Excited State   4:      Singlet-B2     4.5205 eV  274.27 nm  f=0.0046  <S**2>=0.000
       3 -> 12        -0.00137
       3 -> 16         0.00168
       3 -> 19        -0.00437
       3 -> 22         0.00092
       3 -> 25        -0.00080
       3 -> 29        -0.00300
       3 -> 35         0.00180
       3 -> 40        -0.00159
       3 -> 42         0.00049
       3 -> 49        -0.00355
       3 -> 51         0.00020
       3 -> 53         0.00030
       4 -> 12         0.00045
       4 -> 16        -0.00192
       4 -> 19         0.00043
       4 -> 22         0.00223
       4 -> 25         0.00098
       4 -> 29         0.00117
       4 -> 33        -0.00040
       4 -> 35         0.00048
       4 -> 40         0.00039
       4 -> 42        -0.00011
       4 -> 49         0.00067
       4 -> 51        -0.00012
       5 -> 10         0.01093
       5 -> 11         0.00236
       5 -> 14        -0.00572
       5 -> 15         0.00395
       5 -> 17        -0.00036
       5 -> 20         0.00211
       5 -> 21         0.00416
       5 -> 24         0.00163
       5 -> 26        -0.00094
       5 -> 30        -0.00199
       5 -> 32        -0.00185
       5 -> 34         0.00056
       5 -> 39        -0.00085
       5 -> 41         0.00053
       5 -> 47        -0.00057
       5 -> 50         0.00036
       5 -> 54        -0.00022
       6 -> 12         0.00269
       6 -> 16        -0.00248
       6 -> 19         0.00388
       6 -> 22        -0.00051
       6 -> 25         0.00105
       6 -> 29        -0.00016
       6 -> 35        -0.00160
       6 -> 40         0.00122
       6 -> 42        -0.00066
       6 -> 49         0.00148
       6 -> 53        -0.00044
       7 -> 27        -0.00063
       7 -> 38         0.00050
       7 -> 46         0.00348
       8 -> 10         0.69499
       8 -> 11         0.09975
       8 -> 14        -0.08112
       8 -> 15        -0.03162
       8 -> 17        -0.01633
       8 -> 20         0.00261
       8 -> 21         0.00715
       8 -> 24        -0.00658
       8 -> 26        -0.00512
       8 -> 30        -0.01193
       8 -> 32        -0.00348
       8 -> 34         0.00161
       8 -> 36         0.00083
       8 -> 39        -0.00072
       8 -> 45         0.00104
       8 -> 47        -0.00430
       8 -> 50         0.00186
       8 -> 54        -0.00226
       3 <- 12        -0.00049
       3 <- 16         0.00053
       3 <- 19        -0.00211
       3 <- 22         0.00096
       3 <- 25        -0.00072
       3 <- 29        -0.00120
       3 <- 35         0.00128
       3 <- 40        -0.00138
       3 <- 42         0.00039
       3 <- 49        -0.00362
       3 <- 51         0.00018
       3 <- 53         0.00082
       4 <- 16        -0.00195
       4 <- 19         0.00013
       4 <- 22         0.00238
       4 <- 25         0.00060
       4 <- 29         0.00127
       4 <- 33        -0.00044
       4 <- 35         0.00070
       4 <- 40         0.00015
       4 <- 49         0.00048
       5 <- 10        -0.00079
       5 <- 11        -0.00099
       5 <- 14        -0.00066
       5 <- 15         0.00306
       5 <- 17         0.00020
       5 <- 20         0.00075
       5 <- 21         0.00189
       5 <- 24         0.00196
       5 <- 26        -0.00024
       5 <- 30        -0.00043
       5 <- 32        -0.00031
       5 <- 39        -0.00034
       5 <- 41         0.00056
       5 <- 45         0.00030
       5 <- 47        -0.00054
       5 <- 50         0.00019
       6 <- 12        -0.00043
       6 <- 16         0.00704
       6 <- 19        -0.00347
       6 <- 22        -0.00494
       6 <- 25         0.00098
       6 <- 29        -0.00574
       6 <- 33         0.00035
       6 <- 35        -0.00151
       6 <- 40         0.00125
       6 <- 42        -0.00072
       6 <- 49         0.00186
       6 <- 53        -0.00133
       7 <- 27        -0.00061
       7 <- 38         0.00040
       7 <- 46         0.00295
       8 <- 10        -0.03214
       8 <- 11        -0.00880
       8 <- 14         0.00936
       8 <- 15         0.00259
       8 <- 17         0.00124
       8 <- 20        -0.00293
       8 <- 21        -0.00176
       8 <- 24         0.00161
       8 <- 26         0.00156
       8 <- 30         0.00027
       8 <- 32         0.00306
       8 <- 34        -0.00103
       8 <- 36        -0.00061
       8 <- 39         0.00137
       8 <- 41         0.00033
       8 <- 43         0.00049
       8 <- 45         0.00182
       8 <- 47        -0.00345
       8 <- 50         0.00132
       8 <- 54        -0.00061
 
 Excited State   5:      Singlet-B1     5.4025 eV  229.49 nm  f=0.0076  <S**2>=0.000
       3 ->  9        -0.00991
       3 -> 13         0.00049
       3 -> 18        -0.00270
       3 -> 23         0.00070
       3 -> 28        -0.00300
       3 -> 31        -0.00158
       3 -> 37         0.00011
       3 -> 44         0.00036
       3 -> 48        -0.00271
       3 -> 52        -0.00010
       4 ->  9        -0.03191
       4 -> 13         0.00614
       4 -> 18         0.00116
       4 -> 23         0.00461
       4 -> 28         0.00151
       4 -> 37         0.00033
       4 -> 44        -0.00046
       4 -> 48         0.00072
       4 -> 52         0.00013
       5 -> 27        -0.00685
       5 -> 38        -0.00325
       5 -> 46         0.00035
       6 ->  9        -0.14471
       6 -> 13        -0.00079
       6 -> 18         0.00160
       6 -> 23         0.00016
       6 -> 28         0.00322
       6 -> 31        -0.00371
       6 -> 37         0.00213
       6 -> 44         0.00041
       6 -> 48         0.00034
       6 -> 52        -0.00066
       7 -> 10         0.68195
       7 -> 11         0.08494
       7 -> 14        -0.07258
       7 -> 15        -0.03753
       7 -> 17        -0.00976
       7 -> 20        -0.00344
       7 -> 21         0.00377
       7 -> 24        -0.00989
       7 -> 26        -0.00672
       7 -> 30        -0.00711
       7 -> 32        -0.00202
       7 -> 34         0.00389
       7 -> 36        -0.00155
       7 -> 39        -0.00064
       7 -> 43         0.00061
       7 -> 45         0.00096
       7 -> 47         0.00149
       7 -> 50         0.00073
       7 -> 54        -0.00156
       8 -> 27         0.00084
       8 -> 38         0.00024
       8 -> 46         0.00178
       3 <-  9        -0.00215
       3 <- 13         0.00066
       3 <- 18        -0.00107
       3 <- 23         0.00059
       3 <- 28        -0.00195
       3 <- 31        -0.00027
       3 <- 37        -0.00021
       3 <- 44         0.00013
       3 <- 48        -0.00287
       3 <- 52         0.00036
       4 <-  9        -0.01228
       4 <- 13         0.00264
       4 <- 18         0.00040
       4 <- 23         0.00255
       4 <- 28         0.00144
       4 <- 37         0.00038
       4 <- 44        -0.00067
       4 <- 48         0.00031
       4 <- 52         0.00012
       5 <- 27        -0.00476
       5 <- 38        -0.00257
       5 <- 46         0.00034
       6 <-  9        -0.02778
       6 <- 18        -0.00374
       6 <- 23         0.00049
       6 <- 28        -0.00052
       6 <- 31        -0.00444
       6 <- 37         0.00193
       6 <- 44         0.00058
       6 <- 48         0.00083
       6 <- 52        -0.00120
       7 <- 10        -0.02001
       7 <- 11        -0.00523
       7 <- 14         0.00543
       7 <- 15        -0.00247
       7 <- 17         0.00102
       7 <- 20        -0.00398
       7 <- 21        -0.00180
       7 <- 24        -0.00153
       7 <- 26         0.00037
       7 <- 32         0.00148
       7 <- 34         0.00184
       7 <- 36        -0.00213
       7 <- 39         0.00034
       7 <- 41         0.00021
       7 <- 43         0.00064
       7 <- 45         0.00090
       7 <- 47         0.00114
       7 <- 50         0.00032
       7 <- 54        -0.00068
       8 <- 27         0.00051
       8 <- 46         0.00125
 
 Excited State   6:      Singlet-B2     6.9298 eV  178.92 nm  f=0.0016  <S**2>=0.000
       3 -> 12         0.00160
       3 -> 16         0.00095
       3 -> 19        -0.00033
       3 -> 22        -0.00025
       3 -> 25        -0.00070
       3 -> 29        -0.00168
       3 -> 33         0.00017
       3 -> 35         0.00014
       3 -> 40        -0.00017
       3 -> 49        -0.00030
       4 -> 12        -0.00075
       4 -> 16         0.00095
       4 -> 19         0.00080
       4 -> 22        -0.00119
       4 -> 25        -0.00087
       4 -> 29         0.00073
       5 -> 11        -0.00737
       5 -> 14         0.00423
       5 -> 15         0.00339
       5 -> 17         0.00025
       5 -> 20         0.00071
       5 -> 21        -0.00054
       5 -> 24        -0.00047
       5 -> 26        -0.00013
       5 -> 30        -0.00028
       5 -> 32        -0.00103
       5 -> 34        -0.00063
       5 -> 36        -0.00016
       5 -> 39        -0.00030
       5 -> 41        -0.00025
       5 -> 43        -0.00023
       5 -> 45         0.00018
       5 -> 47        -0.00015
       5 -> 50         0.00012
       6 -> 12        -0.00326
       6 -> 16        -0.00110
       6 -> 19        -0.00040
       6 -> 22        -0.00026
       6 -> 29        -0.00036
       6 -> 33        -0.00010
       6 -> 35         0.00041
       6 -> 49         0.00077
       7 -> 27        -0.00050
       7 -> 38        -0.00035
       7 -> 46         0.00095
       8 -> 10        -0.09656
       8 -> 11         0.69884
       8 -> 14         0.03965
       8 -> 15        -0.02138
       8 -> 17        -0.00305
       8 -> 20         0.01262
       8 -> 21         0.00277
       8 -> 24        -0.00240
       8 -> 26         0.00246
       8 -> 30        -0.00155
       8 -> 32        -0.00043
       8 -> 34         0.00040
       8 -> 36        -0.00044
       8 -> 41        -0.00021
       8 -> 43         0.00031
       8 -> 45         0.00059
       8 -> 47        -0.00119
       8 -> 50         0.00052
       8 -> 54        -0.00021
       3 <- 16         0.00055
       3 <- 19        -0.00038
       3 <- 22        -0.00035
       3 <- 25        -0.00027
       3 <- 29        -0.00093
       3 <- 40        -0.00012
       3 <- 49        -0.00029
       3 <- 53         0.00013
       4 <- 12         0.00048
       4 <- 16         0.00076
       4 <- 19         0.00078
       4 <- 22        -0.00071
       4 <- 25        -0.00060
       4 <- 29         0.00051
       4 <- 42        -0.00013
       4 <- 51        -0.00012
       5 <- 10        -0.00169
       5 <- 14         0.00084
       5 <- 15        -0.00020
       5 <- 20         0.00017
       5 <- 21         0.00020
       5 <- 24        -0.00081
       5 <- 26         0.00036
       5 <- 30        -0.00013
       5 <- 32        -0.00037
       5 <- 34        -0.00062
       5 <- 39        -0.00013
       5 <- 41        -0.00016
       5 <- 43        -0.00016
       5 <- 45         0.00017
       5 <- 47        -0.00019
       6 <- 12        -0.00047
       6 <- 16         0.00034
       6 <- 19        -0.00044
       6 <- 22        -0.00033
       6 <- 29        -0.00063
       6 <- 35         0.00027
       6 <- 49         0.00069
       7 <- 27        -0.00035
       7 <- 38        -0.00026
       7 <- 46         0.00082
       8 <- 10        -0.00365
       8 <- 11        -0.00148
       8 <- 14         0.00056
       8 <- 15         0.00058
       8 <- 17        -0.00103
       8 <- 20        -0.00209
       8 <- 21         0.00021
       8 <- 24         0.00045
       8 <- 30        -0.00041
       8 <- 32         0.00135
       8 <- 34        -0.00045
       8 <- 36        -0.00101
       8 <- 39         0.00029
       8 <- 43         0.00015
       8 <- 45         0.00043
       8 <- 47        -0.00095
       8 <- 50         0.00047
 
 Excited State   7:      Singlet-A2     7.0805 eV  175.11 nm  f=0.0000  <S**2>=0.000
       3 -> 27        -0.00118
       3 -> 38        -0.00037
       3 -> 46         0.00020
       4 -> 27        -0.00595
       4 -> 38         0.00043
       4 -> 46        -0.00025
       5 ->  9         0.70624
       5 -> 13        -0.02585
       5 -> 18         0.00444
       5 -> 23        -0.01560
       5 -> 28         0.00115
       5 -> 31        -0.00187
       5 -> 37        -0.00573
       5 -> 44        -0.00216
       6 -> 27        -0.00085
       6 -> 38         0.00231
       6 -> 46         0.00020
       7 -> 12         0.01390
       7 -> 16         0.01328
       7 -> 19         0.00105
       7 -> 22        -0.00452
       7 -> 25        -0.00024
       7 -> 29        -0.00057
       7 -> 33        -0.00049
       7 -> 35        -0.00020
       7 -> 42        -0.00029
       7 -> 51        -0.00080
       8 ->  9        -0.00338
       8 -> 13         0.00938
       8 -> 18         0.00329
       8 -> 23         0.00193
       8 -> 28         0.00063
       8 -> 31         0.00079
       8 -> 37         0.00129
       8 -> 44         0.00018
       8 -> 52         0.00023
       3 <- 27        -0.00131
       3 <- 38        -0.00048
       3 <- 46         0.00025
       4 <- 27        -0.00544
       5 <-  9        -0.01392
       5 <- 13         0.00204
       5 <- 18         0.00012
       5 <- 28         0.00209
       5 <- 31        -0.00313
       5 <- 37        -0.00349
       5 <- 44        -0.00046
       5 <- 48        -0.00015
       6 <- 27        -0.00139
       6 <- 38         0.00171
       6 <- 46         0.00010
       7 <- 12        -0.00308
       7 <- 16        -0.00052
       7 <- 19        -0.00066
       7 <- 22        -0.00393
       7 <- 25         0.00335
       7 <- 33         0.00035
       7 <- 35        -0.00078
       7 <- 40         0.00033
       7 <- 42        -0.00083
       7 <- 49        -0.00022
       7 <- 51        -0.00091
       7 <- 53         0.00013
       8 <-  9         0.00032
       8 <- 13        -0.00045
       8 <- 18        -0.00124
       8 <- 23        -0.00033
       8 <- 28        -0.00141
       8 <- 31         0.00086
       8 <- 37         0.00067
 
 Excited State   8:      Singlet-B1     7.5728 eV  163.72 nm  f=0.0738  <S**2>=0.000
       3 ->  9        -0.00160
       3 -> 13         0.00182
       3 -> 18        -0.00079
       3 -> 23        -0.00018
       3 -> 28        -0.00180
       3 -> 31        -0.00089
       3 -> 44        -0.00021
       3 -> 48        -0.00017
       3 -> 52        -0.00018
       4 ->  9        -0.00087
       4 -> 13         0.00198
       4 -> 18         0.00014
       4 -> 23        -0.00127
       4 -> 28         0.00031
       4 -> 31         0.00057
       4 -> 37        -0.00039
       4 -> 44        -0.00043
       4 -> 48        -0.00011
       5 -> 27        -0.00074
       5 -> 38         0.00021
       6 ->  9        -0.00711
       6 -> 13        -0.00217
       6 -> 18        -0.00041
       6 -> 23         0.00020
       6 -> 28         0.00040
       6 -> 31        -0.00058
       6 -> 44         0.00036
       6 -> 48         0.00025
       6 -> 52        -0.00010
       7 -> 10        -0.08947
       7 -> 11         0.70023
       7 -> 14         0.01136
       7 -> 15        -0.03799
       7 -> 17        -0.00375
       7 -> 20         0.00393
       7 -> 21         0.00412
       7 -> 24        -0.00700
       7 -> 26         0.00156
       7 -> 30        -0.00059
       7 -> 34         0.00050
       7 -> 36        -0.00095
       7 -> 41        -0.00029
       7 -> 43         0.00038
       7 -> 45         0.00048
       7 -> 47         0.00033
       7 -> 50         0.00011
       7 -> 54        -0.00023
       8 -> 38        -0.00023
       8 -> 46         0.00046
       3 <-  9         0.00026
       3 <- 18        -0.00053
       3 <- 23        -0.00043
       3 <- 28        -0.00118
       3 <- 31        -0.00039
       3 <- 48        -0.00018
       4 <-  9        -0.00413
       4 <- 13         0.00087
       4 <- 18         0.00016
       4 <- 23        -0.00035
       4 <- 28         0.00016
       4 <- 31         0.00055
       4 <- 37        -0.00030
       5 <- 27        -0.00037
       5 <- 38         0.00020
       6 <-  9        -0.00439
       6 <- 13         0.00080
       6 <- 18        -0.00056
       6 <- 23         0.00124
       6 <- 31        -0.00061
       6 <- 37         0.00013
       6 <- 44         0.00044
       6 <- 48         0.00031
       6 <- 52        -0.00015
       7 <- 10        -0.00315
       7 <- 11        -0.00215
       7 <- 14        -0.00060
       7 <- 15         0.00035
       7 <- 17        -0.00026
       7 <- 20        -0.00374
       7 <- 21        -0.00029
       7 <- 26        -0.00129
       7 <- 30         0.00021
       7 <- 32         0.00109
       7 <- 34        -0.00027
       7 <- 36        -0.00098
       7 <- 41         0.00012
       7 <- 45         0.00027
       7 <- 47         0.00028
       7 <- 50         0.00014
       8 <- 38        -0.00015
       8 <- 46         0.00032
 
 Excited State   9:      Singlet-A1     8.0232 eV  154.53 nm  f=0.0161  <S**2>=0.000
       3 -> 10        -0.00355
       3 -> 11         0.00082
       3 -> 14         0.00209
       3 -> 17        -0.00046
       3 -> 20        -0.00051
       3 -> 21         0.00025
       3 -> 26        -0.00022
       3 -> 30        -0.00012
[...]
  46        4PY         0.00000  -0.00000  -0.01536  -0.04322  -0.06905
  47        4PZ        -0.00425  -0.00000   0.01919   0.02848   0.01921
  48        5S         -0.00218  -0.00000   0.00850   0.01274   0.00985
  49        5PX         0.00000  -0.00000   0.00000   0.00000   0.00000
  50        5PY         0.00000  -0.00000  -0.00804  -0.01634  -0.01721
  51        5PZ        -0.00001  -0.00000   0.00167   0.00211  -0.00036
  52        6D 0        0.00022   0.00000  -0.00045  -0.00081  -0.00116
  53        6D+1        0.00000   0.00000   0.00000   0.00000  -0.00000
  54        6D-1       -0.00000  -0.00000  -0.00080  -0.00078   0.00082
  55        6D+2        0.00001   0.00000  -0.00002  -0.00000   0.00000
  56        6D-2        0.00000   0.00000   0.00000   0.00000   0.00000
                          26        27        28        29        30
  26        4PX         0.00027
  27        4PY        -0.00000   0.00105
  28        4PZ         0.00000  -0.00045   0.00065
  29 3   H  1S          0.00000  -0.00180  -0.00298   0.07732
  30        2S          0.00000  -0.00159  -0.00478   0.10919   0.15684
  31        3S         -0.00000   0.00092  -0.00259   0.03114   0.05040
  32        4PX         0.00027   0.00000   0.00000  -0.00000  -0.00000
  33        4PY         0.00000  -0.00060  -0.00008   0.00815   0.01094
  34        4PZ        -0.00000   0.00008   0.00003   0.00446   0.00624
  35 4   O  1S         -0.00000   0.00006  -0.00025   0.00097   0.00012
  36        2S         -0.00000   0.00015  -0.00033   0.00155   0.00017
  37        2PX         0.00576   0.00000  -0.00000  -0.00000  -0.00000
  38        2PY         0.00000  -0.00080   0.00063   0.01072   0.03173
  39        2PZ         0.00000  -0.00182  -0.00463   0.01654   0.02471
  40        3S          0.00000  -0.00051   0.00055  -0.00496  -0.00076
  41        3PX         0.00831   0.00000  -0.00000  -0.00000  -0.00000
  42        3PY         0.00000  -0.00115   0.00091   0.01511   0.04497
  43        3PZ         0.00000  -0.00265  -0.00693   0.02431   0.03636
  44        4S          0.00000  -0.00074  -0.00038  -0.00100   0.00384
  45        4PX         0.00750   0.00000  -0.00000  -0.00000  -0.00000
  46        4PY         0.00000  -0.00092   0.00069   0.01536   0.04322
  47        4PZ         0.00000  -0.00214  -0.00518   0.01919   0.02848
  48        5S          0.00000  -0.00080  -0.00282   0.00850   0.01274
  49        5PX         0.00133   0.00000   0.00000  -0.00000  -0.00000
  50        5PY         0.00000   0.00014  -0.00024   0.00804   0.01634
  51        5PZ         0.00000  -0.00035   0.00029   0.00167   0.00211
  52        6D 0        0.00000  -0.00000   0.00038  -0.00045  -0.00081
  53        6D+1       -0.00025  -0.00000   0.00000  -0.00000  -0.00000
  54        6D-1       -0.00000   0.00010  -0.00010   0.00080   0.00078
  55        6D+2        0.00000  -0.00000   0.00001  -0.00002  -0.00000
  56        6D-2        0.00000  -0.00000   0.00000   0.00000   0.00000
                          31        32        33        34        35
  31        3S          0.03007
  32        4PX        -0.00000   0.00027
  33        4PY         0.00199  -0.00000   0.00105
  34        4PZ         0.00097  -0.00000   0.00045   0.00065
  35 4   O  1S         -0.00021   0.00000  -0.00006  -0.00025   0.64179
  36        2S         -0.00042   0.00000  -0.00015  -0.00033   0.57250
  37        2PX        -0.00000   0.00576   0.00000   0.00000   0.00000
  38        2PY         0.05289   0.00000  -0.00080  -0.00063   0.00000
  39        2PZ         0.01705  -0.00000   0.00182  -0.00463  -0.00889
  40        3S          0.00197  -0.00000   0.00051   0.00055  -0.14860
  41        3PX        -0.00000   0.00831   0.00000   0.00000   0.00000
  42        3PY         0.07528   0.00000  -0.00115  -0.00091   0.00000
  43        3PZ         0.02541  -0.00000   0.00265  -0.00693  -0.01042
  44        4S          0.00462  -0.00000   0.00074  -0.00038  -0.14022
  45        4PX        -0.00000   0.00750   0.00000   0.00000   0.00000
  46        4PY         0.06905   0.00000  -0.00092  -0.00069   0.00000
  47        4PZ         0.01921  -0.00000   0.00214  -0.00518  -0.00705
  48        5S          0.00985  -0.00000   0.00080  -0.00282   0.00893
  49        5PX        -0.00000   0.00133   0.00000  -0.00000   0.00000
  50        5PY         0.01721   0.00000   0.00014   0.00024   0.00000
  51        5PZ        -0.00036  -0.00000   0.00035   0.00029  -0.00567
  52        6D 0       -0.00116  -0.00000   0.00000   0.00038  -0.00094
  53        6D+1        0.00000  -0.00025  -0.00000  -0.00000   0.00000
  54        6D-1       -0.00082  -0.00000   0.00010   0.00010   0.00000
  55        6D+2        0.00000  -0.00000   0.00000   0.00001  -0.00082
  56        6D-2        0.00000  -0.00000   0.00000   0.00000  -0.00000
                          36        37        38        39        40
  36        2S          0.52892
  37        2PX         0.00000   0.12230
  38        2PY         0.00000  -0.00000   0.19379
  39        2PZ        -0.01388   0.00000   0.00000   0.09270
  40        3S         -0.24916   0.00000   0.00000   0.04285   0.78039
  41        3PX         0.00000   0.17644  -0.00000   0.00000   0.00000
  42        3PY         0.00000  -0.00000   0.27615  -0.00000  -0.00000
  43        3PZ        -0.01727   0.00000   0.00000   0.13798   0.05754
  44        4S         -0.21910   0.00000   0.00000   0.05099   0.63446
  45        4PX         0.00000   0.15920  -0.00000   0.00000   0.00000
  46        4PY         0.00000  -0.00000   0.25011  -0.00000  -0.00000
  47        4PZ        -0.01226   0.00000   0.00000   0.10407   0.04287
  48        5S          0.00934   0.00000   0.00000   0.05240  -0.00917
  49        5PX         0.00000   0.02830  -0.00000   0.00000   0.00000
  50        5PY         0.00000  -0.00000   0.05337   0.00000  -0.00000
  51        5PZ        -0.00811   0.00000   0.00000  -0.00153   0.02068
  52        6D 0       -0.00142  -0.00000  -0.00000  -0.00623   0.00370
  53        6D+1        0.00000  -0.00533   0.00000   0.00000  -0.00000
  54        6D-1        0.00000   0.00000  -0.00507   0.00000  -0.00000
  55        6D+2       -0.00130   0.00000  -0.00000   0.00017   0.00388
  56        6D-2       -0.00000   0.00000  -0.00000   0.00000   0.00000
                          41        42        43        44        45
  41        3PX         0.25454
  42        3PY        -0.00000   0.39350
  43        3PZ         0.00000   0.00000   0.20544
  44        4S          0.00000   0.00000   0.07084   0.51932
  45        4PX         0.22967  -0.00000   0.00000   0.00000   0.20723
  46        4PY        -0.00000   0.35638  -0.00000  -0.00000  -0.00000
  47        4PZ         0.00000   0.00000   0.15495   0.05299   0.00000
  48        5S          0.00000   0.00000   0.07831   0.00177   0.00000
  49        5PX         0.04083  -0.00000   0.00000   0.00000   0.03684
  50        5PY        -0.00000   0.07603   0.00000  -0.00000  -0.00000
  51        5PZ         0.00000   0.00000  -0.00250   0.01639   0.00000
  52        6D 0       -0.00000  -0.00000  -0.00934   0.00187  -0.00000
  53        6D+1       -0.00768  -0.00000   0.00000  -0.00000  -0.00693
  54        6D-1       -0.00000  -0.00722   0.00000  -0.00000   0.00000
  55        6D+2        0.00000  -0.00000   0.00022   0.00315   0.00000
  56        6D-2        0.00000  -0.00000   0.00000   0.00000   0.00000
                          46        47        48        49        50
  46        4PY         0.32283
  47        4PZ         0.00000   0.11689
  48        5S          0.00000   0.05906   0.03126
  49        5PX        -0.00000   0.00000   0.00000   0.00655
  50        5PY         0.06904   0.00000   0.00000  -0.00000   0.01526
  51        5PZ         0.00000  -0.00183  -0.00195   0.00000   0.00000
  52        6D 0       -0.00000  -0.00703  -0.00385  -0.00000  -0.00000
  53        6D+1        0.00000   0.00000   0.00000  -0.00123   0.00000
  54        6D-1       -0.00650   0.00000   0.00000   0.00000  -0.00128
  55        6D+2       -0.00000   0.00017  -0.00007  -0.00000  -0.00000
  56        6D-2       -0.00000   0.00000   0.00000   0.00000   0.00000
                          51        52        53        54        55
  51        5PZ         0.00083
  52        6D 0        0.00035   0.00050
  53        6D+1       -0.00000   0.00000   0.00023
  54        6D-1       -0.00000   0.00000   0.00000   0.00016
  55        6D+2        0.00010   0.00002  -0.00000   0.00000   0.00002
  56        6D-2        0.00000   0.00000  -0.00000   0.00000   0.00000
                          56
  56        6D-2        0.00000
          Condensed to atoms (all electrons):
               1          2          3          4
     1  C    5.106487   0.354695   0.354695   0.270406
     2  H    0.354695   0.523269  -0.049177  -0.017848
     3  H    0.354695  -0.049177   0.523269  -0.017848
     4  O    0.270406  -0.017848  -0.017848   8.057128
 Mulliken charges:
               1
     1  C   -0.086284
     2  H    0.189061
     3  H    0.189061
     4  O   -0.291838
 Sum of Mulliken charges =  -0.00000
 Mulliken charges with hydrogens summed into heavy atoms:
               1
     1  C    0.291838
     4  O   -0.291838
 Electronic spatial extent (au):  <R**2>=             86.2226
 Charge=             -0.0000 electrons
 Dipole moment (field-independent basis, Debye):
    X=             -0.0000    Y=              0.0000    Z=             -4.0440  Tot=              4.0440
 Quadrupole moment (field-independent basis, Debye-Ang):
   XX=            -12.9543   YY=            -11.9891   ZZ=            -10.8703
   XY=              0.0000   XZ=              0.0000   YZ=             -0.0000
 Traceless Quadrupole moment (field-independent basis, Debye-Ang):
   XX=             -1.0164   YY=             -0.0512   ZZ=              1.0676
   XY=              0.0000   XZ=              0.0000   YZ=             -0.0000
 Octapole moment (field-independent basis, Debye-Ang**2):
  XXX=              0.0000  YYY=             -0.0000  ZZZ=             -2.7562  XYY=             -0.0000
  XXY=             -0.0000  XXZ=              0.4830  XZZ=             -0.0000  YZZ=              0.0000
  YYZ=             -2.5417  XYZ=             -0.0000
 Hexadecapole moment (field-independent basis, Debye-Ang**3):
 XXXX=            -13.9155 YYYY=            -18.4981 ZZZZ=            -72.9907 XXXY=             -0.0000
 XXXZ=             -0.0000 YYYX=             -0.0000 YYYZ=             -0.0000 ZZZX=              0.0000
 ZZZY=              0.0000 XXYY=             -5.8512 XXZZ=            -15.4895 YYZZ=            -13.7590
 XXYZ=             -0.0000 YYXZ=              0.0000 ZZXY=              0.0000
 N-N= 2.388411880256D+01 E-N=-3.162048724679D+02  KE= 1.133261076684D+02
 Symmetry A1   KE= 1.027610488565D+02
 Symmetry A2   KE= 1.599583917488D-35
 Symmetry B1   KE= 3.692299019287D+00
 Symmetry B2   KE= 6.872759792598D+00
 Leave Link  601 at Fri Sep 17 10:53:06 2021, MaxMem=   268435456 cpu:               0.0 elap:               0.0
 (Enter /software/gaussian/g16-a03/l9999.exe)
 Electronic transition elements 
                 1             2             3             4             5 
      1  -0.114318D+03 -0.114229D+03 -0.114212D+03 -0.114207D+03 -0.114175D+03
      2   0.000000D+00  0.000000D+00  0.888072D-01  0.000000D+00 -0.240177D+00
      3   0.000000D+00  0.000000D+00  0.000000D+00 -0.203311D+00  0.000000D+00
      4   0.000000D+00  0.671959D+00  0.000000D+00  0.000000D+00  0.000000D+00
      5   0.000000D+00  0.000000D+00 -0.347746D-01  0.000000D+00  0.401235D-01
      6   0.000000D+00  0.000000D+00  0.000000D+00  0.312096D-01  0.000000D+00
      7   0.000000D+00 -0.854187D-01  0.000000D+00  0.000000D+00  0.000000D+00
      8   0.000000D+00  0.000000D+00  0.000000D+00  0.433188D+00  0.000000D+00
      9   0.000000D+00  0.000000D+00 -0.184428D+01  0.000000D+00 -0.528090D+00
     10   0.983336D+00  0.000000D+00  0.000000D+00  0.000000D+00  0.000000D+00
     11   0.000000D+00  0.584485D-01  0.000000D+00  0.000000D+00  0.000000D+00
     12   0.000000D+00 -0.653291D-02  0.000000D+00  0.000000D+00  0.000000D+00
     13   0.000000D+00 -0.319171D-01  0.000000D+00  0.000000D+00  0.000000D+00
     14  -0.288864D-01  0.000000D+00  0.000000D+00  0.000000D+00  0.000000D+00
     15   0.000000D+00  0.000000D+00 -0.877642D-01  0.000000D+00  0.157712D+00
     16   0.000000D+00  0.000000D+00  0.000000D+00  0.146512D-01  0.000000D+00
                 6             7             8             9            10 
      1  -0.114119D+03 -0.114113D+03 -0.114095D+03 -0.114079D+03 -0.114058D+03
      2   0.000000D+00  0.000000D+00 -0.630493D+00  0.000000D+00  0.000000D+00
      3  -0.980400D-01  0.000000D+00  0.000000D+00  0.000000D+00  0.000000D+00
      4   0.000000D+00  0.000000D+00  0.000000D+00 -0.286321D+00  0.000000D+00
      5   0.000000D+00  0.000000D+00  0.178394D+00  0.000000D+00  0.000000D+00
      6   0.205174D-01  0.000000D+00  0.000000D+00  0.000000D+00  0.000000D+00
      7   0.000000D+00  0.000000D+00  0.000000D+00  0.820240D-01  0.000000D+00
      8  -0.338288D+00  0.000000D+00  0.000000D+00  0.000000D+00  0.000000D+00
      9   0.000000D+00  0.000000D+00 -0.162144D+00  0.000000D+00  0.000000D+00
     10   0.000000D+00 -0.104591D+01  0.000000D+00  0.000000D+00  0.635100D-02
     11   0.000000D+00  0.000000D+00  0.000000D+00  0.380332D-01  0.000000D+00
     12   0.000000D+00  0.000000D+00  0.000000D+00  0.813413D-01  0.000000D+00
     13   0.000000D+00  0.000000D+00  0.000000D+00 -0.209299D+00  0.000000D+00
     14   0.000000D+00  0.174433D+00  0.000000D+00  0.000000D+00  0.117538D+00
     15   0.000000D+00  0.000000D+00 -0.154584D+00  0.000000D+00  0.000000D+00
     16   0.265187D+00  0.000000D+00  0.000000D+00  0.000000D+00  0.000000D+00
                11            12            13            14            15 
      1  -0.114057D+03 -0.114056D+03 -0.114034D+03 -0.114032D+03 -0.114024D+03
      2   0.000000D+00  0.000000D+00  0.000000D+00 -0.368011D+00  0.000000D+00
      3  -0.394541D+00  0.000000D+00  0.000000D+00  0.000000D+00  0.000000D+00
      4   0.000000D+00  0.000000D+00  0.527576D+00  0.000000D+00 -0.106020D+01
      5   0.000000D+00  0.000000D+00  0.000000D+00  0.137428D+00  0.000000D+00
      6   0.128226D+00  0.000000D+00  0.000000D+00  0.000000D+00  0.000000D+00
      7   0.000000D+00  0.000000D+00 -0.177226D+00  0.000000D+00  0.374799D+00
      8  -0.547362D+00  0.000000D+00  0.000000D+00  0.000000D+00  0.000000D+00
      9   0.000000D+00  0.000000D+00  0.000000D+00  0.296105D+00  0.000000D+00
     10   0.000000D+00  0.243030D-01  0.000000D+00  0.000000D+00  0.000000D+00
     11   0.000000D+00  0.000000D+00  0.771419D+00  0.000000D+00  0.246701D+00
     12   0.000000D+00  0.000000D+00  0.560827D-01  0.000000D+00  0.401027D-01
     13   0.000000D+00  0.000000D+00 -0.595506D-01  0.000000D+00 -0.339381D+00
     14   0.000000D+00  0.267063D+00  0.000000D+00  0.000000D+00  0.000000D+00
     15   0.000000D+00  0.000000D+00  0.000000D+00  0.330099D+00  0.000000D+00
     16   0.220620D+00  0.000000D+00  0.000000D+00  0.000000D+00  0.000000D+00
                16            17            18            19            20 
      1  -0.114003D+03 -0.114003D+03 -0.113985D+03 -0.113982D+03 -0.113971D+03
      2   0.000000D+00  0.000000D+00  0.000000D+00 -0.431953D+00  0.000000D+00
      3   0.000000D+00 -0.270217D+00  0.183957D+00  0.000000D+00 -0.221674D+00
      4  -0.507937D+00  0.000000D+00  0.000000D+00  0.000000D+00  0.000000D+00
      5   0.000000D+00  0.000000D+00  0.000000D+00  0.152256D+00  0.000000D+00
      6   0.000000D+00  0.103417D+00 -0.775427D-01  0.000000D+00  0.878217D-01
      7   0.197489D+00  0.000000D+00  0.000000D+00  0.000000D+00  0.000000D+00
      8   0.000000D+00  0.383477D+00  0.745399D+00  0.000000D+00  0.121418D+00
      9   0.000000D+00  0.000000D+00  0.000000D+00  0.192077D+00  0.000000D+00
     10   0.000000D+00  0.000000D+00  0.000000D+00  0.000000D+00  0.000000D+00
     11   0.275113D+00  0.000000D+00  0.000000D+00  0.000000D+00  0.000000D+00
     12   0.263706D+00  0.000000D+00  0.000000D+00  0.000000D+00  0.000000D+00
     13   0.587872D+00  0.000000D+00  0.000000D+00  0.000000D+00  0.000000D+00
     14   0.000000D+00  0.000000D+00  0.000000D+00  0.000000D+00  0.000000D+00
     15   0.000000D+00  0.000000D+00  0.000000D+00 -0.590731D-01  0.000000D+00
     16   0.000000D+00 -0.188843D-01  0.526120D+00  0.000000D+00 -0.240196D+00
                21            22            23            24            25 
      1  -0.113971D+03 -0.113968D+03 -0.113951D+03 -0.113950D+03 -0.113929D+03
      2   0.000000D+00  0.000000D+00 -0.911863D-01  0.000000D+00  0.000000D+00
      3   0.000000D+00  0.000000D+00  0.000000D+00 -0.869787D-01  0.000000D+00
      4   0.000000D+00 -0.962031D+00  0.000000D+00  0.000000D+00  0.000000D+00
      5   0.000000D+00  0.000000D+00  0.333347D-01  0.000000D+00  0.000000D+00
      6   0.000000D+00  0.000000D+00  0.000000D+00  0.300976D-01  0.000000D+00
      7   0.000000D+00  0.391490D+00  0.000000D+00  0.000000D+00  0.000000D+00
      8   0.000000D+00  0.000000D+00  0.000000D+00  0.730869D-01  0.000000D+00
      9   0.000000D+00  0.000000D+00  0.882879D-01  0.000000D+00  0.000000D+00
     10  -0.680370D-01  0.000000D+00  0.000000D+00  0.000000D+00 -0.311143D-01
     11   0.000000D+00 -0.751572D-01  0.000000D+00  0.000000D+00  0.000000D+00
     12   0.000000D+00 -0.411299D+00  0.000000D+00  0.000000D+00  0.000000D+00
     13   0.000000D+00 -0.129998D+00  0.000000D+00  0.000000D+00  0.000000D+00
     14  -0.275345D+00  0.000000D+00  0.000000D+00  0.000000D+00  0.375804D+00
     15   0.000000D+00  0.000000D+00 -0.153201D+00  0.000000D+00  0.000000D+00
     16   0.000000D+00  0.000000D+00  0.000000D+00  0.446857D+00  0.000000D+00
                26            27            28            29            30 
      1  -0.113924D+03 -0.113919D+03 -0.113919D+03 -0.113898D+03 -0.113894D+03
      2   0.000000D+00  0.000000D+00  0.985329D-01  0.000000D+00  0.000000D+00
      3  -0.687138D+00  0.000000D+00  0.000000D+00  0.000000D+00  0.000000D+00
      4   0.000000D+00  0.111745D+01  0.000000D+00 -0.647414D-01 -0.673165D+00
      5   0.000000D+00  0.000000D+00 -0.350689D-01  0.000000D+00  0.000000D+00
      6   0.304657D+00  0.000000D+00  0.000000D+00  0.000000D+00  0.000000D+00
      7   0.000000D+00 -0.490178D+00  0.000000D+00  0.320601D-01  0.306467D+00
      8   0.801598D+00  0.000000D+00  0.000000D+00  0.000000D+00  0.000000D+00
      9   0.000000D+00  0.000000D+00  0.599474D-01  0.000000D+00  0.000000D+00
     10   0.000000D+00  0.000000D+00  0.000000D+00  0.000000D+00  0.000000D+00
     11   0.000000D+00 -0.291549D+00  0.000000D+00  0.315435D+00 -0.102539D+00
     12   0.000000D+00  0.473425D+00  0.000000D+00 -0.263753D+00  0.551320D-01
     13   0.000000D+00 -0.246852D+00  0.000000D+00 -0.268857D+00 -0.168457D-01
     14   0.000000D+00  0.000000D+00  0.000000D+00  0.000000D+00  0.000000D+00
     15   0.000000D+00  0.000000D+00  0.350730D+00  0.000000D+00  0.000000D+00
     16  -0.769480D+00  0.000000D+00  0.000000D+00  0.000000D+00  0.000000D+00

 Test job not archived.
 1\1\GINC-BHD0005\SP\RB3LYP TD-FC\6-311+G(d,p)\C1H2O1\BWEIGHT\17-Sep-20
 21\0\\#p B3LYP/6-311+G** #p TD=(singlets,nstates=30)IOp(6/8=3) IOp(9/4
 0=4)\\Scan Step 250, Bond Length 1.75\\0,1\C,0,0.,0.,-0.52736\H,0,0.,0
 .93726,-1.11871\H,0,0.,-0.93726,-1.11871\O,0,0.,0.,1.22264\\Version=ES
 64L-G16RevA.03\State=1-A1\HF=-114.373524\RMSD=4.029e-09\PG=C02V [C2(C1
 O1),SGV(H2)]\\@


 THE MOLECULE ALSO HAS A BODY.  WHEN THIS BODY IS HIT, THE MOLECULE
 FEELS HURT ALL OVER -- A. KITAIGORODSKI
 Job cpu time:       0 days  0 hours  0 minutes 25.9 seconds.
 Elapsed time:       0 days  0 hours  0 minutes 26.4 seconds.
 File lengths (MBytes):  RWF=     79 Int=      0 D2E=      0 Chk=     32 Scr=      1
 Normal termination of Gaussian 16 at Fri Sep 17 10:53:06 2021.
