 Entering Gaussian System, Link 0=g16
 Initial command:
 /software/gaussian/g16-c01/sse4/g16/l1.exe "/local_scratch/24665380/Gau-10903.inp" -scrdir="/local_scratch/24665380/"
 Entering Link 1 = /software/gaussian/g16-c01/sse4/g16/l1.exe PID=     10948.
  
 Copyright (c) 1988-2019, Gaussian, Inc.  All Rights Reserved.
  
 This is part of the Gaussian(R) 16 program.  It is based on
 the Gaussian(R) 09 system (copyright 2009, Gaussian, Inc.),
 the Gaussian(R) 03 system (copyright 2003, Gaussian, Inc.),
 the Gaussian(R) 98 system (copyright 1998, Gaussian, Inc.),
 the Gaussian(R) 94 system (copyright 1995, Gaussian, Inc.),
 the Gaussian 92(TM) system (copyright 1992, Gaussian, Inc.),
 the Gaussian 90(TM) system (copyright 1990, Gaussian, Inc.),
 the Gaussian 88(TM) system (copyright 1988, Gaussian, Inc.),
 the Gaussian 86(TM) system (copyright 1986, Carnegie Mellon
 University), and the Gaussian 82(TM) system (copyright 1983,
 Carnegie Mellon University). Gaussian is a federally registered
 trademark of Gaussian, Inc.
  
 This software contains proprietary and confidential information,
 including trade secrets, belonging to Gaussian, Inc.
  
 This software is provided under written license and may be
 used, copied, transmitted, or stored only in accord with that
 written license.
  
 The following legend is applicable only to US Government
 contracts under FAR:
  
                    RESTRICTED RIGHTS LEGEND
  
 Use, reproduction and disclosure by the US Government is
 subject to restrictions as set forth in subparagraphs (a)
 and (c) of the Commercial Computer Software - Restricted
 Rights clause in FAR 52.227-19.
  
 Gaussian, Inc.
 340 Quinnipiac St., Bldg. 40, Wallingford CT 06492
  
  
 ---------------------------------------------------------------
 Warning -- This program may not be used in any manner that
 competes with the business of Gaussian, Inc. or will provide
 assistance to any competitor of Gaussian, Inc.  The licensee
 of this program is prohibited from giving any competitor of
 Gaussian, Inc. access to this program.  By using this program,
 the user acknowledges that Gaussian, Inc. is engaged in the
 business of creating and licensing software in the field of
 computational chemistry and represents and warrants to the
 licensee that it is not a competitor of Gaussian, Inc. and that
 it will not use this program in any manner prohibited above.
 ---------------------------------------------------------------
  

 Cite this work as:
 Gaussian 16, Revision C.01,
 M. J. Frisch, G. W. Trucks, H. B. Schlegel, G. E. Scuseria, 
 M. A. Robb, J. R. Cheeseman, G. Scalmani, V. Barone, 
 G. A. Petersson, H. Nakatsuji, X. Li, M. Caricato, A. V. Marenich, 
 J. Bloino, B. G. Janesko, R. Gomperts, B. Mennucci, H. P. Hratchian, 
 J. V. Ortiz, A. F. Izmaylov, J. L. Sonnenberg, D. Williams-Young, 
 F. Ding, F. Lipparini, F. Egidi, J. Goings, B. Peng, A. Petrone, 
 T. Henderson, D. Ranasinghe, V. G. Zakrzewski, J. Gao, N. Rega, 
 G. Zheng, W. Liang, M. Hada, M. Ehara, K. Toyota, R. Fukuda, 
 J. Hasegawa, M. Ishida, T. Nakajima, Y. Honda, O. Kitao, H. Nakai, 
 T. Vreven, K. Throssell, J. A. Montgomery, Jr., J. E. Peralta, 
 F. Ogliaro, M. J. Bearpark, J. J. Heyd, E. N. Brothers, K. N. Kudin, 
 V. N. Staroverov, T. A. Keith, R. Kobayashi, J. Normand, 
 K. Raghavachari, A. P. Rendell, J. C. Burant, S. S. Iyengar, 
 J. Tomasi, M. Cossi, J. M. Millam, M. Klene, C. Adamo, R. Cammi, 
 J. W. Ochterski, R. L. Martin, K. Morokuma, O. Farkas, 
 J. B. Foresman, and D. J. Fox, Gaussian, Inc., Wallingford CT, 2019.
 
 ******************************************
 Gaussian 16:  ES64L-G16RevC.01  3-Jul-2019
                 2-May-2024 
 ******************************************
 %chk=geometry.chk
 %mem=1GB
 %nprocshared=12
 Will use up to   12 processors via shared memory.
 ---------------------------------------
 #P wB97XD/6-311+G* NoSymm #P Field=Z-29
 ---------------------------------------
 1/38=1,172=1/1;
 2/12=2,15=1,17=6,18=5,40=1/2;
 3/5=4,6=6,7=11,11=2,14=3,15=-29,25=1,30=1,74=-58/1,2,3;
 4//1;
 5/5=2,38=5/2;
 6/7=2,8=2,9=2,10=2,28=1/1;
 99/5=1,9=1/99;
 Leave Link    1 at Thu May  2 13:58:19 2024, MaxMem=   134217728 cpu:               1.9 elap:               1.9
 (Enter /software/gaussian/g16-c01/sse4/g16/l101.exe)
 -------
 TitleMe
 -------
 Symbolic Z-matrix:
 Charge =  1 Multiplicity = 1
 C                     0.5193    1.233    -0.0319 
 C                     1.9445    1.2692   -0.0367 
 C                     2.6204    0.0928   -0.025 
 C                    -0.196     0.0301    0.001 
 H                    -0.0207    2.1742   -0.0434 
 H                     2.4828    2.2089   -0.0361 
 H                    -1.2777    0.0399    0.0117 
 N                     4.0921    0.0959    0.0366 
 O                     4.6393   -1.0217    0.1446 
 O                     4.6649    1.1984   -0.0233 
 C                     0.4943   -1.1671    0.021 
 H                    -0.0325   -2.1149    0.0545 
 C                     1.9629   -1.2165   -0.0211 
 H                     2.4436   -1.9631    0.6151 
 Br                    2.173    -1.9491   -1.9062 
 
 ITRead=  0  0  0  0  0  0  0  0  0  0  0  0  0  0  0
 MicOpt= -1 -1 -1 -1 -1 -1 -1 -1 -1 -1 -1 -1 -1 -1 -1
 NAtoms=     15 NQM=       15 NQMF=       0 NMMI=      0 NMMIF=      0
                NMic=       0 NMicF=      0.
                    Isotopes and Nuclear Properties:
 (Nuclear quadrupole moments (NQMom) in fm**2, nuclear magnetic moments (NMagM)
  in nuclear magnetons)

  Atom         1           2           3           4           5           6           7           8           9          10
 IAtWgt=          12          12          12          12           1           1           1          14          16          16
 AtmWgt=  12.0000000  12.0000000  12.0000000  12.0000000   1.0078250   1.0078250   1.0078250  14.0030740  15.9949146  15.9949146
 NucSpn=           0           0           0           0           1           1           1           2           0           0
 AtZEff=  -0.0000000  -0.0000000  -0.0000000  -0.0000000  -0.0000000  -0.0000000  -0.0000000  -0.0000000  -0.0000000  -0.0000000
 NQMom=    0.0000000   0.0000000   0.0000000   0.0000000   0.0000000   0.0000000   0.0000000   2.0440000   0.0000000   0.0000000
 NMagM=    0.0000000   0.0000000   0.0000000   0.0000000   2.7928460   2.7928460   2.7928460   0.4037610   0.0000000   0.0000000
 AtZNuc=   6.0000000   6.0000000   6.0000000   6.0000000   1.0000000   1.0000000   1.0000000   7.0000000   8.0000000   8.0000000

  Atom        11          12          13          14          15
 IAtWgt=          12           1          12           1          79
 AtmWgt=  12.0000000   1.0078250  12.0000000   1.0078250  78.9183361
 NucSpn=           0           1           0           1           3
 AtZEff=  -0.0000000  -0.0000000  -0.0000000  -0.0000000  -0.0000000
 NQMom=    0.0000000   0.0000000   0.0000000   0.0000000  31.3000000
 NMagM=    0.0000000   2.7928460   0.0000000   2.7928460   2.1063990
 AtZNuc=   6.0000000   1.0000000   6.0000000   1.0000000  35.0000000
 Leave Link  101 at Thu May  2 13:58:21 2024, MaxMem=   134217728 cpu:               1.7 elap:               1.7
 (Enter /software/gaussian/g16-c01/sse4/g16/l202.exe)
                          Input orientation:                          
 ---------------------------------------------------------------------
 Center     Atomic      Atomic             Coordinates (Angstroms)
 Number     Number       Type             X           Y           Z
 ---------------------------------------------------------------------
      1          6           0        0.519300    1.233000   -0.031900
      2          6           0        1.944500    1.269200   -0.036700
      3          6           0        2.620400    0.092800   -0.025000
      4          6           0       -0.196000    0.030100    0.001000
      5          1           0       -0.020700    2.174200   -0.043400
      6          1           0        2.482800    2.208900   -0.036100
      7          1           0       -1.277700    0.039900    0.011700
      8          7           0        4.092100    0.095900    0.036600
      9          8           0        4.639300   -1.021700    0.144600
     10          8           0        4.664900    1.198400   -0.023300
     11          6           0        0.494300   -1.167100    0.021000
     12          1           0       -0.032500   -2.114900    0.054500
     13          6           0        1.962900   -1.216500   -0.021100
     14          1           0        2.443600   -1.963100    0.615100
     15         35           0        2.173000   -1.949100   -1.906200
 ---------------------------------------------------------------------
                    Distance matrix (angstroms):
                    1          2          3          4          5
     1  C    0.000000
     2  C    1.425668   0.000000
     3  C    2.390549   1.356796   0.000000
     4  C    1.399895   2.473566   2.817218   0.000000
     5  H    1.085168   2.163581   3.362733   2.151712   0.000000
     6  H    2.192654   1.082960   2.120598   3.453189   2.503751
     7  H    2.157452   3.449071   3.898632   1.081797   2.477564
     8  N    3.750012   2.448304   1.472992   4.288753   4.608780
     9  O    4.699917   3.541615   2.312322   4.950458   5.653735
    10  O    4.145753   2.721354   2.324292   4.999386   4.786171
    11  C    2.400813   2.835836   2.471794   1.382101   3.381369
    12  H    3.394169   3.920329   3.452266   2.151887   4.290233
    13  C    2.843264   2.485817   1.465124   2.493060   3.928360
    14  H    3.786370   3.334922   2.160489   3.364142   4.860416
    15  Br   4.046416   3.728900   2.812194   3.628609   5.028314
                    6          7          8          9         10
     6  H    0.000000
     7  H    4.341452   0.000000
     8  N    2.657047   5.370150   0.000000
     9  O    3.888434   6.012948   1.249048   0.000000
    10  O    2.404752   6.054572   1.243863   2.226587   0.000000
    11  C    3.918516   2.144043   3.813080   4.149391   4.794941
    12  H    5.003018   2.489080   4.679774   4.798846   5.748876
    13  C    3.464662   3.475788   2.501842   2.688591   3.623886
    14  H    4.222698   4.268978   2.700314   2.434893   3.916224
    15  Br   4.569706   4.420610   3.411663   3.338935   4.434144
                   11         12         13         14         15
    11  C    0.000000
    12  H    1.084880   0.000000
    13  C    1.470034   2.189625   0.000000
    14  H    2.187771   2.543302   1.092353   0.000000
    15  Br   2.672762   2.955683   2.033334   2.535818   0.000000
 Symmetry turned off by external request.
 Stoichiometry    C6H5BrNO2(1+)
 Framework group  C1[X(C6H5BrNO2)]
 Deg. of freedom    39
 Full point group                 C1      NOp   1
 Rotational constants (GHZ):           1.1632986           0.9594224           0.5957624
 Leave Link  202 at Thu May  2 13:58:23 2024, MaxMem=   134217728 cpu:               1.1 elap:               1.2
 (Enter /software/gaussian/g16-c01/sse4/g16/l301.exe)
 Standard basis: 6-311+G(d) (5D, 7F)
 Ernie: Thresh=  0.10000D-02 Tol=  0.10000D-05 Strict=F.
 The following finite field(s) will be applied:
 An electric field of              0.0000  0.0000 -0.0029
   261 basis functions,   443 primitive gaussians,   273 cartesian basis functions
    49 alpha electrons       49 beta electrons
       nuclear repulsion energy       772.8945969580 Hartrees.
 IExCor= 4639 DFT=T Ex+Corr=wB97XD ExCW=0 ScaHFX=  1.000000
 ScaDFX=  1.000000  1.000000  1.000000  1.000000 ScalE2=  1.000000  1.000000
 IRadAn=      5 IRanWt=     -1 IRanGd=            0 ICorTp=0 IEmpDi=121
 HFx  wShort=  0.000000 wLong=  0.200000 cFull=  0.222036 cShort=  0.000000 cLong=  0.777964
 DFx  wShort=  0.000000 wLong=  0.200000 cFull=  0.000000 cShort=  0.000000 cLong=  1.000000
 NAtoms=   15 NActive=   15 NUniq=   15 SFac= 1.00D+00 NAtFMM=   60 NAOKFM=F Big=F
 Integral buffers will be    131072 words long.
 Raffenetti 2 integral format.
 Two-electron integral symmetry is turned off.
 R6Disp:  Grimme-D2 Dispersion energy=       -0.0080346408 Hartrees.
 Nuclear repulsion after empirical dispersion term =      772.8865623173 Hartrees.
 Leave Link  301 at Thu May  2 13:58:24 2024, MaxMem=   134217728 cpu:               1.0 elap:               1.0
 (Enter /software/gaussian/g16-c01/sse4/g16/l302.exe)
 NPDir=0 NMtPBC=     1 NCelOv=     1 NCel=       1 NClECP=     1 NCelD=      1
         NCelK=      1 NCelE2=     1 NClLst=     1 CellRange=     0.0.
 One-electron integrals computed using PRISM.
 NBasis=   261 RedAO= T EigKep=  2.52D-06  NBF=   261
 NBsUse=   261 1.00D-06 EigRej= -1.00D+00 NBFU=   261
 Precomputing XC quadrature grid using
 IXCGrd= 4 IRadAn=           5 IRanWt=          -1 IRanGd=           0 AccXCQ= 0.00D+00.
 Generated NRdTot=       0 NPtTot=           0 NUsed=           0 NTot=          32
 NSgBfM=   273   273   273   273   273 MxSgAt=    15 MxSgA2=    15.
 Leave Link  302 at Thu May  2 13:58:46 2024, MaxMem=   134217728 cpu:              22.1 elap:              22.1
 (Enter /software/gaussian/g16-c01/sse4/g16/l303.exe)
 DipDrv:  MaxL=1.
 The nuclear repulsion energy is now       773.2452132873 hartrees.
 Leave Link  303 at Thu May  2 13:58:50 2024, MaxMem=   134217728 cpu:               3.4 elap:               3.4
 (Enter /software/gaussian/g16-c01/sse4/g16/l401.exe)
 ExpMin= 3.50D-02 ExpMax= 4.40D+05 ExpMxC= 1.51D+04 IAcc=3 IRadAn=         5 AccDes= 0.00D+00
 Harris functional with IExCor= 4639 and IRadAn=       5 diagonalized for initial guess.
 HarFok:  IExCor= 4639 AccDes= 0.00D+00 IRadAn=         5 IDoV= 1 UseB2=F ITyADJ=14
 ICtDFT=  3500011 ScaDFX=  1.000000  1.000000  1.000000  1.000000
 FoFCou: FMM=F IPFlag=           0 FMFlag=      100000 FMFlg1=           0
         NFxFlg=           0 DoJE=T BraDBF=F KetDBF=T FulRan=T
         wScrn=  0.000000 ICntrl=       500 IOpCl=  0 I1Cent=   200000004 NGrid=           0
         NMat0=    1 NMatS0=      1 NMatT0=    0 NMatD0=    1 NMtDS0=    0 NMtDT0=    0
 Symmetry not used in FoFCou.
 Harris En= -2970.60093650306    
 JPrj=0 DoOrth=F DoCkMO=F.
 Leave Link  401 at Thu May  2 13:59:21 2024, MaxMem=   134217728 cpu:              31.5 elap:              31.5
 (Enter /software/gaussian/g16-c01/sse4/g16/l502.exe)
 Two-electron integral symmetry not used.
 Closed shell SCF:
 Using DIIS extrapolation, IDIIS=  1040.
 NGot=   134217728 LenX=   134063053 LenY=   133988083
 Requested convergence on RMS density matrix=1.00D-08 within 128 cycles.
 Requested convergence on MAX density matrix=1.00D-06.
 Requested convergence on             energy=1.00D-06.
 No special actions if energy rises.
 Fock matrices will be formed incrementally for  20 cycles.

 Cycle   1  Pass 1  IDiag  1:
 FoFJK:  IHMeth= 1 ICntrl=       0 DoSepK=T KAlg= 0 I1Cent=           0 FoldK=F
 IRaf=         1 NMat=       1 IRICut=       1 DoRegI=T DoRafI=F ISym2E= 0 IDoP0=0 IntGTp=1.
 FoFCou: FMM=F IPFlag=           0 FMFlag=      100000 FMFlg1=           0
         NFxFlg=           0 DoJE=T BraDBF=F KetDBF=F FulRan=T
         wScrn=  0.000000 ICntrl=       500 IOpCl=  0 I1Cent=           0 NGrid=           0
         NMat0=    1 NMatS0=      1 NMatT0=    0 NMatD0=    1 NMtDS0=    0 NMtDT0=    0
 Symmetry not used in FoFCou.
 E= -3009.69918342403    
 DIIS: error= 2.90D-01 at cycle   1 NSaved=   1.
 NSaved= 1 IEnMin= 1 EnMin= -3009.69918342403     IErMin= 1 ErrMin= 2.90D-01
 ErrMax= 2.90D-01  0.00D+00 EMaxC= 1.00D-01 BMatC= 1.19D+01 BMatP= 1.19D+01
 IDIUse=3 WtCom= 0.00D+00 WtEn= 1.00D+00
 Coeff-Com:  0.100D+01
 Coeff-En:   0.100D+01
 Coeff:      0.100D+01
 Gap=     0.315 Goal=   None    Shift=    0.000
 GapD=    0.315 DampG=1.000 DampE=0.250 DampFc=0.2500 IDamp=-1.
 Damping current iteration by 2.50D-01
 RMSDP=4.14D-02 MaxDP=4.21D+00              OVMax= 2.61D-01

 Cycle   2  Pass 1  IDiag  1:
 RMSU=  5.59D-03    CP:  9.18D-01
 E= -3009.98996325718     Delta-E=       -0.290779833152 Rises=F Damp=T
 DIIS: error= 2.19D-01 at cycle   2 NSaved=   2.
 NSaved= 2 IEnMin= 2 EnMin= -3009.98996325718     IErMin= 2 ErrMin= 2.19D-01
 ErrMax= 2.19D-01  0.00D+00 EMaxC= 1.00D-01 BMatC= 5.46D+00 BMatP= 1.19D+01
 IDIUse=3 WtCom= 0.00D+00 WtEn= 1.00D+00
 Coeff-Com: -0.183D+01 0.283D+01
 Coeff-En:   0.000D+00 0.100D+01
 Coeff:      0.000D+00 0.100D+01
 Gap=     0.268 Goal=   None    Shift=    0.000
 RMSDP=3.34D-02 MaxDP=3.50D+00 DE=-2.91D-01 OVMax= 6.94D-02

 Cycle   3  Pass 1  IDiag  1:
 RMSU=  5.03D-03    CP:  6.26D-01  3.00D+00
 E= -3010.37670243809     Delta-E=       -0.386739180907 Rises=F Damp=F
 DIIS: error= 6.58D-02 at cycle   3 NSaved=   3.
 NSaved= 3 IEnMin= 3 EnMin= -3010.37670243809     IErMin= 3 ErrMin= 6.58D-02
 ErrMax= 6.58D-02  0.00D+00 EMaxC= 1.00D-01 BMatC= 7.32D-01 BMatP= 5.46D+00
 IDIUse=3 WtCom= 3.42D-01 WtEn= 6.58D-01
 Coeff-Com:  0.261D+01-0.342D+01 0.181D+01
 Coeff-En:   0.337D-01 0.000D+00 0.966D+00
 Coeff:      0.914D+00-0.117D+01 0.126D+01
 Gap=     0.263 Goal=   None    Shift=    0.000
 RMSDP=1.08D-02 MaxDP=6.56D-01 DE=-3.87D-01 OVMax= 7.45D-02

 Cycle   4  Pass 1  IDiag  1:
 RMSU=  6.04D-03    CP:  6.60D-01  1.95D+00  2.08D+00
 E= -3010.48474028030     Delta-E=       -0.108037842210 Rises=F Damp=F
 DIIS: error= 3.78D-02 at cycle   4 NSaved=   4.
 NSaved= 4 IEnMin= 4 EnMin= -3010.48474028030     IErMin= 4 ErrMin= 3.78D-02
 ErrMax= 3.78D-02  0.00D+00 EMaxC= 1.00D-01 BMatC= 2.24D-01 BMatP= 7.32D-01
 IDIUse=3 WtCom= 6.22D-01 WtEn= 3.78D-01
 Coeff-Com: -0.187D-03 0.141D-01 0.364D+00 0.622D+00
 Coeff-En:   0.000D+00 0.000D+00 0.192D+00 0.808D+00
 Coeff:     -0.116D-03 0.877D-02 0.299D+00 0.692D+00
 Gap=     0.255 Goal=   None    Shift=    0.000
 RMSDP=5.26D-03 MaxDP=6.29D-01 DE=-1.08D-01 OVMax= 3.09D-02

 Cycle   5  Pass 1  IDiag  1:
 RMSU=  1.61D-03    CP:  6.21D-01  2.17D+00  1.92D+00  5.96D-01
 E= -3010.52785129235     Delta-E=       -0.043111012058 Rises=F Damp=F
 DIIS: error= 6.98D-03 at cycle   5 NSaved=   5.
 NSaved= 5 IEnMin= 5 EnMin= -3010.52785129235     IErMin= 5 ErrMin= 6.98D-03
 ErrMax= 6.98D-03  0.00D+00 EMaxC= 1.00D-01 BMatC= 9.55D-03 BMatP= 2.24D-01
 IDIUse=3 WtCom= 9.30D-01 WtEn= 6.98D-02
 Coeff-Com: -0.996D-01 0.138D+00 0.121D+00 0.395D+00 0.445D+00
 Coeff-En:   0.000D+00 0.000D+00 0.000D+00 0.000D+00 0.100D+01
 Coeff:     -0.926D-01 0.129D+00 0.113D+00 0.367D+00 0.484D+00
 Gap=     0.249 Goal=   None    Shift=    0.000
 RMSDP=1.47D-03 MaxDP=1.74D-01 DE=-4.31D-02 OVMax= 2.23D-02

 Cycle   6  Pass 1  IDiag  1:
 RMSU=  5.55D-04    CP:  6.26D-01  2.19D+00  2.00D+00  7.63D-01  6.42D-01
 E= -3010.53080935415     Delta-E=       -0.002958061799 Rises=F Damp=F
 DIIS: error= 2.93D-03 at cycle   6 NSaved=   6.
 NSaved= 6 IEnMin= 6 EnMin= -3010.53080935415     IErMin= 6 ErrMin= 2.93D-03
 ErrMax= 2.93D-03  0.00D+00 EMaxC= 1.00D-01 BMatC= 7.24D-04 BMatP= 9.55D-03
 IDIUse=3 WtCom= 9.71D-01 WtEn= 2.93D-02
 Coeff-Com: -0.949D-01 0.128D+00 0.298D-02 0.164D+00 0.332D+00 0.468D+00
 Coeff-En:   0.000D+00 0.000D+00 0.000D+00 0.000D+00 0.104D+00 0.896D+00
 Coeff:     -0.921D-01 0.124D+00 0.289D-02 0.159D+00 0.325D+00 0.481D+00
 Gap=     0.245 Goal=   None    Shift=    0.000
 RMSDP=4.10D-04 MaxDP=3.44D-02 DE=-2.96D-03 OVMax= 6.88D-03

 Cycle   7  Pass 1  IDiag  1:
 RMSU=  2.15D-04    CP:  6.25D-01  2.18D+00  1.99D+00  7.31D-01  7.45D-01
                    CP:  6.66D-01
 E= -3010.53132112987     Delta-E=       -0.000511775718 Rises=F Damp=F
 DIIS: error= 3.18D-04 at cycle   7 NSaved=   7.
 NSaved= 7 IEnMin= 7 EnMin= -3010.53132112987     IErMin= 7 ErrMin= 3.18D-04
 ErrMax= 3.18D-04  0.00D+00 EMaxC= 1.00D-01 BMatC= 1.53D-05 BMatP= 7.24D-04
 IDIUse=3 WtCom= 9.97D-01 WtEn= 3.18D-03
 Coeff-Com: -0.343D-01 0.458D-01-0.118D-01 0.322D-01 0.803D-01 0.180D+00
 Coeff-Com:  0.708D+00
 Coeff-En:   0.000D+00 0.000D+00 0.000D+00 0.000D+00 0.000D+00 0.000D+00
 Coeff-En:   0.100D+01
 Coeff:     -0.342D-01 0.456D-01-0.118D-01 0.321D-01 0.801D-01 0.179D+00
 Coeff:      0.709D+00
 Gap=     0.246 Goal=   None    Shift=    0.000
 RMSDP=1.42D-04 MaxDP=1.11D-02 DE=-5.12D-04 OVMax= 1.57D-03

 Cycle   8  Pass 1  IDiag  1:
 RMSU=  6.20D-05    CP:  6.24D-01  2.17D+00  1.99D+00  7.44D-01  7.89D-01
                    CP:  7.24D-01  9.27D-01
 E= -3010.53133918200     Delta-E=       -0.000018052127 Rises=F Damp=F
 DIIS: error= 9.88D-05 at cycle   8 NSaved=   8.
 NSaved= 8 IEnMin= 8 EnMin= -3010.53133918200     IErMin= 8 ErrMin= 9.88D-05
 ErrMax= 9.88D-05  0.00D+00 EMaxC= 1.00D-01 BMatC= 2.16D-06 BMatP= 1.53D-05
 IDIUse=1 WtCom= 1.00D+00 WtEn= 0.00D+00
 Coeff-Com:  0.484D-02-0.668D-02-0.340D-02-0.134D-01-0.282D-01-0.337D-01
 Coeff-Com:  0.167D+00 0.913D+00
 Coeff:      0.484D-02-0.668D-02-0.340D-02-0.134D-01-0.282D-01-0.337D-01
 Coeff:      0.167D+00 0.913D+00
 Gap=     0.246 Goal=   None    Shift=    0.000
 RMSDP=6.58D-05 MaxDP=5.40D-03 DE=-1.81D-05 OVMax= 1.46D-03

 Cycle   9  Pass 1  IDiag  1:
 RMSU=  2.39D-05    CP:  6.25D-01  2.17D+00  2.00D+00  7.49D-01  7.99D-01
                    CP:  7.31D-01  1.07D+00  1.22D+00
 E= -3010.53134372172     Delta-E=       -0.000004539726 Rises=F Damp=F
 DIIS: error= 2.33D-05 at cycle   9 NSaved=   9.
 NSaved= 9 IEnMin= 9 EnMin= -3010.53134372172     IErMin= 9 ErrMin= 2.33D-05
 ErrMax= 2.33D-05  0.00D+00 EMaxC= 1.00D-01 BMatC= 2.53D-07 BMatP= 2.16D-06
 IDIUse=1 WtCom= 1.00D+00 WtEn= 0.00D+00
 Coeff-Com:  0.656D-02-0.881D-02 0.733D-03-0.873D-02-0.177D-01-0.314D-01
 Coeff-Com: -0.627D-01 0.253D+00 0.869D+00
 Coeff:      0.656D-02-0.881D-02 0.733D-03-0.873D-02-0.177D-01-0.314D-01
 Coeff:     -0.627D-01 0.253D+00 0.869D+00
 Gap=     0.246 Goal=   None    Shift=    0.000
 RMSDP=3.55D-05 MaxDP=3.76D-03 DE=-4.54D-06 OVMax= 8.52D-04

 Cycle  10  Pass 1  IDiag  1:
 RMSU=  9.97D-06    CP:  6.24D-01  2.17D+00  2.00D+00  7.48D-01  8.06D-01
                    CP:  7.24D-01  1.11D+00  1.49D+00  1.05D+00
 E= -3010.53134468986     Delta-E=       -0.000000968133 Rises=F Damp=F
 DIIS: error= 1.42D-05 at cycle  10 NSaved=  10.
 NSaved=10 IEnMin=10 EnMin= -3010.53134468986     IErMin=10 ErrMin= 1.42D-05
 ErrMax= 1.42D-05  0.00D+00 EMaxC= 1.00D-01 BMatC= 6.98D-08 BMatP= 2.53D-07
 IDIUse=1 WtCom= 1.00D+00 WtEn= 0.00D+00
 Coeff-Com:  0.504D-03-0.648D-03 0.481D-03-0.341D-04 0.228D-02 0.398D-02
 Coeff-Com: -0.420D-01-0.963D-01 0.198D+00 0.934D+00
 Coeff:      0.504D-03-0.648D-03 0.481D-03-0.341D-04 0.228D-02 0.398D-02
 Coeff:     -0.420D-01-0.963D-01 0.198D+00 0.934D+00
 Gap=     0.246 Goal=   None    Shift=    0.000
 RMSDP=1.51D-05 MaxDP=1.48D-03 DE=-9.68D-07 OVMax= 4.76D-04

 Cycle  11  Pass 1  IDiag  1:
 RMSU=  7.59D-06    CP:  6.24D-01  2.17D+00  2.00D+00  7.47D-01  8.08D-01
                    CP:  7.20D-01  1.10D+00  1.62D+00  1.17D+00  1.43D+00
 E= -3010.53134494540     Delta-E=       -0.000000255543 Rises=F Damp=F
 DIIS: error= 7.23D-06 at cycle  11 NSaved=  11.
 NSaved=11 IEnMin=11 EnMin= -3010.53134494540     IErMin=11 ErrMin= 7.23D-06
 ErrMax= 7.23D-06  0.00D+00 EMaxC= 1.00D-01 BMatC= 8.34D-09 BMatP= 6.98D-08
 IDIUse=1 WtCom= 1.00D+00 WtEn= 0.00D+00
 Coeff-Com: -0.427D-03 0.569D-03 0.178D-04 0.946D-03 0.188D-02 0.431D-02
 Coeff-Com:  0.189D-01-0.176D-01-0.203D+00-0.236D+00 0.143D+01
 Coeff:     -0.427D-03 0.569D-03 0.178D-04 0.946D-03 0.188D-02 0.431D-02
 Coeff:      0.189D-01-0.176D-01-0.203D+00-0.236D+00 0.143D+01
 Gap=     0.246 Goal=   None    Shift=    0.000
 RMSDP=1.53D-05 MaxDP=1.46D-03 DE=-2.56D-07 OVMax= 3.72D-04

 Cycle  12  Pass 1  IDiag  1:
 RMSU=  1.66D-06    CP:  6.24D-01  2.17D+00  1.99D+00  7.47D-01  8.09D-01
                    CP:  7.14D-01  1.10D+00  1.72D+00  1.19D+00  1.90D+00
                    CP:  1.76D+00
 E= -3010.53134502607     Delta-E=       -0.000000080668 Rises=F Damp=F
 DIIS: error= 2.89D-06 at cycle  12 NSaved=  12.
 NSaved=12 IEnMin=12 EnMin= -3010.53134502607     IErMin=12 ErrMin= 2.89D-06
 ErrMax= 2.89D-06  0.00D+00 EMaxC= 1.00D-01 BMatC= 1.75D-09 BMatP= 8.34D-09
 IDIUse=1 WtCom= 1.00D+00 WtEn= 0.00D+00
 Coeff-Com: -0.178D-03 0.235D-03-0.390D-04 0.312D-03 0.150D-03 0.566D-03
 Coeff-Com:  0.119D-01 0.671D-02-0.921D-01-0.212D+00 0.516D+00 0.769D+00
 Coeff:     -0.178D-03 0.235D-03-0.390D-04 0.312D-03 0.150D-03 0.566D-03
 Coeff:      0.119D-01 0.671D-02-0.921D-01-0.212D+00 0.516D+00 0.769D+00
 Gap=     0.246 Goal=   None    Shift=    0.000
 RMSDP=2.02D-06 MaxDP=1.53D-04 DE=-8.07D-08 OVMax= 9.01D-05

 Cycle  13  Pass 1  IDiag  1:
 RMSU=  8.74D-07    CP:  6.24D-01  2.17D+00  1.99D+00  7.47D-01  8.09D-01
                    CP:  7.13D-01  1.10D+00  1.73D+00  1.20D+00  1.96D+00
                    CP:  1.89D+00  1.21D+00
 E= -3010.53134503348     Delta-E=       -0.000000007410 Rises=F Damp=F
 DIIS: error= 1.70D-06 at cycle  13 NSaved=  13.
 NSaved=13 IEnMin=13 EnMin= -3010.53134503348     IErMin=13 ErrMin= 1.70D-06
 ErrMax= 1.70D-06  0.00D+00 EMaxC= 1.00D-01 BMatC= 3.26D-10 BMatP= 1.75D-09
 IDIUse=1 WtCom= 1.00D+00 WtEn= 0.00D+00
 Coeff-Com:  0.181D-04-0.238D-04-0.224D-04-0.147D-03-0.456D-03-0.106D-02
 Coeff-Com: -0.359D-02 0.306D-02 0.444D-01 0.331D-01-0.300D+00 0.121D+00
 Coeff-Com:  0.110D+01
 Coeff:      0.181D-04-0.238D-04-0.224D-04-0.147D-03-0.456D-03-0.106D-02
 Coeff:     -0.359D-02 0.306D-02 0.444D-01 0.331D-01-0.300D+00 0.121D+00
 Coeff:      0.110D+01
 Gap=     0.246 Goal=   None    Shift=    0.000
 RMSDP=9.21D-07 MaxDP=4.87D-05 DE=-7.41D-09 OVMax= 4.75D-05

 Cycle  14  Pass 1  IDiag  1:
 RMSU=  3.28D-07    CP:  6.24D-01  2.17D+00  1.99D+00  7.47D-01  8.09D-01
                    CP:  7.13D-01  1.10D+00  1.73D+00  1.19D+00  1.98D+00
                    CP:  1.93D+00  1.46D+00  1.56D+00
 E= -3010.53134503521     Delta-E=       -0.000000001735 Rises=F Damp=F
 DIIS: error= 5.25D-07 at cycle  14 NSaved=  14.
 NSaved=14 IEnMin=14 EnMin= -3010.53134503521     IErMin=14 ErrMin= 5.25D-07
 ErrMax= 5.25D-07  0.00D+00 EMaxC= 1.00D-01 BMatC= 4.14D-11 BMatP= 3.26D-10
 IDIUse=1 WtCom= 1.00D+00 WtEn= 0.00D+00
 Coeff-Com:  0.690D-05-0.884D-05-0.673D-05-0.542D-04-0.858D-04-0.243D-03
 Coeff-Com: -0.190D-02-0.294D-04 0.205D-01 0.291D-01-0.132D+00-0.511D-01
 Coeff-Com:  0.293D+00 0.843D+00
 Coeff:      0.690D-05-0.884D-05-0.673D-05-0.542D-04-0.858D-04-0.243D-03
 Coeff:     -0.190D-02-0.294D-04 0.205D-01 0.291D-01-0.132D+00-0.511D-01
 Coeff:      0.293D+00 0.843D+00
 Gap=     0.246 Goal=   None    Shift=    0.000
 RMSDP=2.88D-07 MaxDP=2.27D-05 DE=-1.74D-09 OVMax= 1.15D-05

 Cycle  15  Pass 1  IDiag  1:
 RMSU=  1.28D-07    CP:  6.24D-01  2.17D+00  1.99D+00  7.47D-01  8.08D-01
                    CP:  7.13D-01  1.10D+00  1.73D+00  1.19D+00  1.98D+00
                    CP:  1.94D+00  1.51D+00  1.72D+00  1.21D+00
 E= -3010.53134503545     Delta-E=       -0.000000000237 Rises=F Damp=F
 DIIS: error= 2.46D-07 at cycle  15 NSaved=  15.
 NSaved=15 IEnMin=15 EnMin= -3010.53134503545     IErMin=15 ErrMin= 2.46D-07
 ErrMax= 2.46D-07  0.00D+00 EMaxC= 1.00D-01 BMatC= 1.31D-11 BMatP= 4.14D-11
 IDIUse=1 WtCom= 1.00D+00 WtEn= 0.00D+00
 Coeff-Com:  0.605D-05-0.803D-05 0.354D-05 0.310D-05 0.603D-04 0.119D-03
 Coeff-Com: -0.549D-04-0.644D-03-0.807D-03 0.582D-02 0.817D-02-0.534D-01
 Coeff-Com: -0.125D+00 0.366D+00 0.799D+00
 Coeff:      0.605D-05-0.803D-05 0.354D-05 0.310D-05 0.603D-04 0.119D-03
 Coeff:     -0.549D-04-0.644D-03-0.807D-03 0.582D-02 0.817D-02-0.534D-01
 Coeff:     -0.125D+00 0.366D+00 0.799D+00
 Gap=     0.246 Goal=   None    Shift=    0.000
 RMSDP=1.58D-07 MaxDP=1.11D-05 DE=-2.37D-10 OVMax= 5.48D-06

 Cycle  16  Pass 1  IDiag  1:
 RMSU=  4.99D-08    CP:  6.24D-01  2.17D+00  1.99D+00  7.47D-01  8.08D-01
                    CP:  7.13D-01  1.10D+00  1.73D+00  1.19D+00  1.98D+00
                    CP:  1.93D+00  1.53D+00  1.76D+00  1.37D+00  1.40D+00
 E= -3010.53134503550     Delta-E=       -0.000000000050 Rises=F Damp=F
 DIIS: error= 7.34D-08 at cycle  16 NSaved=  16.
 NSaved=16 IEnMin=16 EnMin= -3010.53134503550     IErMin=16 ErrMin= 7.34D-08
 ErrMax= 7.34D-08  0.00D+00 EMaxC= 1.00D-01 BMatC= 1.16D-12 BMatP= 1.31D-11
 IDIUse=1 WtCom= 1.00D+00 WtEn= 0.00D+00
 Coeff-Com: -0.321D-06 0.405D-06 0.158D-05 0.914D-05 0.282D-04 0.588D-04
 Coeff-Com:  0.219D-03-0.211D-03-0.297D-02-0.183D-02 0.186D-01-0.620D-02
 Coeff-Com: -0.602D-01-0.474D-01 0.182D+00 0.918D+00
 Coeff:     -0.321D-06 0.405D-06 0.158D-05 0.914D-05 0.282D-04 0.588D-04
 Coeff:      0.219D-03-0.211D-03-0.297D-02-0.183D-02 0.186D-01-0.620D-02
 Coeff:     -0.602D-01-0.474D-01 0.182D+00 0.918D+00
 Gap=     0.246 Goal=   None    Shift=    0.000
 RMSDP=5.44D-08 MaxDP=3.57D-06 DE=-5.00D-11 OVMax= 1.58D-06

 Cycle  17  Pass 1  IDiag  1:
 RMSU=  2.50D-08    CP:  6.24D-01  2.17D+00  1.99D+00  7.47D-01  8.08D-01
                    CP:  7.13D-01  1.10D+00  1.73D+00  1.19D+00  1.98D+00
                    CP:  1.93D+00  1.53D+00  1.77D+00  1.42D+00  1.64D+00
                    CP:  1.13D+00
 E= -3010.53134503545     Delta-E=        0.000000000047 Rises=F Damp=F
 DIIS: error= 2.70D-08 at cycle  17 NSaved=  17.
 NSaved=17 IEnMin=16 EnMin= -3010.53134503550     IErMin=17 ErrMin= 2.70D-08
 ErrMax= 2.70D-08  0.00D+00 EMaxC= 1.00D-01 BMatC= 1.96D-13 BMatP= 1.16D-12
 IDIUse=1 WtCom= 1.00D+00 WtEn= 0.00D+00
 Coeff-Com: -0.156D-05 0.208D-05-0.188D-06 0.255D-05 0.124D-05 0.563D-07
 Coeff-Com:  0.522D-04 0.708D-04-0.608D-03-0.949D-03 0.357D-02 0.486D-02
 Coeff-Com:  0.297D-02-0.687D-01-0.564D-01 0.218D+00 0.897D+00
 Coeff:     -0.156D-05 0.208D-05-0.188D-06 0.255D-05 0.124D-05 0.563D-07
 Coeff:      0.522D-04 0.708D-04-0.608D-03-0.949D-03 0.357D-02 0.486D-02
 Coeff:      0.297D-02-0.687D-01-0.564D-01 0.218D+00 0.897D+00
 Gap=     0.246 Goal=   None    Shift=    0.000
 RMSDP=4.41D-08 MaxDP=3.93D-06 DE= 4.68D-11 OVMax= 5.59D-07

 Cycle  18  Pass 1  IDiag  1:
 RMSU=  6.89D-09    CP:  6.24D-01  2.17D+00  1.99D+00  7.47D-01  8.08D-01
                    CP:  7.13D-01  1.10D+00  1.73D+00  1.19D+00  1.98D+00
                    CP:  1.93D+00  1.53D+00  1.76D+00  1.41D+00  1.76D+00
                    CP:  1.32D+00  1.10D+00
 E= -3010.53134503549     Delta-E=       -0.000000000041 Rises=F Damp=F
 DIIS: error= 1.35D-08 at cycle  18 NSaved=  18.
 NSaved=18 IEnMin=16 EnMin= -3010.53134503550     IErMin=18 ErrMin= 1.35D-08
 ErrMax= 1.35D-08  0.00D+00 EMaxC= 1.00D-01 BMatC= 4.44D-14 BMatP= 1.96D-13
 IDIUse=1 WtCom= 1.00D+00 WtEn= 0.00D+00
 Coeff-Com: -0.281D-06 0.376D-06-0.323D-06-0.106D-05-0.596D-05-0.141D-04
 Coeff-Com: -0.244D-04 0.858D-04 0.264D-03-0.163D-03-0.224D-02 0.300D-02
 Coeff-Com:  0.138D-01-0.192D-01-0.506D-01-0.875D-01 0.349D+00 0.794D+00
 Coeff:     -0.281D-06 0.376D-06-0.323D-06-0.106D-05-0.596D-05-0.141D-04
 Coeff:     -0.244D-04 0.858D-04 0.264D-03-0.163D-03-0.224D-02 0.300D-02
 Coeff:      0.138D-01-0.192D-01-0.506D-01-0.875D-01 0.349D+00 0.794D+00
 Gap=     0.246 Goal=   None    Shift=    0.000
 RMSDP=2.70D-08 MaxDP=2.71D-06 DE=-4.14D-11 OVMax= 2.22D-07

 Cycle  19  Pass 1  IDiag  1:
 RMSU=  2.43D-09    CP:  6.24D-01  2.17D+00  1.99D+00  7.47D-01  8.08D-01
                    CP:  7.13D-01  1.10D+00  1.73D+00  1.19D+00  1.98D+00
                    CP:  1.93D+00  1.53D+00  1.76D+00  1.40D+00  1.79D+00
                    CP:  1.36D+00  1.28D+00  1.14D+00
 E= -3010.53134503550     Delta-E=       -0.000000000003 Rises=F Damp=F
 DIIS: error= 7.88D-09 at cycle  19 NSaved=  19.
 NSaved=19 IEnMin=16 EnMin= -3010.53134503550     IErMin=19 ErrMin= 7.88D-09
 ErrMax= 7.88D-09  0.00D+00 EMaxC= 1.00D-01 BMatC= 4.64D-15 BMatP= 4.44D-14
 IDIUse=1 WtCom= 1.00D+00 WtEn= 0.00D+00
 Large coefficients: NSaved= 19 BigCof=    0.00 CofMax=   10.00 Det=-8.23D-15
 Inversion failed.  Reducing to 18 matrices.
 Large coefficients: NSaved= 18 BigCof=    0.00 CofMax=   10.00 Det=-8.26D-15
 Inversion failed.  Reducing to 17 matrices.
 Coeff-Com: -0.463D-07-0.202D-06-0.379D-06-0.120D-05-0.754D-05 0.200D-05
 Coeff-Com:  0.886D-04 0.111D-03-0.521D-03-0.272D-03 0.131D-02 0.460D-02
 Coeff-Com:  0.152D-02-0.397D-01-0.728D-01 0.969D-01 0.101D+01
 Coeff:     -0.463D-07-0.202D-06-0.379D-06-0.120D-05-0.754D-05 0.200D-05
 Coeff:      0.886D-04 0.111D-03-0.521D-03-0.272D-03 0.131D-02 0.460D-02
 Coeff:      0.152D-02-0.397D-01-0.728D-01 0.969D-01 0.101D+01
 Gap=     0.246 Goal=   None    Shift=    0.000
 RMSDP=4.70D-09 MaxDP=4.13D-07 DE=-2.73D-12 OVMax= 1.57D-07

 SCF Done:  E(RwB97XD) =  -3010.53134504     A.U. after   19 cycles
            NFock= 19  Conv=0.47D-08     -V/T= 2.0016
 KE= 3.005854763328D+03 PE=-8.699970344002D+03 EE= 1.910339022352D+03
 Leave Link  502 at Thu May  2 14:19:11 2024, MaxMem=   134217728 cpu:            1189.1 elap:            1189.5
 (Enter /software/gaussian/g16-c01/sse4/g16/l601.exe)
 Copying SCF densities to generalized density rwf, IOpCl= 0 IROHF=0.

 **********************************************************************

            Population analysis using the SCF Density.

 **********************************************************************

 Alpha  occ. eigenvalues -- -483.31509 -62.86537 -56.66224 -56.65664 -56.65654
 Alpha  occ. eigenvalues --  -19.46250 -19.46230 -14.85677 -10.59292 -10.58191
 Alpha  occ. eigenvalues --  -10.57374 -10.57067 -10.53448 -10.52803  -9.02347
 Alpha  occ. eigenvalues --   -6.85009  -6.83167  -6.83138  -2.94917  -2.94431
 Alpha  occ. eigenvalues --   -2.94408  -2.92934  -2.92933  -1.49933  -1.32890
 Alpha  occ. eigenvalues --   -1.22526  -1.12975  -1.12548  -1.05002  -1.00408
 Alpha  occ. eigenvalues --   -0.95435  -0.90643  -0.84985  -0.80950  -0.80201
 Alpha  occ. eigenvalues --   -0.80094  -0.77971  -0.76226  -0.75655  -0.72128
 Alpha  occ. eigenvalues --   -0.68606  -0.67643  -0.63517  -0.60008  -0.57430
 Alpha  occ. eigenvalues --   -0.56901  -0.56509  -0.55948  -0.54828
 Alpha virt. eigenvalues --   -0.30215  -0.20423  -0.15896  -0.13112  -0.08673
 Alpha virt. eigenvalues --   -0.06114  -0.05741  -0.05410  -0.03906  -0.03194
 Alpha virt. eigenvalues --   -0.02656  -0.02023  -0.01732  -0.00804  -0.00044
 Alpha virt. eigenvalues --    0.00884   0.01300   0.01524   0.02248   0.03391
 Alpha virt. eigenvalues --    0.04337   0.05368   0.05785   0.06141   0.06764
 Alpha virt. eigenvalues --    0.07439   0.07755   0.07997   0.09410   0.09491
 Alpha virt. eigenvalues --    0.10142   0.10783   0.11720   0.11780   0.12614
 Alpha virt. eigenvalues --    0.13027   0.13368   0.13538   0.14686   0.15768
 Alpha virt. eigenvalues --    0.16598   0.17180   0.17659   0.18771   0.19133
 Alpha virt. eigenvalues --    0.20171   0.20750   0.21466   0.22459   0.24009
 Alpha virt. eigenvalues --    0.24553   0.26720   0.27859   0.29239   0.31444
 Alpha virt. eigenvalues --    0.32381   0.33267   0.33585   0.34389   0.36511
 Alpha virt. eigenvalues --    0.37200   0.37674   0.39540   0.40618   0.41809
 Alpha virt. eigenvalues --    0.43344   0.44165   0.45377   0.46930   0.47414
 Alpha virt. eigenvalues --    0.48558   0.50405   0.50786   0.52111   0.53594
 Alpha virt. eigenvalues --    0.55075   0.55973   0.58083   0.58194   0.60192
 Alpha virt. eigenvalues --    0.61111   0.62275   0.64419   0.67391   0.68186
 Alpha virt. eigenvalues --    0.71350   0.71604   0.72866   0.74391   0.74622
 Alpha virt. eigenvalues --    0.74799   0.77354   0.79670   0.83039   0.85563
 Alpha virt. eigenvalues --    0.87005   0.87628   0.91505   0.94148   0.98756
 Alpha virt. eigenvalues --    1.00376   1.02520   1.03888   1.05649   1.06958
 Alpha virt. eigenvalues --    1.08796   1.12629   1.13375   1.14069   1.17905
 Alpha virt. eigenvalues --    1.21049   1.22877   1.28130   1.33471   1.36325
 Alpha virt. eigenvalues --    1.36946   1.39020   1.43149   1.54928   1.56730
 Alpha virt. eigenvalues --    1.57340   1.59890   1.61257   1.63985   1.65796
 Alpha virt. eigenvalues --    1.68151   1.71473   1.74007   1.75311   1.79495
 Alpha virt. eigenvalues --    1.83991   1.85397   1.87315   1.94580   1.96029
 Alpha virt. eigenvalues --    1.97877   2.02439   2.02990   2.07257   2.08887
 Alpha virt. eigenvalues --    2.12827   2.14659   2.22377   2.23726   2.27445
 Alpha virt. eigenvalues --    2.33571   2.39940   2.41575   2.44413   2.53313
 Alpha virt. eigenvalues --    2.58135   2.63212   2.66005   2.68791   2.71710
 Alpha virt. eigenvalues --    2.73712   2.76389   2.77476   2.80640   2.82069
 Alpha virt. eigenvalues --    2.93242   2.98172   3.01423   3.05848   3.09023
 Alpha virt. eigenvalues --    3.14901   3.16407   3.17614   3.22513   3.26577
 Alpha virt. eigenvalues --    3.27848   3.37963   3.46656   3.50197   3.54714
 Alpha virt. eigenvalues --    3.57625   3.68890   3.74217   3.83696   3.87397
 Alpha virt. eigenvalues --    4.09689   4.10539   4.19148   4.23263   4.43017
 Alpha virt. eigenvalues --    4.45192   4.54681   4.59852   4.93552   4.96385
 Alpha virt. eigenvalues --    5.05245   5.09723   5.61997   6.15149   6.67721
 Alpha virt. eigenvalues --    7.48549   7.50880   7.61005  23.22197  23.61341
 Alpha virt. eigenvalues --   23.71850  23.78042  23.95733  24.02167  35.31487
 Alpha virt. eigenvalues --   47.93813  49.85220  49.93883 289.81458 289.83798
 Alpha virt. eigenvalues --  289.964231020.95001
          Condensed to atoms (all electrons):
               1          2          3          4          5          6
     1  C    7.849464  -2.624007   0.872823  -0.079825   0.298688   0.056680
     2  C   -2.624007  17.124738  -4.285429   0.461361  -0.017849   0.189457
     3  C    0.872823  -4.285429  18.657463  -1.347668   0.027711   0.119876
     4  C   -0.079825   0.461361  -1.347668   6.414236   0.019774  -0.015781
     5  H    0.298688  -0.017849   0.027711   0.019774   0.330807  -0.001645
     6  H    0.056680   0.189457   0.119876  -0.015781  -0.001645   0.311560
     7  H    0.026764  -0.026419   0.022555   0.306103  -0.002788  -0.000004
     8  N   -0.098167   0.071792  -1.658754   0.018887  -0.000504  -0.029839
     9  O   -0.023188   0.227462  -0.142672  -0.015249  -0.000034  -0.002451
    10  O    0.273986  -0.214759  -0.216417  -0.024227   0.000014   0.021359
    11  C    0.762614  -0.728930   2.327447  -0.286661  -0.024198   0.008956
    12  H   -0.010532   0.016248   0.010228   0.015193   0.000013  -0.000017
    13  C   -1.201973  -4.189414  -8.108004   0.853976   0.024121  -0.008533
    14  H   -0.004712   0.011613   0.019003   0.005061  -0.000028   0.000035
    15  Br   0.003309  -0.188045  -0.218596   0.009926  -0.000103  -0.000539
               7          8          9         10         11         12
     1  C    0.026764  -0.098167  -0.023188   0.273986   0.762614  -0.010532
     2  C   -0.026419   0.071792   0.227462  -0.214759  -0.728930   0.016248
     3  C    0.022555  -1.658754  -0.142672  -0.216417   2.327447   0.010228
     4  C    0.306103   0.018887  -0.015249  -0.024227  -0.286661   0.015193
     5  H   -0.002788  -0.000504  -0.000034   0.000014  -0.024198   0.000013
     6  H   -0.000004  -0.029839  -0.002451   0.021359   0.008956  -0.000017
     7  H    0.337421  -0.000004   0.000006  -0.000001   0.031979  -0.002321
     8  N   -0.000004   7.617633   0.075672   0.182858  -0.309126   0.000431
     9  O    0.000006   0.075672   7.874728   0.006468   0.260914   0.000099
    10  O   -0.000001   0.182858   0.006468   7.822692   0.009535  -0.000019
    11  C    0.031979  -0.309126   0.260914   0.009535   7.935950   0.316890
    12  H   -0.002321   0.000431   0.000099  -0.000019   0.316890   0.320250
    13  C   -0.024404   1.233319  -0.306678   0.066951  -4.176730  -0.018283
    14  H   -0.000027  -0.027321   0.010785  -0.001759   0.008920  -0.004313
    15  Br  -0.000451   0.157300  -0.054476   0.003086   0.057192  -0.001570
              13         14         15
     1  C   -1.201973  -0.004712   0.003309
     2  C   -4.189414   0.011613  -0.188045
     3  C   -8.108004   0.019003  -0.218596
     4  C    0.853976   0.005061   0.009926
     5  H    0.024121  -0.000028  -0.000103
     6  H   -0.008533   0.000035  -0.000539
     7  H   -0.024404  -0.000027  -0.000451
     8  N    1.233319  -0.027321   0.157300
     9  O   -0.306678   0.010785  -0.054476
    10  O    0.066951  -0.001759   0.003086
    11  C   -4.176730   0.008920   0.057192
    12  H   -0.018283  -0.004313  -0.001570
    13  C   21.533954   0.289484   0.379284
    14  H    0.289484   0.310588  -0.037914
    15  Br   0.379284  -0.037914  34.736813
 Mulliken charges:
               1
     1  C   -0.101925
     2  C    0.172180
     3  C   -0.079565
     4  C   -0.335107
     5  H    0.346021
     6  H    0.350885
     7  H    0.331591
     8  N   -0.234175
     9  O    0.088615
    10  O    0.070233
    11  C   -0.194753
    12  H    0.357703
    13  C   -0.347070
    14  H    0.420584
    15  Br   0.154784
 Sum of Mulliken charges =   1.00000
 Mulliken charges with hydrogens summed into heavy atoms:
               1
     1  C    0.244095
     2  C    0.523064
     3  C   -0.079565
     4  C   -0.003515
     8  N   -0.234175
     9  O    0.088615
    10  O    0.070233
    11  C    0.162949
    13  C    0.073514
    15  Br   0.154784
 Electronic spatial extent (au):  <R**2>=           3946.7553
 Charge=              1.0000 electrons
 Dipole moment (field-independent basis, Debye):
    X=              2.7409    Y=             -0.7900    Z=             -0.2308  Tot=              2.8618
 Quadrupole moment (field-independent basis, Debye-Ang):
   XX=            -67.8425   YY=            -51.3246   ZZ=            -62.8376
   XY=             -2.7387   XZ=             -1.4888   YZ=              1.9499
 Traceless Quadrupole moment (field-independent basis, Debye-Ang):
   XX=             -7.1743   YY=              9.3436   ZZ=             -2.1693
   XY=             -2.7387   XZ=             -1.4888   YZ=              1.9499
 Octapole moment (field-independent basis, Debye-Ang**2):
  XXX=           -512.7344  YYY=             92.9397  ZZZ=             85.6017  XYY=           -137.0387
  XXY=             24.8821  XXZ=             28.7677  XZZ=           -133.9822  YZZ=             18.5151
  YYZ=             27.3430  XYZ=              6.8542
 Hexadecapole moment (field-independent basis, Debye-Ang**3):
 XXXX=          -3445.8206 YYYY=           -703.9528 ZZZZ=           -401.9034 XXXY=            180.1428
 XXXZ=            194.9819 YYYX=            187.0338 YYYZ=           -175.1496 ZZZX=            173.1482
 ZZZY=           -148.6126 XXYY=           -625.1052 XXZZ=           -529.7224 YYZZ=           -174.6427
 XXYZ=            -44.0042 YYXZ=             52.9936 ZZXY=             31.8958
 N-N= 7.732452132873D+02 E-N=-8.699970343643D+03  KE= 3.005854763328D+03
 No NMR shielding tensors so no spin-rotation constants.
 Leave Link  601 at Thu May  2 14:19:18 2024, MaxMem=   134217728 cpu:               7.4 elap:               7.4
 (Enter /software/gaussian/g16-c01/sse4/g16/l9999.exe)
 Unable to Open any file for archive entry.
 1\1\GINC-BHX0017\SP\RwB97XD\6-311+G(d)\C6H5Br1N1O2(1+)\BWEIGHT\02-May-
 2024\0\\#P wB97XD/6-311+G* NoSymm #P Field=Z-29\\TitleMe\\1,1\C,0,0.51
 93,1.233,-0.0319\C,0,1.9445,1.2692,-0.0367\C,0,2.6204,0.0928,-0.025\C,
 0,-0.196,0.0301,0.001\H,0,-0.0207,2.1742,-0.0434\H,0,2.4828,2.2089,-0.
 0361\H,0,-1.2777,0.0399,0.0117\N,0,4.0921,0.0959,0.0366\O,0,4.6393,-1.
 0217,0.1446\O,0,4.6649,1.1984,-0.0233\C,0,0.4943,-1.1671,0.021\H,0,-0.
 0325,-2.1149,0.0545\C,0,1.9629,-1.2165,-0.0211\H,0,2.4436,-1.9631,0.61
 51\Br,0,2.173,-1.9491,-1.9062\\Version=ES64L-G16RevC.01\HF=-3010.53134
 5\RMSD=4.702e-09\Dipole=-3.2508527,0.9172999,1.1584012\Quadrupole=-5.3
 338946,6.9467459,-1.6128513,-2.0361498,-1.1068584,1.449667\PG=C01 [X(C
 6H5Br1N1O2)]\\@
 The archive entry for this job was punched.


 NO MATTER HOW THIN YOU SLICE IT, IT'S STILL BALONEY

                                   -- ALFRED E. SMITH
 Job cpu time:       0 days  0 hours 21 minutes  0.0 seconds.
 Elapsed time:       0 days  0 hours 21 minutes  0.5 seconds.
 File lengths (MBytes):  RWF=     40 Int=      0 D2E=      0 Chk=     32 Scr=      1
 Normal termination of Gaussian 16 at Thu May  2 14:19:19 2024.
