 Entering Gaussian System, Link 0=g16
 Initial command:
 /software/gaussian/g16-c01/sse4/g16/l1.exe "/local_scratch/24657438/Gau-28428.inp" -scrdir="/local_scratch/24657438/"
 Entering Link 1 = /software/gaussian/g16-c01/sse4/g16/l1.exe PID=     28435.
  
 Copyright (c) 1988-2019, Gaussian, Inc.  All Rights Reserved.
  
 This is part of the Gaussian(R) 16 program.  It is based on
 the Gaussian(R) 09 system (copyright 2009, Gaussian, Inc.),
 the Gaussian(R) 03 system (copyright 2003, Gaussian, Inc.),
 the Gaussian(R) 98 system (copyright 1998, Gaussian, Inc.),
 the Gaussian(R) 94 system (copyright 1995, Gaussian, Inc.),
 the Gaussian 92(TM) system (copyright 1992, Gaussian, Inc.),
 the Gaussian 90(TM) system (copyright 1990, Gaussian, Inc.),
 the Gaussian 88(TM) system (copyright 1988, Gaussian, Inc.),
 the Gaussian 86(TM) system (copyright 1986, Carnegie Mellon
 University), and the Gaussian 82(TM) system (copyright 1983,
 Carnegie Mellon University). Gaussian is a federally registered
 trademark of Gaussian, Inc.
  
 This software contains proprietary and confidential information,
 including trade secrets, belonging to Gaussian, Inc.
  
 This software is provided under written license and may be
 used, copied, transmitted, or stored only in accord with that
 written license.
  
 The following legend is applicable only to US Government
 contracts under FAR:
  
                    RESTRICTED RIGHTS LEGEND
  
 Use, reproduction and disclosure by the US Government is
 subject to restrictions as set forth in subparagraphs (a)
 and (c) of the Commercial Computer Software - Restricted
 Rights clause in FAR 52.227-19.
  
 Gaussian, Inc.
 340 Quinnipiac St., Bldg. 40, Wallingford CT 06492
  
  
 ---------------------------------------------------------------
 Warning -- This program may not be used in any manner that
 competes with the business of Gaussian, Inc. or will provide
 assistance to any competitor of Gaussian, Inc.  The licensee
 of this program is prohibited from giving any competitor of
 Gaussian, Inc. access to this program.  By using this program,
 the user acknowledges that Gaussian, Inc. is engaged in the
 business of creating and licensing software in the field of
 computational chemistry and represents and warrants to the
 licensee that it is not a competitor of Gaussian, Inc. and that
 it will not use this program in any manner prohibited above.
 ---------------------------------------------------------------
  

 Cite this work as:
 Gaussian 16, Revision C.01,
 M. J. Frisch, G. W. Trucks, H. B. Schlegel, G. E. Scuseria, 
 M. A. Robb, J. R. Cheeseman, G. Scalmani, V. Barone, 
 G. A. Petersson, H. Nakatsuji, X. Li, M. Caricato, A. V. Marenich, 
 J. Bloino, B. G. Janesko, R. Gomperts, B. Mennucci, H. P. Hratchian, 
 J. V. Ortiz, A. F. Izmaylov, J. L. Sonnenberg, D. Williams-Young, 
 F. Ding, F. Lipparini, F. Egidi, J. Goings, B. Peng, A. Petrone, 
 T. Henderson, D. Ranasinghe, V. G. Zakrzewski, J. Gao, N. Rega, 
 G. Zheng, W. Liang, M. Hada, M. Ehara, K. Toyota, R. Fukuda, 
 J. Hasegawa, M. Ishida, T. Nakajima, Y. Honda, O. Kitao, H. Nakai, 
 T. Vreven, K. Throssell, J. A. Montgomery, Jr., J. E. Peralta, 
 F. Ogliaro, M. J. Bearpark, J. J. Heyd, E. N. Brothers, K. N. Kudin, 
 V. N. Staroverov, T. A. Keith, R. Kobayashi, J. Normand, 
 K. Raghavachari, A. P. Rendell, J. C. Burant, S. S. Iyengar, 
 J. Tomasi, M. Cossi, J. M. Millam, M. Klene, C. Adamo, R. Cammi, 
 J. W. Ochterski, R. L. Martin, K. Morokuma, O. Farkas, 
 J. B. Foresman, and D. J. Fox, Gaussian, Inc., Wallingford CT, 2019.
 
 ******************************************
 Gaussian 16:  ES64L-G16RevC.01  3-Jul-2019
                 1-May-2024 
 ******************************************
 %chk=geometry.chk
 %mem=9GB
 %nprocshared=12
 Will use up to   12 processors via shared memory.
 ---------------------------------------
 #P wB97XD/6-311+G* NoSymm #P Field=X-29
 ---------------------------------------
 1/38=1,172=1/1;
 2/12=2,15=1,17=6,18=5,40=1/2;
 3/5=4,6=6,7=11,11=2,14=1,15=-29,25=1,30=1,74=-58/1,2,3;
 4//1;
 5/5=2,38=5/2;
 6/7=2,8=2,9=2,10=2,28=1/1;
 99/5=1,9=1/99;
 Leave Link    1 at Wed May  1 14:27:44 2024, MaxMem=  1207959552 cpu:               1.5 elap:               1.5
 (Enter /software/gaussian/g16-c01/sse4/g16/l101.exe)
 -------
 TitleMe
 -------
 Symbolic Z-matrix:
 Charge =  1 Multiplicity = 1
 C                     0.0295    1.3397    0.0682 
 C                     1.4348    1.2867    0.0064 
 C                     2.1118    0.0511   -0.0054 
 C                     1.4451   -1.1372    0.0312 
 C                    -0.6879    0.1682    0.11 
 H                    -0.4713    2.2984    0.0781 
 H                     2.0273    2.1965   -0.0322 
 H                     1.9897   -2.0764    0.0232 
 H                    -1.7716    0.1804    0.1582 
 N                     3.5864    0.051    -0.0675 
 O                     4.1471   -1.0597   -0.0881 
 O                     4.145     1.1639   -0.0901 
 C                    -0.0236   -1.1458    0.0835 
 H                    -0.4367   -1.8725    0.7889 
 Br                   -0.5359   -1.8697   -1.7408 
 
 ITRead=  0  0  0  0  0  0  0  0  0  0  0  0  0  0  0
 MicOpt= -1 -1 -1 -1 -1 -1 -1 -1 -1 -1 -1 -1 -1 -1 -1
 NAtoms=     15 NQM=       15 NQMF=       0 NMMI=      0 NMMIF=      0
                NMic=       0 NMicF=      0.
                    Isotopes and Nuclear Properties:
 (Nuclear quadrupole moments (NQMom) in fm**2, nuclear magnetic moments (NMagM)
  in nuclear magnetons)

  Atom         1           2           3           4           5           6           7           8           9          10
 IAtWgt=          12          12          12          12          12           1           1           1           1          14
 AtmWgt=  12.0000000  12.0000000  12.0000000  12.0000000  12.0000000   1.0078250   1.0078250   1.0078250   1.0078250  14.0030740
 NucSpn=           0           0           0           0           0           1           1           1           1           2
 AtZEff=  -0.0000000  -0.0000000  -0.0000000  -0.0000000  -0.0000000  -0.0000000  -0.0000000  -0.0000000  -0.0000000  -0.0000000
 NQMom=    0.0000000   0.0000000   0.0000000   0.0000000   0.0000000   0.0000000   0.0000000   0.0000000   0.0000000   2.0440000
 NMagM=    0.0000000   0.0000000   0.0000000   0.0000000   0.0000000   2.7928460   2.7928460   2.7928460   2.7928460   0.4037610
 AtZNuc=   6.0000000   6.0000000   6.0000000   6.0000000   6.0000000   1.0000000   1.0000000   1.0000000   1.0000000   7.0000000

  Atom        11          12          13          14          15
 IAtWgt=          16          16          12           1          79
 AtmWgt=  15.9949146  15.9949146  12.0000000   1.0078250  78.9183361
 NucSpn=           0           0           0           1           3
 AtZEff=  -0.0000000  -0.0000000  -0.0000000  -0.0000000  -0.0000000
 NQMom=    0.0000000   0.0000000   0.0000000   0.0000000  31.3000000
 NMagM=    0.0000000   0.0000000   0.0000000   2.7928460   2.1063990
 AtZNuc=   8.0000000   8.0000000   6.0000000   1.0000000  35.0000000
 Leave Link  101 at Wed May  1 14:27:45 2024, MaxMem=  1207959552 cpu:               1.3 elap:               1.3
 (Enter /software/gaussian/g16-c01/sse4/g16/l202.exe)
                          Input orientation:                          
 ---------------------------------------------------------------------
 Center     Atomic      Atomic             Coordinates (Angstroms)
 Number     Number       Type             X           Y           Z
 ---------------------------------------------------------------------
      1          6           0        0.029500    1.339700    0.068200
      2          6           0        1.434800    1.286700    0.006400
      3          6           0        2.111800    0.051100   -0.005400
      4          6           0        1.445100   -1.137200    0.031200
      5          6           0       -0.687900    0.168200    0.110000
      6          1           0       -0.471300    2.298400    0.078100
      7          1           0        2.027300    2.196500   -0.032200
      8          1           0        1.989700   -2.076400    0.023200
      9          1           0       -1.771600    0.180400    0.158200
     10          7           0        3.586400    0.051000   -0.067500
     11          8           0        4.147100   -1.059700   -0.088100
     12          8           0        4.145000    1.163900   -0.090100
     13          6           0       -0.023600   -1.145800    0.083500
     14          1           0       -0.436700   -1.872500    0.788900
     15         35           0       -0.535900   -1.869700   -1.740800
 ---------------------------------------------------------------------
                    Distance matrix (angstroms):
                    1          2          3          4          5
     1  C    0.000000
     2  C    1.407656   0.000000
     3  C    2.449874   1.408963   0.000000
     4  C    2.853126   2.424049   1.363043   0.000000
     5  C    1.374344   2.401589   2.804523   2.501993   0.000000
     6  H    1.081667   2.159142   3.424870   3.934226   2.141421
     7  H    2.176095   1.086408   2.147231   3.384750   3.392128
     8  H    3.938800   3.408612   2.131193   1.085702   3.495040
     9  H    2.143837   3.395283   3.888995   3.478413   1.084840
    10  N    3.785591   2.482297   1.475907   2.450862   4.279589
    11  O    4.768247   3.587631   2.320164   2.705743   4.992415
    12  O    4.122294   2.714696   2.319353   3.549540   4.938459
    13  C    2.486114   2.837240   2.449573   1.469656   1.472614
    14  H    3.324903   3.754379   3.290289   2.157764   2.165286
    15  Br   3.727252   4.110867   3.702891   2.756973   2.757100
                    6          7          8          9         10
     6  H    0.000000
     7  H    2.503108   0.000000
     8  H    5.019802   4.273425   0.000000
     9  H    2.486588   4.304945   4.388479   0.000000
    10  N    4.640790   2.652397   2.661486   5.364313   0.000000
    11  O    5.712624   3.885809   2.387560   6.052233   1.244373
    12  O    4.756638   2.356750   3.893289   6.002923   1.245428
    13  C    3.473180   3.923079   2.218790   2.195425   3.806210
    14  H    4.231175   4.827242   2.552506   2.528663   4.540772
    15  Br   4.548146   5.101303   3.087568   3.055498   4.845862
                   11         12         13         14         15
    11  O    0.000000
    12  O    2.223602   0.000000
    13  C    4.175117   4.768865   0.000000
    14  H    4.737193   5.566358   1.093770   0.000000
    15  Br   5.031700   5.817075   2.028436   2.531646   0.000000
 Symmetry turned off by external request.
 Stoichiometry    C6H5BrNO2(1+)
 Framework group  C1[X(C6H5BrNO2)]
 Deg. of freedom    39
 Full point group                 C1      NOp   1
 Rotational constants (GHZ):           1.8252210           0.5518633           0.4576002
 Leave Link  202 at Wed May  1 14:27:47 2024, MaxMem=  1207959552 cpu:               1.5 elap:               1.5
 (Enter /software/gaussian/g16-c01/sse4/g16/l301.exe)
 Standard basis: 6-311+G(d) (5D, 7F)
 Ernie: Thresh=  0.10000D-02 Tol=  0.10000D-05 Strict=F.
 The following finite field(s) will be applied:
 An electric field of             -0.0029  0.0000  0.0000
   261 basis functions,   443 primitive gaussians,   273 cartesian basis functions
    49 alpha electrons       49 beta electrons
       nuclear repulsion energy       739.2122215416 Hartrees.
 IExCor= 4639 DFT=T Ex+Corr=wB97XD ExCW=0 ScaHFX=  1.000000
 ScaDFX=  1.000000  1.000000  1.000000  1.000000 ScalE2=  1.000000  1.000000
 IRadAn=      5 IRanWt=     -1 IRanGd=            0 ICorTp=0 IEmpDi=121
 HFx  wShort=  0.000000 wLong=  0.200000 cFull=  0.222036 cShort=  0.000000 cLong=  0.777964
 DFx  wShort=  0.000000 wLong=  0.200000 cFull=  0.000000 cShort=  0.000000 cLong=  1.000000
 NAtoms=   15 NActive=   15 NUniq=   15 SFac= 1.00D+00 NAtFMM=   60 NAOKFM=F Big=F
 Integral buffers will be    131072 words long.
 Raffenetti 2 integral format.
 Two-electron integral symmetry is turned off.
 R6Disp:  Grimme-D2 Dispersion energy=       -0.0077368520 Hartrees.
 Nuclear repulsion after empirical dispersion term =      739.2044846896 Hartrees.
 Leave Link  301 at Wed May  1 14:27:48 2024, MaxMem=  1207959552 cpu:               1.0 elap:               1.0
 (Enter /software/gaussian/g16-c01/sse4/g16/l302.exe)
 NPDir=0 NMtPBC=     1 NCelOv=     1 NCel=       1 NClECP=     1 NCelD=      1
         NCelK=      1 NCelE2=     1 NClLst=     1 CellRange=     0.0.
 One-electron integrals computed using PRISM.
 NBasis=   261 RedAO= T EigKep=  2.35D-06  NBF=   261
 NBsUse=   261 1.00D-06 EigRej= -1.00D+00 NBFU=   261
 Precomputing XC quadrature grid using
 IXCGrd= 4 IRadAn=           5 IRanWt=          -1 IRanGd=           0 AccXCQ= 0.00D+00.
 Generated NRdTot=       0 NPtTot=           0 NUsed=           0 NTot=          32
 NSgBfM=   273   273   273   273   273 MxSgAt=    15 MxSgA2=    15.
 Leave Link  302 at Wed May  1 14:28:09 2024, MaxMem=  1207959552 cpu:              20.6 elap:              20.6
 (Enter /software/gaussian/g16-c01/sse4/g16/l303.exe)
 DipDrv:  MaxL=1.
 The nuclear repulsion energy is now       738.6571179020 hartrees.
 Leave Link  303 at Wed May  1 14:28:12 2024, MaxMem=  1207959552 cpu:               3.3 elap:               3.3
 (Enter /software/gaussian/g16-c01/sse4/g16/l401.exe)
 ExpMin= 3.50D-02 ExpMax= 4.40D+05 ExpMxC= 1.51D+04 IAcc=3 IRadAn=         5 AccDes= 0.00D+00
 Harris functional with IExCor= 4639 and IRadAn=       5 diagonalized for initial guess.
 HarFok:  IExCor= 4639 AccDes= 0.00D+00 IRadAn=         5 IDoV= 1 UseB2=F ITyADJ=14
 ICtDFT=  3500011 ScaDFX=  1.000000  1.000000  1.000000  1.000000
 FoFCou: FMM=F IPFlag=           0 FMFlag=      100000 FMFlg1=           0
         NFxFlg=           0 DoJE=T BraDBF=F KetDBF=T FulRan=T
         wScrn=  0.000000 ICntrl=       500 IOpCl=  0 I1Cent=   200000004 NGrid=           0
         NMat0=    1 NMatS0=      1 NMatT0=    0 NMatD0=    1 NMtDS0=    0 NMtDT0=    0
 Symmetry not used in FoFCou.
 Harris En= -2970.59788530426    
 JPrj=0 DoOrth=F DoCkMO=F.
 Leave Link  401 at Wed May  1 14:28:43 2024, MaxMem=  1207959552 cpu:              30.1 elap:              30.1
 (Enter /software/gaussian/g16-c01/sse4/g16/l502.exe)
 Two-electron integral symmetry not used.
 Closed shell SCF:
 Using DIIS extrapolation, IDIIS=  1040.
 NGot=  1207959552 LenX=  1207804877 LenY=  1207729907
 Requested convergence on RMS density matrix=1.00D-08 within 128 cycles.
 Requested convergence on MAX density matrix=1.00D-06.
 Requested convergence on             energy=1.00D-06.
 No special actions if energy rises.
 Fock matrices will be formed incrementally for  20 cycles.

 Cycle   1  Pass 1  IDiag  1:
 FoFJK:  IHMeth= 1 ICntrl=       0 DoSepK=T KAlg= 0 I1Cent=           0 FoldK=F
 IRaf=         1 NMat=       1 IRICut=       1 DoRegI=T DoRafI=F ISym2E= 0 IDoP0=0 IntGTp=1.
 FoFCou: FMM=F IPFlag=           0 FMFlag=      100000 FMFlg1=           0
         NFxFlg=           0 DoJE=T BraDBF=F KetDBF=F FulRan=T
         wScrn=  0.000000 ICntrl=       500 IOpCl=  0 I1Cent=           0 NGrid=           0
         NMat0=    1 NMatS0=      1 NMatT0=    0 NMatD0=    1 NMtDS0=    0 NMtDT0=    0
 Symmetry not used in FoFCou.
 E= -3009.70956665169    
 DIIS: error= 3.20D-01 at cycle   1 NSaved=   1.
 NSaved= 1 IEnMin= 1 EnMin= -3009.70956665169     IErMin= 1 ErrMin= 3.20D-01
 ErrMax= 3.20D-01  0.00D+00 EMaxC= 1.00D-01 BMatC= 1.19D+01 BMatP= 1.19D+01
 IDIUse=3 WtCom= 0.00D+00 WtEn= 1.00D+00
 Coeff-Com:  0.100D+01
 Coeff-En:   0.100D+01
 Coeff:      0.100D+01
 Gap=     0.342 Goal=   None    Shift=    0.000
 GapD=    0.342 DampG=1.000 DampE=0.250 DampFc=0.2500 IDamp=-1.
 Damping current iteration by 2.50D-01
 RMSDP=4.06D-02 MaxDP=4.26D+00              OVMax= 2.51D-01

 Cycle   2  Pass 1  IDiag  1:
 RMSU=  3.95D-03    CP:  8.97D-01
 E= -3009.99688513084     Delta-E=       -0.287318479154 Rises=F Damp=T
 DIIS: error= 2.25D-01 at cycle   2 NSaved=   2.
 NSaved= 2 IEnMin= 2 EnMin= -3009.99688513084     IErMin= 2 ErrMin= 2.25D-01
 ErrMax= 2.25D-01  0.00D+00 EMaxC= 1.00D-01 BMatC= 5.46D+00 BMatP= 1.19D+01
 IDIUse=3 WtCom= 0.00D+00 WtEn= 1.00D+00
 Coeff-Com: -0.184D+01 0.284D+01
 Coeff-En:   0.000D+00 0.100D+01
 Coeff:      0.000D+00 0.100D+01
 Gap=     0.287 Goal=   None    Shift=    0.000
 RMSDP=3.18D-02 MaxDP=3.28D+00 DE=-2.87D-01 OVMax= 6.86D-02

 Cycle   3  Pass 1  IDiag  1:
 RMSU=  4.26D-03    CP:  5.65D-01  3.00D+00
 E= -3010.38332672782     Delta-E=       -0.386441596974 Rises=F Damp=F
 DIIS: error= 6.54D-02 at cycle   3 NSaved=   3.
 NSaved= 3 IEnMin= 3 EnMin= -3010.38332672782     IErMin= 3 ErrMin= 6.54D-02
 ErrMax= 6.54D-02  0.00D+00 EMaxC= 1.00D-01 BMatC= 7.29D-01 BMatP= 5.46D+00
 IDIUse=3 WtCom= 3.46D-01 WtEn= 6.54D-01
 Coeff-Com:  0.279D+01-0.367D+01 0.188D+01
 Coeff-En:   0.211D-01 0.000D+00 0.979D+00
 Coeff:      0.979D+00-0.127D+01 0.129D+01
 Gap=     0.263 Goal=   None    Shift=    0.000
 RMSDP=8.20D-03 MaxDP=4.49D-01 DE=-3.86D-01 OVMax= 6.36D-02

 Cycle   4  Pass 1  IDiag  1:
 RMSU=  4.96D-03    CP:  5.88D-01  2.27D+00  2.02D+00
 E= -3010.48809324187     Delta-E=       -0.104766514053 Rises=F Damp=F
 DIIS: error= 3.83D-02 at cycle   4 NSaved=   4.
 NSaved= 4 IEnMin= 4 EnMin= -3010.48809324187     IErMin= 4 ErrMin= 3.83D-02
 ErrMax= 3.83D-02  0.00D+00 EMaxC= 1.00D-01 BMatC= 2.31D-01 BMatP= 7.29D-01
 IDIUse=3 WtCom= 6.17D-01 WtEn= 3.83D-01
 Coeff-Com: -0.192D+00 0.269D+00 0.267D+00 0.656D+00
 Coeff-En:   0.000D+00 0.000D+00 0.191D+00 0.809D+00
 Coeff:     -0.119D+00 0.166D+00 0.238D+00 0.714D+00
 Gap=     0.252 Goal=   None    Shift=    0.000
 RMSDP=3.75D-03 MaxDP=3.38D-01 DE=-1.05D-01 OVMax= 2.77D-02

 Cycle   5  Pass 1  IDiag  1:
 RMSU=  1.12D-03    CP:  5.55D-01  2.69D+00  1.83D+00  8.80D-01
 E= -3010.53315792595     Delta-E=       -0.045064684084 Rises=F Damp=F
 DIIS: error= 7.01D-03 at cycle   5 NSaved=   5.
 NSaved= 5 IEnMin= 5 EnMin= -3010.53315792595     IErMin= 5 ErrMin= 7.01D-03
 ErrMax= 7.01D-03  0.00D+00 EMaxC= 1.00D-01 BMatC= 7.62D-03 BMatP= 2.31D-01
 IDIUse=3 WtCom= 9.30D-01 WtEn= 7.01D-02
 Coeff-Com: -0.142D+00 0.192D+00 0.329D-01 0.314D+00 0.603D+00
 Coeff-En:   0.000D+00 0.000D+00 0.000D+00 0.000D+00 0.100D+01
 Coeff:     -0.132D+00 0.178D+00 0.306D-01 0.292D+00 0.631D+00
 Gap=     0.249 Goal=   None    Shift=    0.000
 RMSDP=5.40D-04 MaxDP=2.79D-02 DE=-4.51D-02 OVMax= 1.04D-02

 Cycle   6  Pass 1  IDiag  1:
 RMSU=  4.64D-04    CP:  5.55D-01  2.67D+00  1.84D+00  8.72D-01  7.84D-01
 E= -3010.53474678870     Delta-E=       -0.001588862750 Rises=F Damp=F
 DIIS: error= 7.49D-04 at cycle   6 NSaved=   6.
 NSaved= 6 IEnMin= 6 EnMin= -3010.53474678870     IErMin= 6 ErrMin= 7.49D-04
 ErrMax= 7.49D-04  0.00D+00 EMaxC= 1.00D-01 BMatC= 1.01D-04 BMatP= 7.62D-03
 IDIUse=3 WtCom= 9.93D-01 WtEn= 7.49D-03
 Coeff-Com: -0.801D-01 0.107D+00-0.123D-01 0.115D+00 0.307D+00 0.563D+00
 Coeff-En:   0.000D+00 0.000D+00 0.000D+00 0.000D+00 0.000D+00 0.100D+01
 Coeff:     -0.795D-01 0.107D+00-0.122D-01 0.115D+00 0.304D+00 0.566D+00
 Gap=     0.249 Goal=   None    Shift=    0.000
 RMSDP=1.96D-04 MaxDP=1.49D-02 DE=-1.59D-03 OVMax= 5.81D-03

 Cycle   7  Pass 1  IDiag  1:
 RMSU=  1.09D-04    CP:  5.54D-01  2.65D+00  1.85D+00  8.82D-01  8.95D-01
                    CP:  9.22D-01
 E= -3010.53484020790     Delta-E=       -0.000093419197 Rises=F Damp=F
 DIIS: error= 5.85D-04 at cycle   7 NSaved=   7.
 NSaved= 7 IEnMin= 7 EnMin= -3010.53484020790     IErMin= 7 ErrMin= 5.85D-04
 ErrMax= 5.85D-04  0.00D+00 EMaxC= 1.00D-01 BMatC= 2.71D-05 BMatP= 1.01D-04
 IDIUse=3 WtCom= 9.94D-01 WtEn= 5.85D-03
 Coeff-Com: -0.324D-01 0.430D-01-0.158D-01 0.233D-01 0.897D-01 0.357D+00
 Coeff-Com:  0.535D+00
 Coeff-En:   0.000D+00 0.000D+00 0.000D+00 0.000D+00 0.000D+00 0.000D+00
 Coeff-En:   0.100D+01
 Coeff:     -0.322D-01 0.428D-01-0.157D-01 0.231D-01 0.892D-01 0.355D+00
 Coeff:      0.538D+00
 Gap=     0.248 Goal=   None    Shift=    0.000
 RMSDP=8.60D-05 MaxDP=6.39D-03 DE=-9.34D-05 OVMax= 4.17D-03

 Cycle   8  Pass 1  IDiag  1:
 RMSU=  6.13D-05    CP:  5.54D-01  2.65D+00  1.85D+00  8.86D-01  9.22D-01
                    CP:  1.00D+00  9.61D-01
 E= -3010.53487399363     Delta-E=       -0.000033785728 Rises=F Damp=F
 DIIS: error= 1.78D-04 at cycle   8 NSaved=   8.
 NSaved= 8 IEnMin= 8 EnMin= -3010.53487399363     IErMin= 8 ErrMin= 1.78D-04
 ErrMax= 1.78D-04  0.00D+00 EMaxC= 1.00D-01 BMatC= 4.06D-06 BMatP= 2.71D-05
 IDIUse=3 WtCom= 9.98D-01 WtEn= 1.78D-03
 Coeff-Com:  0.116D-01-0.157D-01-0.289D-02-0.257D-01-0.639D-01-0.527D-01
 Coeff-Com:  0.235D+00 0.914D+00
 Coeff-En:   0.000D+00 0.000D+00 0.000D+00 0.000D+00 0.000D+00 0.000D+00
 Coeff-En:   0.000D+00 0.100D+01
 Coeff:      0.116D-01-0.157D-01-0.289D-02-0.256D-01-0.638D-01-0.526D-01
 Coeff:      0.235D+00 0.914D+00
 Gap=     0.248 Goal=   None    Shift=    0.000
 RMSDP=8.03D-05 MaxDP=6.76D-03 DE=-3.38D-05 OVMax= 4.33D-03

 Cycle   9  Pass 1  IDiag  1:
 RMSU=  2.84D-05    CP:  5.55D-01  2.64D+00  1.86D+00  8.87D-01  9.39D-01
                    CP:  1.11D+00  1.28D+00  1.36D+00
 E= -3010.53488828473     Delta-E=       -0.000014291095 Rises=F Damp=F
 DIIS: error= 7.71D-05 at cycle   9 NSaved=   9.
 NSaved= 9 IEnMin= 9 EnMin= -3010.53488828473     IErMin= 9 ErrMin= 7.71D-05
 ErrMax= 7.71D-05  0.00D+00 EMaxC= 1.00D-01 BMatC= 5.03D-07 BMatP= 4.06D-06
 IDIUse=1 WtCom= 1.00D+00 WtEn= 0.00D+00
 Coeff-Com:  0.773D-02-0.103D-01 0.153D-02-0.107D-01-0.305D-01-0.789D-01
 Coeff-Com: -0.299D-01 0.271D+00 0.881D+00
 Coeff:      0.773D-02-0.103D-01 0.153D-02-0.107D-01-0.305D-01-0.789D-01
 Coeff:     -0.299D-01 0.271D+00 0.881D+00
 Gap=     0.248 Goal=   None    Shift=    0.000
 RMSDP=2.46D-05 MaxDP=1.79D-03 DE=-1.43D-05 OVMax= 1.97D-03

 Cycle  10  Pass 1  IDiag  1:
 RMSU=  1.07D-05    CP:  5.55D-01  2.64D+00  1.86D+00  8.86D-01  9.46D-01
                    CP:  1.14D+00  1.35D+00  1.51D+00  1.17D+00
 E= -3010.53489055468     Delta-E=       -0.000002269959 Rises=F Damp=F
 DIIS: error= 2.28D-05 at cycle  10 NSaved=  10.
 NSaved=10 IEnMin=10 EnMin= -3010.53489055468     IErMin=10 ErrMin= 2.28D-05
 ErrMax= 2.28D-05  0.00D+00 EMaxC= 1.00D-01 BMatC= 9.52D-08 BMatP= 5.03D-07
 IDIUse=1 WtCom= 1.00D+00 WtEn= 0.00D+00
 Coeff-Com: -0.271D-03 0.403D-03 0.540D-03 0.103D-02 0.300D-02-0.124D-01
 Coeff-Com: -0.439D-01-0.642D-01 0.250D+00 0.866D+00
 Coeff:     -0.271D-03 0.403D-03 0.540D-03 0.103D-02 0.300D-02-0.124D-01
 Coeff:     -0.439D-01-0.642D-01 0.250D+00 0.866D+00
 Gap=     0.248 Goal=   None    Shift=    0.000
 RMSDP=1.28D-05 MaxDP=8.24D-04 DE=-2.27D-06 OVMax= 6.68D-04

 Cycle  11  Pass 1  IDiag  1:
 RMSU=  6.12D-06    CP:  5.55D-01  2.64D+00  1.85D+00  8.85D-01  9.45D-01
                    CP:  1.15D+00  1.36D+00  1.55D+00  1.34D+00  1.29D+00
 E= -3010.53489083388     Delta-E=       -0.000000279200 Rises=F Damp=F
 DIIS: error= 8.31D-06 at cycle  11 NSaved=  11.
 NSaved=11 IEnMin=11 EnMin= -3010.53489083388     IErMin=11 ErrMin= 8.31D-06
 ErrMax= 8.31D-06  0.00D+00 EMaxC= 1.00D-01 BMatC= 6.01D-09 BMatP= 9.52D-08
 IDIUse=1 WtCom= 1.00D+00 WtEn= 0.00D+00
 Coeff-Com: -0.400D-03 0.534D-03 0.156D-04 0.107D-02 0.347D-02 0.934D-02
 Coeff-Com:  0.493D-02-0.332D-01-0.123D+00 0.577D-02 0.113D+01
 Coeff:     -0.400D-03 0.534D-03 0.156D-04 0.107D-02 0.347D-02 0.934D-02
 Coeff:      0.493D-02-0.332D-01-0.123D+00 0.577D-02 0.113D+01
 Gap=     0.248 Goal=   None    Shift=    0.000
 RMSDP=4.77D-06 MaxDP=2.38D-04 DE=-2.79D-07 OVMax= 2.75D-04

 Cycle  12  Pass 1  IDiag  1:
 RMSU=  1.49D-06    CP:  5.55D-01  2.64D+00  1.85D+00  8.85D-01  9.44D-01
                    CP:  1.15D+00  1.36D+00  1.55D+00  1.40D+00  1.53D+00
                    CP:  1.30D+00
 E= -3010.53489086836     Delta-E=       -0.000000034473 Rises=F Damp=F
 DIIS: error= 2.01D-06 at cycle  12 NSaved=  12.
 NSaved=12 IEnMin=12 EnMin= -3010.53489086836     IErMin=12 ErrMin= 2.01D-06
 ErrMax= 2.01D-06  0.00D+00 EMaxC= 1.00D-01 BMatC= 1.18D-09 BMatP= 6.01D-09
 IDIUse=1 WtCom= 1.00D+00 WtEn= 0.00D+00
 Coeff-Com: -0.137D-03 0.180D-03-0.221D-04 0.303D-03 0.689D-03 0.347D-02
 Coeff-Com:  0.479D-02-0.621D-02-0.585D-01-0.601D-01 0.415D+00 0.701D+00
 Coeff:     -0.137D-03 0.180D-03-0.221D-04 0.303D-03 0.689D-03 0.347D-02
 Coeff:      0.479D-02-0.621D-02-0.585D-01-0.601D-01 0.415D+00 0.701D+00
 Gap=     0.248 Goal=   None    Shift=    0.000
 RMSDP=1.15D-06 MaxDP=7.29D-05 DE=-3.45D-08 OVMax= 3.98D-05

 Cycle  13  Pass 1  IDiag  1:
 RMSU=  4.67D-07    CP:  5.55D-01  2.64D+00  1.85D+00  8.85D-01  9.44D-01
                    CP:  1.15D+00  1.36D+00  1.55D+00  1.40D+00  1.55D+00
                    CP:  1.40D+00  8.76D-01
 E= -3010.53489087059     Delta-E=       -0.000000002229 Rises=F Damp=F
 DIIS: error= 8.43D-07 at cycle  13 NSaved=  13.
 NSaved=13 IEnMin=13 EnMin= -3010.53489087059     IErMin=13 ErrMin= 8.43D-07
 ErrMax= 8.43D-07  0.00D+00 EMaxC= 1.00D-01 BMatC= 2.02D-10 BMatP= 1.18D-09
 IDIUse=1 WtCom= 1.00D+00 WtEn= 0.00D+00
 Coeff-Com: -0.492D-05 0.679D-05-0.103D-04-0.901D-04-0.568D-03-0.117D-02
 Coeff-Com:  0.581D-04 0.448D-02 0.890D-02-0.143D-01-0.104D+00 0.221D+00
 Coeff-Com:  0.886D+00
 Coeff:     -0.492D-05 0.679D-05-0.103D-04-0.901D-04-0.568D-03-0.117D-02
 Coeff:      0.581D-04 0.448D-02 0.890D-02-0.143D-01-0.104D+00 0.221D+00
 Coeff:      0.886D+00
 Gap=     0.248 Goal=   None    Shift=    0.000
 RMSDP=4.84D-07 MaxDP=2.10D-05 DE=-2.23D-09 OVMax= 1.42D-05

 Cycle  14  Pass 1  IDiag  1:
 RMSU=  2.04D-07    CP:  5.55D-01  2.64D+00  1.85D+00  8.85D-01  9.44D-01
                    CP:  1.15D+00  1.36D+00  1.55D+00  1.39D+00  1.56D+00
                    CP:  1.42D+00  1.11D+00  1.18D+00
 E= -3010.53489087109     Delta-E=       -0.000000000509 Rises=F Damp=F
 DIIS: error= 2.87D-07 at cycle  14 NSaved=  14.
 NSaved=14 IEnMin=14 EnMin= -3010.53489087109     IErMin=14 ErrMin= 2.87D-07
 ErrMax= 2.87D-07  0.00D+00 EMaxC= 1.00D-01 BMatC= 1.92D-11 BMatP= 2.02D-10
 IDIUse=1 WtCom= 1.00D+00 WtEn= 0.00D+00
 Coeff-Com:  0.931D-05-0.122D-04-0.252D-05-0.474D-04-0.163D-03-0.584D-03
 Coeff-Com: -0.394D-03 0.184D-02 0.795D-02 0.350D-02-0.759D-01-0.784D-04
 Coeff-Com:  0.127D+00 0.937D+00
 Coeff:      0.931D-05-0.122D-04-0.252D-05-0.474D-04-0.163D-03-0.584D-03
 Coeff:     -0.394D-03 0.184D-02 0.795D-02 0.350D-02-0.759D-01-0.784D-04
 Coeff:      0.127D+00 0.937D+00
 Gap=     0.248 Goal=   None    Shift=    0.000
 RMSDP=1.47D-07 MaxDP=6.04D-06 DE=-5.09D-10 OVMax= 9.51D-06

 Cycle  15  Pass 1  IDiag  1:
 RMSU=  7.04D-08    CP:  5.55D-01  2.64D+00  1.85D+00  8.85D-01  9.44D-01
                    CP:  1.15D+00  1.36D+00  1.54D+00  1.39D+00  1.56D+00
                    CP:  1.43D+00  1.17D+00  1.26D+00  1.31D+00
 E= -3010.53489087119     Delta-E=       -0.000000000094 Rises=F Damp=F
 DIIS: error= 1.08D-07 at cycle  15 NSaved=  15.
 NSaved=15 IEnMin=15 EnMin= -3010.53489087119     IErMin=15 ErrMin= 1.08D-07
 ErrMax= 1.08D-07  0.00D+00 EMaxC= 1.00D-01 BMatC= 7.87D-12 BMatP= 1.92D-11
 IDIUse=1 WtCom= 1.00D+00 WtEn= 0.00D+00
 Coeff-Com:  0.810D-05-0.109D-04 0.192D-05 0.250D-05 0.770D-04 0.751D-04
 Coeff-Com: -0.129D-03-0.426D-03 0.132D-03 0.474D-02-0.126D-02-0.265D-01
 Coeff-Com: -0.193D+00 0.338D+00 0.879D+00
 Coeff:      0.810D-05-0.109D-04 0.192D-05 0.250D-05 0.770D-04 0.751D-04
 Coeff:     -0.129D-03-0.426D-03 0.132D-03 0.474D-02-0.126D-02-0.265D-01
 Coeff:     -0.193D+00 0.338D+00 0.879D+00
 Gap=     0.248 Goal=   None    Shift=    0.000
 RMSDP=1.12D-07 MaxDP=9.38D-06 DE=-9.37D-11 OVMax= 5.76D-06

 Cycle  16  Pass 1  IDiag  1:
 RMSU=  2.65D-08    CP:  5.55D-01  2.64D+00  1.85D+00  8.85D-01  9.44D-01
                    CP:  1.15D+00  1.36D+00  1.54D+00  1.39D+00  1.56D+00
                    CP:  1.43D+00  1.21D+00  1.27D+00  1.59D+00  1.56D+00
 E= -3010.53489087127     Delta-E=       -0.000000000079 Rises=F Damp=F
 DIIS: error= 6.83D-08 at cycle  16 NSaved=  16.
 NSaved=16 IEnMin=16 EnMin= -3010.53489087127     IErMin=16 ErrMin= 6.83D-08
 ErrMax= 6.83D-08  0.00D+00 EMaxC= 1.00D-01 BMatC= 1.39D-12 BMatP= 7.87D-12
 IDIUse=1 WtCom= 1.00D+00 WtEn= 0.00D+00
 Coeff-Com:  0.177D-06-0.282D-06 0.122D-05 0.113D-04 0.575D-04 0.145D-03
 Coeff-Com:  0.287D-04-0.516D-03-0.168D-02 0.109D-02 0.150D-01-0.533D-03
 Coeff-Com: -0.103D+00-0.926D-01 0.177D+00 0.101D+01
 Coeff:      0.177D-06-0.282D-06 0.122D-05 0.113D-04 0.575D-04 0.145D-03
 Coeff:      0.287D-04-0.516D-03-0.168D-02 0.109D-02 0.150D-01-0.533D-03
 Coeff:     -0.103D+00-0.926D-01 0.177D+00 0.101D+01
 Gap=     0.248 Goal=   None    Shift=    0.000
 RMSDP=7.11D-08 MaxDP=5.36D-06 DE=-7.91D-11 OVMax= 3.70D-06

 Cycle  17  Pass 1  IDiag  1:
 RMSU=  1.37D-08    CP:  5.55D-01  2.64D+00  1.85D+00  8.85D-01  9.44D-01
                    CP:  1.15D+00  1.36D+00  1.54D+00  1.39D+00  1.56D+00
                    CP:  1.42D+00  1.24D+00  1.26D+00  1.74D+00  2.00D+00
                    CP:  1.39D+00
 E= -3010.53489087123     Delta-E=        0.000000000040 Rises=F Damp=F
 DIIS: error= 3.47D-08 at cycle  17 NSaved=  17.
 NSaved=17 IEnMin=16 EnMin= -3010.53489087127     IErMin=17 ErrMin= 3.47D-08
 ErrMax= 3.47D-08  0.00D+00 EMaxC= 1.00D-01 BMatC= 3.03D-13 BMatP= 1.39D-12
 IDIUse=1 WtCom= 1.00D+00 WtEn= 0.00D+00
 Coeff-Com: -0.360D-06 0.477D-06 0.164D-06 0.770D-06-0.461D-05 0.142D-04
 Coeff-Com:  0.330D-04 0.480D-05-0.427D-03-0.621D-03 0.343D-02 0.747D-02
 Coeff-Com:  0.545D-02-0.899D-01-0.162D+00 0.345D+00 0.891D+00
 Coeff:     -0.360D-06 0.477D-06 0.164D-06 0.770D-06-0.461D-05 0.142D-04
 Coeff:      0.330D-04 0.480D-05-0.427D-03-0.621D-03 0.343D-02 0.747D-02
 Coeff:      0.545D-02-0.899D-01-0.162D+00 0.345D+00 0.891D+00
 Gap=     0.248 Goal=   None    Shift=    0.000
 RMSDP=3.14D-08 MaxDP=2.68D-06 DE= 4.05D-11 OVMax= 1.69D-06

 Cycle  18  Pass 1  IDiag  1:
 RMSU=  8.37D-09    CP:  5.55D-01  2.64D+00  1.85D+00  8.85D-01  9.44D-01
                    CP:  1.15D+00  1.36D+00  1.54D+00  1.39D+00  1.56D+00
                    CP:  1.42D+00  1.25D+00  1.26D+00  1.81D+00  2.15D+00
                    CP:  1.76D+00  1.16D+00
 E= -3010.53489087126     Delta-E=       -0.000000000034 Rises=F Damp=F
 DIIS: error= 1.17D-08 at cycle  18 NSaved=  18.
 NSaved=18 IEnMin=16 EnMin= -3010.53489087127     IErMin=18 ErrMin= 1.17D-08
 ErrMax= 1.17D-08  0.00D+00 EMaxC= 1.00D-01 BMatC= 6.40D-14 BMatP= 3.03D-13
 IDIUse=1 WtCom= 1.00D+00 WtEn= 0.00D+00
 Coeff-Com:  0.504D-07-0.653D-07-0.163D-06-0.211D-05-0.127D-04-0.186D-04
 Coeff-Com:  0.948D-05 0.106D-03 0.110D-03-0.529D-03-0.155D-02 0.391D-02
 Coeff-Com:  0.243D-01-0.135D-01-0.107D+00-0.849D-01 0.357D+00 0.822D+00
 Coeff:      0.504D-07-0.653D-07-0.163D-06-0.211D-05-0.127D-04-0.186D-04
 Coeff:      0.948D-05 0.106D-03 0.110D-03-0.529D-03-0.155D-02 0.391D-02
 Coeff:      0.243D-01-0.135D-01-0.107D+00-0.849D-01 0.357D+00 0.822D+00
 Gap=     0.248 Goal=   None    Shift=    0.000
 RMSDP=1.09D-08 MaxDP=6.11D-07 DE=-3.37D-11 OVMax= 5.46D-07

 Cycle  19  Pass 1  IDiag  1:
 RMSU=  2.19D-09    CP:  5.55D-01  2.64D+00  1.85D+00  8.85D-01  9.44D-01
                    CP:  1.15D+00  1.36D+00  1.54D+00  1.39D+00  1.56D+00
                    CP:  1.42D+00  1.25D+00  1.26D+00  1.82D+00  2.22D+00
                    CP:  1.84D+00  1.44D+00  1.06D+00
 E= -3010.53489087123     Delta-E=        0.000000000034 Rises=F Damp=F
 DIIS: error= 3.82D-09 at cycle  19 NSaved=  19.
 NSaved=19 IEnMin=16 EnMin= -3010.53489087127     IErMin=19 ErrMin= 3.82D-09
 ErrMax= 3.82D-09  0.00D+00 EMaxC= 1.00D-01 BMatC= 2.45D-15 BMatP= 6.40D-14
 IDIUse=1 WtCom= 1.00D+00 WtEn= 0.00D+00
 Coeff-Com: -0.973D-07 0.131D-06-0.618D-07-0.282D-06-0.160D-05-0.287D-05
 Coeff-Com: -0.265D-05 0.131D-04 0.536D-04-0.292D-04-0.533D-03 0.127D-03
 Coeff-Com:  0.453D-02 0.386D-02-0.100D-01-0.429D-01 0.180D-01 0.148D+00
 Coeff-Com:  0.879D+00
 Coeff:     -0.973D-07 0.131D-06-0.618D-07-0.282D-06-0.160D-05-0.287D-05
 Coeff:     -0.265D-05 0.131D-04 0.536D-04-0.292D-04-0.533D-03 0.127D-03
 Coeff:      0.453D-02 0.386D-02-0.100D-01-0.429D-01 0.180D-01 0.148D+00
 Coeff:      0.879D+00
 Gap=     0.248 Goal=   None    Shift=    0.000
 RMSDP=2.28D-09 MaxDP=1.95D-07 DE= 3.37D-11 OVMax= 8.24D-08

 SCF Done:  E(RwB97XD) =  -3010.53489087     A.U. after   19 cycles
            NFock= 19  Conv=0.23D-08     -V/T= 2.0016
 KE= 3.005855940150D+03 PE=-8.631620395277D+03 EE= 1.876572446354D+03
 Leave Link  502 at Wed May  1 14:46:28 2024, MaxMem=  1207959552 cpu:            1065.3 elap:            1065.5
 (Enter /software/gaussian/g16-c01/sse4/g16/l601.exe)
 Copying SCF densities to generalized density rwf, IOpCl= 0 IROHF=0.

 **********************************************************************

            Population analysis using the SCF Density.

 **********************************************************************

 Alpha  occ. eigenvalues -- -483.30899 -62.85930 -56.65615 -56.65053 -56.65051
 Alpha  occ. eigenvalues --  -19.44176 -19.44105 -14.83716 -10.57868 -10.56804
 Alpha  occ. eigenvalues --  -10.56268 -10.56225 -10.56179 -10.52462  -9.01740
 Alpha  occ. eigenvalues --   -6.84396  -6.82557  -6.82543  -2.94306  -2.93817
 Alpha  occ. eigenvalues --   -2.93805  -2.92333  -2.92333  -1.47946  -1.30903
 Alpha  occ. eigenvalues --   -1.21953  -1.13344  -1.11088  -1.03920  -1.00022
 Alpha  occ. eigenvalues --   -0.94813  -0.90164  -0.84291  -0.79864  -0.79492
 Alpha  occ. eigenvalues --   -0.78532  -0.77567  -0.75302  -0.74445  -0.71650
 Alpha  occ. eigenvalues --   -0.68772  -0.66901  -0.63018  -0.59571  -0.56235
 Alpha  occ. eigenvalues --   -0.55350  -0.54799  -0.54291  -0.53851
 Alpha virt. eigenvalues --   -0.29039  -0.20052  -0.15152  -0.12456  -0.08725
 Alpha virt. eigenvalues --   -0.06106  -0.05423  -0.04542  -0.04130  -0.02578
 Alpha virt. eigenvalues --   -0.01998  -0.01758  -0.01272  -0.00741   0.00491
 Alpha virt. eigenvalues --    0.01346   0.02015   0.02297   0.03132   0.03189
 Alpha virt. eigenvalues --    0.04895   0.05513   0.05996   0.06569   0.07415
 Alpha virt. eigenvalues --    0.07543   0.08060   0.08261   0.09518   0.09813
 Alpha virt. eigenvalues --    0.11014   0.11842   0.12237   0.12418   0.13244
 Alpha virt. eigenvalues --    0.13455   0.14490   0.14827   0.16062   0.16892
 Alpha virt. eigenvalues --    0.17201   0.17815   0.18837   0.19394   0.19843
 Alpha virt. eigenvalues --    0.19975   0.22114   0.22887   0.23159   0.25656
 Alpha virt. eigenvalues --    0.27209   0.28998   0.29536   0.29844   0.31507
 Alpha virt. eigenvalues --    0.33489   0.34422   0.35463   0.36417   0.37005
 Alpha virt. eigenvalues --    0.37552   0.39236   0.39818   0.41059   0.42162
 Alpha virt. eigenvalues --    0.43144   0.44426   0.45256   0.46988   0.48153
 Alpha virt. eigenvalues --    0.48867   0.50606   0.51616   0.52447   0.54411
 Alpha virt. eigenvalues --    0.55323   0.55756   0.57162   0.57618   0.60160
 Alpha virt. eigenvalues --    0.61535   0.62964   0.64485   0.67155   0.69113
 Alpha virt. eigenvalues --    0.70692   0.72743   0.73137   0.73853   0.74845
 Alpha virt. eigenvalues --    0.75181   0.80463   0.80776   0.83646   0.85865
 Alpha virt. eigenvalues --    0.86978   0.89269   0.92677   0.93851   0.99777
 Alpha virt. eigenvalues --    1.01266   1.01983   1.05453   1.06235   1.07309
 Alpha virt. eigenvalues --    1.10115   1.12158   1.13543   1.14035   1.15986
 Alpha virt. eigenvalues --    1.23721   1.25548   1.27797   1.33564   1.37145
 Alpha virt. eigenvalues --    1.37501   1.38605   1.45709   1.55147   1.57885
 Alpha virt. eigenvalues --    1.59533   1.59709   1.61506   1.63438   1.66877
 Alpha virt. eigenvalues --    1.70139   1.70323   1.74085   1.76695   1.79706
 Alpha virt. eigenvalues --    1.81564   1.86206   1.88216   1.93736   1.95902
 Alpha virt. eigenvalues --    1.98656   2.03832   2.04788   2.07305   2.08617
 Alpha virt. eigenvalues --    2.10237   2.15335   2.21052   2.23697   2.29865
 Alpha virt. eigenvalues --    2.38523   2.42175   2.43280   2.44318   2.53097
 Alpha virt. eigenvalues --    2.57241   2.63725   2.66770   2.68933   2.73219
 Alpha virt. eigenvalues --    2.74724   2.77951   2.78430   2.82062   2.82966
 Alpha virt. eigenvalues --    2.94042   2.96955   3.02257   3.06123   3.09733
 Alpha virt. eigenvalues --    3.13720   3.15654   3.19703   3.24794   3.25324
 Alpha virt. eigenvalues --    3.29069   3.40220   3.48174   3.52244   3.55593
 Alpha virt. eigenvalues --    3.58110   3.71527   3.75763   3.82790   3.87813
 Alpha virt. eigenvalues --    4.09174   4.09408   4.16942   4.22143   4.42978
 Alpha virt. eigenvalues --    4.46076   4.58058   4.61325   4.94944   4.97626
 Alpha virt. eigenvalues --    5.06267   5.10434   5.64495   6.17498   6.64892
 Alpha virt. eigenvalues --    7.47846   7.49423   7.59222  23.21877  23.61885
 Alpha virt. eigenvalues --   23.69994  23.80079  23.96594  24.02077  35.34238
 Alpha virt. eigenvalues --   47.91499  49.87255  49.96067 289.80834 289.82502
 Alpha virt. eigenvalues --  289.949481020.91929
          Condensed to atoms (all electrons):
               1          2          3          4          5          6
     1  C    9.010815  -2.387688   0.184582  -1.654036  -0.618660   0.309959
     2  C   -2.387688  12.823392  -1.753853  -2.468621   0.648120  -0.011599
     3  C    0.184582  -1.753853  13.191077  -3.336654  -1.243247   0.024624
     4  C   -1.654036  -2.468621  -3.336654  15.124204   1.247351   0.010385
     5  C   -0.618660   0.648120  -1.243247   1.247351   7.441927   0.010420
     6  H    0.309959  -0.011599   0.024624   0.010385   0.010420   0.341651
     7  H    0.073227   0.224385   0.076238  -0.033372  -0.019217  -0.001801
     8  H    0.004972  -0.011552   0.077023   0.236654  -0.022114   0.000001
     9  H    0.036000  -0.017990   0.005435  -0.007929   0.302405  -0.002498
    10  N   -0.161587   0.354695  -0.921745   0.339543   0.011490  -0.000647
    11  O    0.011026  -0.083282  -0.262796  -0.004185  -0.058351  -0.000025
    12  O    0.344968  -0.035952  -0.278961  -0.104881  -0.043024   0.000028
    13  C    1.392750  -1.796715   0.905240  -3.617223  -1.692990  -0.007913
    14  H   -0.014193   0.001270   0.001768  -0.069139  -0.005942  -0.000049
    15  Br   0.037233   0.010029   0.038198   0.039159   0.046068  -0.000383
               7          8          9         10         11         12
     1  C    0.073227   0.004972   0.036000  -0.161587   0.011026   0.344968
     2  C    0.224385  -0.011552  -0.017990   0.354695  -0.083282  -0.035952
     3  C    0.076238   0.077023   0.005435  -0.921745  -0.262796  -0.278961
     4  C   -0.033372   0.236654  -0.007929   0.339543  -0.004185  -0.104881
     5  C   -0.019217  -0.022114   0.302405   0.011490  -0.058351  -0.043024
     6  H   -0.001801   0.000001  -0.002498  -0.000647  -0.000025   0.000028
     7  H    0.296652  -0.000004   0.000015  -0.025731  -0.001498   0.023964
     8  H   -0.000004   0.289844   0.000100  -0.023878   0.024150  -0.000860
     9  H    0.000015   0.000100   0.339078   0.000369   0.000007   0.000007
    10  N   -0.025731  -0.023878   0.000369   7.405123   0.167836   0.132467
    11  O   -0.001498   0.024150   0.000007   0.167836   7.836266   0.004538
    12  O    0.023964  -0.000860   0.000007   0.132467   0.004538   7.873457
    13  C    0.015751   0.048083   0.012170  -0.174788   0.322323   0.041210
    14  H   -0.000019  -0.003861  -0.005827   0.000103  -0.000301  -0.000073
    15  Br  -0.000045   0.003459   0.001022   0.005167   0.000146   0.002045
              13         14         15
     1  C    1.392750  -0.014193   0.037233
     2  C   -1.796715   0.001270   0.010029
     3  C    0.905240   0.001768   0.038198
     4  C   -3.617223  -0.069139   0.039159
     5  C   -1.692990  -0.005942   0.046068
     6  H   -0.007913  -0.000049  -0.000383
     7  H    0.015751  -0.000019  -0.000045
     8  H    0.048083  -0.003861   0.003459
     9  H    0.012170  -0.005827   0.001022
    10  N   -0.174788   0.000103   0.005167
    11  O    0.322323  -0.000301   0.000146
    12  O    0.041210  -0.000073   0.002045
    13  C   10.640326   0.392244  -0.006407
    14  H    0.392244   0.347216  -0.042403
    15  Br  -0.006407  -0.042403  34.707149
 Mulliken charges:
               1
     1  C   -0.569368
     2  C    0.505361
     3  C   -0.706928
     4  C    0.298744
     5  C   -0.004237
     6  H    0.327845
     7  H    0.371456
     8  H    0.377985
     9  H    0.337638
    10  N   -0.108417
    11  O    0.044146
    12  O    0.041067
    13  C   -0.474061
    14  H    0.399207
    15  Br   0.159564
 Sum of Mulliken charges =   1.00000
 Mulliken charges with hydrogens summed into heavy atoms:
               1
     1  C   -0.241523
     2  C    0.876817
     3  C   -0.706928
     4  C    0.676728
     5  C    0.333400
    10  N   -0.108417
    11  O    0.044146
    12  O    0.041067
    13  C   -0.074854
    15  Br   0.159564
 Electronic spatial extent (au):  <R**2>=           2797.1129
 Charge=              1.0000 electrons
 Dipole moment (field-independent basis, Debye):
    X=              0.0360    Y=             -0.4894    Z=              0.0502  Tot=              0.4933
 Quadrupole moment (field-independent basis, Debye-Ang):
   XX=            -69.2421   YY=            -52.0841   ZZ=            -62.8329
   XY=              1.1586   XZ=              0.8889   YZ=              1.4627
 Traceless Quadrupole moment (field-independent basis, Debye-Ang):
   XX=             -7.8557   YY=              9.3023   ZZ=             -1.4465
   XY=              1.1586   XZ=              0.8889   YZ=              1.4627
 Octapole moment (field-independent basis, Debye-Ang**2):
  XXX=           -287.6997  YYY=             88.2954  ZZZ=             77.8410  XYY=            -74.0887
  XXY=             30.4369  XXZ=             32.2993  XZZ=            -77.1971  YZZ=             16.7007
  YYZ=             25.7985  XYZ=             -2.9754
 Hexadecapole moment (field-independent basis, Debye-Ang**3):
 XXXX=          -2228.9705 YYYY=           -678.1527 ZZZZ=           -349.0972 XXXY=            -68.5067
 XXXZ=            -23.0122 YYYX=            -60.5855 YYYZ=           -156.5549 ZZZX=            -19.3268
 ZZZY=           -136.5492 XXYY=           -452.3624 XXZZ=           -369.6461 YYZZ=           -164.2251
 XXYZ=            -55.0798 YYXZ=             -3.0142 ZZXY=             -9.3395
 N-N= 7.386571179020D+02 E-N=-8.631620394750D+03  KE= 3.005855940150D+03
 No NMR shielding tensors so no spin-rotation constants.
 Leave Link  601 at Wed May  1 14:46:35 2024, MaxMem=  1207959552 cpu:               7.1 elap:               7.0
 (Enter /software/gaussian/g16-c01/sse4/g16/l9999.exe)
 Unable to Open any file for archive entry.
 1\1\GINC-BHX0014\SP\RwB97XD\6-311+G(d)\C6H5Br1N1O2(1+)\BWEIGHT\01-May-
 2024\0\\#P wB97XD/6-311+G* NoSymm #P Field=X-29\\TitleMe\\1,1\C,0,0.02
 95,1.3397,0.0682\C,0,1.4348,1.2867,0.0064\C,0,2.1118,0.0511,-0.0054\C,
 0,1.4451,-1.1372,0.0312\C,0,-0.6879,0.1682,0.11\H,0,-0.4713,2.2984,0.0
 781\H,0,2.0273,2.1965,-0.0322\H,0,1.9897,-2.0764,0.0232\H,0,-1.7716,0.
 1804,0.1582\N,0,3.5864,0.051,-0.0675\O,0,4.1471,-1.0597,-0.0881\O,0,4.
 145,1.1639,-0.0901\C,0,-0.0236,-1.1458,0.0835\H,0,-0.4367,-1.8725,0.78
 89\Br,0,-0.5359,-1.8697,-1.7408\\Version=ES64L-G16RevC.01\HF=-3010.534
 8909\RMSD=2.283e-09\Dipole=-1.8923818,0.9555446,1.1659452\Quadrupole=-
 5.8405451,6.9159996,-1.0754545,0.8613629,0.6608943,1.0874497\PG=C01 [X
 (C6H5Br1N1O2)]\\@
 The archive entry for this job was punched.


  ON THE CHOICE OF THE CORRECT LANGUAGE -
 I SPEAK SPANISH TO GOD, ITALIAN TO WOMEN,
 FRENCH TO MEN, AND GERMAN TO MY HORSE.
          -- CHARLES V
 Job cpu time:       0 days  0 hours 18 minutes 52.4 seconds.
 Elapsed time:       0 days  0 hours 18 minutes 52.6 seconds.
 File lengths (MBytes):  RWF=     40 Int=      0 D2E=      0 Chk=     32 Scr=      1
 Normal termination of Gaussian 16 at Wed May  1 14:46:36 2024.
