 Entering Gaussian System, Link 0=g16
 Initial command:
 /software/gaussian/g16-c01/sse4/g16/l1.exe "/local_scratch/24665263/Gau-22242.inp" -scrdir="/local_scratch/24665263/"
 Entering Link 1 = /software/gaussian/g16-c01/sse4/g16/l1.exe PID=     22292.
  
 Copyright (c) 1988-2019, Gaussian, Inc.  All Rights Reserved.
  
 This is part of the Gaussian(R) 16 program.  It is based on
 the Gaussian(R) 09 system (copyright 2009, Gaussian, Inc.),
 the Gaussian(R) 03 system (copyright 2003, Gaussian, Inc.),
 the Gaussian(R) 98 system (copyright 1998, Gaussian, Inc.),
 the Gaussian(R) 94 system (copyright 1995, Gaussian, Inc.),
 the Gaussian 92(TM) system (copyright 1992, Gaussian, Inc.),
 the Gaussian 90(TM) system (copyright 1990, Gaussian, Inc.),
 the Gaussian 88(TM) system (copyright 1988, Gaussian, Inc.),
 the Gaussian 86(TM) system (copyright 1986, Carnegie Mellon
 University), and the Gaussian 82(TM) system (copyright 1983,
 Carnegie Mellon University). Gaussian is a federally registered
 trademark of Gaussian, Inc.
  
 This software contains proprietary and confidential information,
 including trade secrets, belonging to Gaussian, Inc.
  
 This software is provided under written license and may be
 used, copied, transmitted, or stored only in accord with that
 written license.
  
 The following legend is applicable only to US Government
 contracts under FAR:
  
                    RESTRICTED RIGHTS LEGEND
  
 Use, reproduction and disclosure by the US Government is
 subject to restrictions as set forth in subparagraphs (a)
 and (c) of the Commercial Computer Software - Restricted
 Rights clause in FAR 52.227-19.
  
 Gaussian, Inc.
 340 Quinnipiac St., Bldg. 40, Wallingford CT 06492
  
  
 ---------------------------------------------------------------
 Warning -- This program may not be used in any manner that
 competes with the business of Gaussian, Inc. or will provide
 assistance to any competitor of Gaussian, Inc.  The licensee
 of this program is prohibited from giving any competitor of
 Gaussian, Inc. access to this program.  By using this program,
 the user acknowledges that Gaussian, Inc. is engaged in the
 business of creating and licensing software in the field of
 computational chemistry and represents and warrants to the
 licensee that it is not a competitor of Gaussian, Inc. and that
 it will not use this program in any manner prohibited above.
 ---------------------------------------------------------------
  

 Cite this work as:
 Gaussian 16, Revision C.01,
 M. J. Frisch, G. W. Trucks, H. B. Schlegel, G. E. Scuseria, 
 M. A. Robb, J. R. Cheeseman, G. Scalmani, V. Barone, 
 G. A. Petersson, H. Nakatsuji, X. Li, M. Caricato, A. V. Marenich, 
 J. Bloino, B. G. Janesko, R. Gomperts, B. Mennucci, H. P. Hratchian, 
 J. V. Ortiz, A. F. Izmaylov, J. L. Sonnenberg, D. Williams-Young, 
 F. Ding, F. Lipparini, F. Egidi, J. Goings, B. Peng, A. Petrone, 
 T. Henderson, D. Ranasinghe, V. G. Zakrzewski, J. Gao, N. Rega, 
 G. Zheng, W. Liang, M. Hada, M. Ehara, K. Toyota, R. Fukuda, 
 J. Hasegawa, M. Ishida, T. Nakajima, Y. Honda, O. Kitao, H. Nakai, 
 T. Vreven, K. Throssell, J. A. Montgomery, Jr., J. E. Peralta, 
 F. Ogliaro, M. J. Bearpark, J. J. Heyd, E. N. Brothers, K. N. Kudin, 
 V. N. Staroverov, T. A. Keith, R. Kobayashi, J. Normand, 
 K. Raghavachari, A. P. Rendell, J. C. Burant, S. S. Iyengar, 
 J. Tomasi, M. Cossi, J. M. Millam, M. Klene, C. Adamo, R. Cammi, 
 J. W. Ochterski, R. L. Martin, K. Morokuma, O. Farkas, 
 J. B. Foresman, and D. J. Fox, Gaussian, Inc., Wallingford CT, 2019.
 
 ******************************************
 Gaussian 16:  ES64L-G16RevC.01  3-Jul-2019
                 2-May-2024 
 ******************************************
 %chk=geometry.chk
 %mem=1GB
 %nprocshared=12
 Will use up to   12 processors via shared memory.
 --------------------------------------
 #P wB97XD/6-311+G* NoSymm #P Field=X+0
 --------------------------------------
 1/38=1,172=1/1;
 2/12=2,15=1,17=6,18=5,40=1/2;
 3/5=4,6=6,7=11,11=2,14=1,25=1,30=1,74=-58/1,2,3;
 4//1;
 5/5=2,38=5/2;
 6/7=2,8=2,9=2,10=2,28=1/1;
 99/5=1,9=1/99;
 Leave Link    1 at Thu May  2 13:57:34 2024, MaxMem=   134217728 cpu:               3.1 elap:               3.1
 (Enter /software/gaussian/g16-c01/sse4/g16/l101.exe)
 -------
 TitleMe
 -------
 Symbolic Z-matrix:
 Charge =  1 Multiplicity = 1
 C                     0.5193    1.233    -0.0319 
 C                     1.9445    1.2692   -0.0367 
 C                     2.6204    0.0928   -0.025 
 C                    -0.196     0.0301    0.001 
 H                    -0.0207    2.1742   -0.0434 
 H                     2.4828    2.2089   -0.0361 
 H                    -1.2777    0.0399    0.0117 
 N                     4.0921    0.0959    0.0366 
 O                     4.6393   -1.0217    0.1446 
 O                     4.6649    1.1984   -0.0233 
 C                     0.4943   -1.1671    0.021 
 H                    -0.0325   -2.1149    0.0545 
 C                     1.9629   -1.2165   -0.0211 
 H                     2.4436   -1.9631    0.6151 
 Br                    2.173    -1.9491   -1.9062 
 
 ITRead=  0  0  0  0  0  0  0  0  0  0  0  0  0  0  0
 MicOpt= -1 -1 -1 -1 -1 -1 -1 -1 -1 -1 -1 -1 -1 -1 -1
 NAtoms=     15 NQM=       15 NQMF=       0 NMMI=      0 NMMIF=      0
                NMic=       0 NMicF=      0.
                    Isotopes and Nuclear Properties:
 (Nuclear quadrupole moments (NQMom) in fm**2, nuclear magnetic moments (NMagM)
  in nuclear magnetons)

  Atom         1           2           3           4           5           6           7           8           9          10
 IAtWgt=          12          12          12          12           1           1           1          14          16          16
 AtmWgt=  12.0000000  12.0000000  12.0000000  12.0000000   1.0078250   1.0078250   1.0078250  14.0030740  15.9949146  15.9949146
 NucSpn=           0           0           0           0           1           1           1           2           0           0
 AtZEff=  -0.0000000  -0.0000000  -0.0000000  -0.0000000  -0.0000000  -0.0000000  -0.0000000  -0.0000000  -0.0000000  -0.0000000
 NQMom=    0.0000000   0.0000000   0.0000000   0.0000000   0.0000000   0.0000000   0.0000000   2.0440000   0.0000000   0.0000000
 NMagM=    0.0000000   0.0000000   0.0000000   0.0000000   2.7928460   2.7928460   2.7928460   0.4037610   0.0000000   0.0000000
 AtZNuc=   6.0000000   6.0000000   6.0000000   6.0000000   1.0000000   1.0000000   1.0000000   7.0000000   8.0000000   8.0000000

  Atom        11          12          13          14          15
 IAtWgt=          12           1          12           1          79
 AtmWgt=  12.0000000   1.0078250  12.0000000   1.0078250  78.9183361
 NucSpn=           0           1           0           1           3
 AtZEff=  -0.0000000  -0.0000000  -0.0000000  -0.0000000  -0.0000000
 NQMom=    0.0000000   0.0000000   0.0000000   0.0000000  31.3000000
 NMagM=    0.0000000   2.7928460   0.0000000   2.7928460   2.1063990
 AtZNuc=   6.0000000   1.0000000   6.0000000   1.0000000  35.0000000
 Leave Link  101 at Thu May  2 13:57:37 2024, MaxMem=   134217728 cpu:               1.7 elap:               1.7
 (Enter /software/gaussian/g16-c01/sse4/g16/l202.exe)
                          Input orientation:                          
 ---------------------------------------------------------------------
 Center     Atomic      Atomic             Coordinates (Angstroms)
 Number     Number       Type             X           Y           Z
 ---------------------------------------------------------------------
      1          6           0        0.519300    1.233000   -0.031900
      2          6           0        1.944500    1.269200   -0.036700
      3          6           0        2.620400    0.092800   -0.025000
      4          6           0       -0.196000    0.030100    0.001000
      5          1           0       -0.020700    2.174200   -0.043400
      6          1           0        2.482800    2.208900   -0.036100
      7          1           0       -1.277700    0.039900    0.011700
      8          7           0        4.092100    0.095900    0.036600
      9          8           0        4.639300   -1.021700    0.144600
     10          8           0        4.664900    1.198400   -0.023300
     11          6           0        0.494300   -1.167100    0.021000
     12          1           0       -0.032500   -2.114900    0.054500
     13          6           0        1.962900   -1.216500   -0.021100
     14          1           0        2.443600   -1.963100    0.615100
     15         35           0        2.173000   -1.949100   -1.906200
 ---------------------------------------------------------------------
                    Distance matrix (angstroms):
                    1          2          3          4          5
     1  C    0.000000
     2  C    1.425668   0.000000
     3  C    2.390549   1.356796   0.000000
     4  C    1.399895   2.473566   2.817218   0.000000
     5  H    1.085168   2.163581   3.362733   2.151712   0.000000
     6  H    2.192654   1.082960   2.120598   3.453189   2.503751
     7  H    2.157452   3.449071   3.898632   1.081797   2.477564
     8  N    3.750012   2.448304   1.472992   4.288753   4.608780
     9  O    4.699917   3.541615   2.312322   4.950458   5.653735
    10  O    4.145753   2.721354   2.324292   4.999386   4.786171
    11  C    2.400813   2.835836   2.471794   1.382101   3.381369
    12  H    3.394169   3.920329   3.452266   2.151887   4.290233
    13  C    2.843264   2.485817   1.465124   2.493060   3.928360
    14  H    3.786370   3.334922   2.160489   3.364142   4.860416
    15  Br   4.046416   3.728900   2.812194   3.628609   5.028314
                    6          7          8          9         10
     6  H    0.000000
     7  H    4.341452   0.000000
     8  N    2.657047   5.370150   0.000000
     9  O    3.888434   6.012948   1.249048   0.000000
    10  O    2.404752   6.054572   1.243863   2.226587   0.000000
    11  C    3.918516   2.144043   3.813080   4.149391   4.794941
    12  H    5.003018   2.489080   4.679774   4.798846   5.748876
    13  C    3.464662   3.475788   2.501842   2.688591   3.623886
    14  H    4.222698   4.268978   2.700314   2.434893   3.916224
    15  Br   4.569706   4.420610   3.411663   3.338935   4.434144
                   11         12         13         14         15
    11  C    0.000000
    12  H    1.084880   0.000000
    13  C    1.470034   2.189625   0.000000
    14  H    2.187771   2.543302   1.092353   0.000000
    15  Br   2.672762   2.955683   2.033334   2.535818   0.000000
 Symmetry turned off by external request.
 Stoichiometry    C6H5BrNO2(1+)
 Framework group  C1[X(C6H5BrNO2)]
 Deg. of freedom    39
 Full point group                 C1      NOp   1
 Rotational constants (GHZ):           1.1632986           0.9594224           0.5957624
 Leave Link  202 at Thu May  2 13:57:38 2024, MaxMem=   134217728 cpu:               1.3 elap:               1.3
 (Enter /software/gaussian/g16-c01/sse4/g16/l301.exe)
 Standard basis: 6-311+G(d) (5D, 7F)
 Ernie: Thresh=  0.10000D-02 Tol=  0.10000D-05 Strict=F.
   261 basis functions,   443 primitive gaussians,   273 cartesian basis functions
    49 alpha electrons       49 beta electrons
       nuclear repulsion energy       772.8945969580 Hartrees.
 IExCor= 4639 DFT=T Ex+Corr=wB97XD ExCW=0 ScaHFX=  1.000000
 ScaDFX=  1.000000  1.000000  1.000000  1.000000 ScalE2=  1.000000  1.000000
 IRadAn=      5 IRanWt=     -1 IRanGd=            0 ICorTp=0 IEmpDi=121
 HFx  wShort=  0.000000 wLong=  0.200000 cFull=  0.222036 cShort=  0.000000 cLong=  0.777964
 DFx  wShort=  0.000000 wLong=  0.200000 cFull=  0.000000 cShort=  0.000000 cLong=  1.000000
 NAtoms=   15 NActive=   15 NUniq=   15 SFac= 1.00D+00 NAtFMM=   60 NAOKFM=F Big=F
 Integral buffers will be    131072 words long.
 Raffenetti 2 integral format.
 Two-electron integral symmetry is turned off.
 R6Disp:  Grimme-D2 Dispersion energy=       -0.0080346408 Hartrees.
 Nuclear repulsion after empirical dispersion term =      772.8865623173 Hartrees.
 Leave Link  301 at Thu May  2 13:57:40 2024, MaxMem=   134217728 cpu:               1.2 elap:               1.2
 (Enter /software/gaussian/g16-c01/sse4/g16/l302.exe)
 NPDir=0 NMtPBC=     1 NCelOv=     1 NCel=       1 NClECP=     1 NCelD=      1
         NCelK=      1 NCelE2=     1 NClLst=     1 CellRange=     0.0.
 One-electron integrals computed using PRISM.
 NBasis=   261 RedAO= T EigKep=  2.52D-06  NBF=   261
 NBsUse=   261 1.00D-06 EigRej= -1.00D+00 NBFU=   261
 Precomputing XC quadrature grid using
 IXCGrd= 4 IRadAn=           5 IRanWt=          -1 IRanGd=           0 AccXCQ= 0.00D+00.
 Generated NRdTot=       0 NPtTot=           0 NUsed=           0 NTot=          32
 NSgBfM=   273   273   273   273   273 MxSgAt=    15 MxSgA2=    15.
 Leave Link  302 at Thu May  2 13:58:02 2024, MaxMem=   134217728 cpu:              21.8 elap:              21.8
 (Enter /software/gaussian/g16-c01/sse4/g16/l303.exe)
 DipDrv:  MaxL=1.
 Leave Link  303 at Thu May  2 13:58:05 2024, MaxMem=   134217728 cpu:               3.2 elap:               3.2
 (Enter /software/gaussian/g16-c01/sse4/g16/l401.exe)
 ExpMin= 3.50D-02 ExpMax= 4.40D+05 ExpMxC= 1.51D+04 IAcc=3 IRadAn=         5 AccDes= 0.00D+00
 Harris functional with IExCor= 4639 and IRadAn=       5 diagonalized for initial guess.
 HarFok:  IExCor= 4639 AccDes= 0.00D+00 IRadAn=         5 IDoV= 1 UseB2=F ITyADJ=14
 ICtDFT=  3500011 ScaDFX=  1.000000  1.000000  1.000000  1.000000
 FoFCou: FMM=F IPFlag=           0 FMFlag=      100000 FMFlg1=           0
         NFxFlg=           0 DoJE=T BraDBF=F KetDBF=T FulRan=T
         wScrn=  0.000000 ICntrl=       500 IOpCl=  0 I1Cent=   200000004 NGrid=           0
         NMat0=    1 NMatS0=      1 NMatT0=    0 NMatD0=    1 NMtDS0=    0 NMtDT0=    0
 Symmetry not used in FoFCou.
 Harris En= -2970.59983731056    
 JPrj=0 DoOrth=F DoCkMO=F.
 Leave Link  401 at Thu May  2 13:58:36 2024, MaxMem=   134217728 cpu:              31.1 elap:              31.1
 (Enter /software/gaussian/g16-c01/sse4/g16/l502.exe)
 Two-electron integral symmetry not used.
 Closed shell SCF:
 Using DIIS extrapolation, IDIIS=  1040.
 NGot=   134217728 LenX=   134063053 LenY=   133988083
 Requested convergence on RMS density matrix=1.00D-08 within 128 cycles.
 Requested convergence on MAX density matrix=1.00D-06.
 Requested convergence on             energy=1.00D-06.
 No special actions if energy rises.
 Fock matrices will be formed incrementally for  20 cycles.

 Cycle   1  Pass 1  IDiag  1:
 FoFJK:  IHMeth= 1 ICntrl=       0 DoSepK=T KAlg= 0 I1Cent=           0 FoldK=F
 IRaf=         1 NMat=       1 IRICut=       1 DoRegI=T DoRafI=F ISym2E= 0 IDoP0=0 IntGTp=1.
 FoFCou: FMM=F IPFlag=           0 FMFlag=      100000 FMFlg1=           0
         NFxFlg=           0 DoJE=T BraDBF=F KetDBF=F FulRan=T
         wScrn=  0.000000 ICntrl=       500 IOpCl=  0 I1Cent=           0 NGrid=           0
         NMat0=    1 NMatS0=      1 NMatT0=    0 NMatD0=    1 NMtDS0=    0 NMtDT0=    0
 Symmetry not used in FoFCou.
 E= -3009.70008424046    
 DIIS: error= 2.90D-01 at cycle   1 NSaved=   1.
 NSaved= 1 IEnMin= 1 EnMin= -3009.70008424046     IErMin= 1 ErrMin= 2.90D-01
 ErrMax= 2.90D-01  0.00D+00 EMaxC= 1.00D-01 BMatC= 1.19D+01 BMatP= 1.19D+01
 IDIUse=3 WtCom= 0.00D+00 WtEn= 1.00D+00
 Coeff-Com:  0.100D+01
 Coeff-En:   0.100D+01
 Coeff:      0.100D+01
 Gap=     0.315 Goal=   None    Shift=    0.000
 GapD=    0.315 DampG=1.000 DampE=0.250 DampFc=0.2500 IDamp=-1.
 Damping current iteration by 2.50D-01
 RMSDP=4.22D-02 MaxDP=3.94D+00              OVMax= 2.61D-01

 Cycle   2  Pass 1  IDiag  1:
 RMSU=  5.39D-03    CP:  9.17D-01
 E= -3009.99112073989     Delta-E=       -0.291036499428 Rises=F Damp=T
 DIIS: error= 2.19D-01 at cycle   2 NSaved=   2.
 NSaved= 2 IEnMin= 2 EnMin= -3009.99112073989     IErMin= 2 ErrMin= 2.19D-01
 ErrMax= 2.19D-01  0.00D+00 EMaxC= 1.00D-01 BMatC= 5.46D+00 BMatP= 1.19D+01
 IDIUse=3 WtCom= 0.00D+00 WtEn= 1.00D+00
 Coeff-Com: -0.183D+01 0.283D+01
 Coeff-En:   0.000D+00 0.100D+01
 Coeff:      0.000D+00 0.100D+01
 Gap=     0.269 Goal=   None    Shift=    0.000
 RMSDP=3.36D-02 MaxDP=3.26D+00 DE=-2.91D-01 OVMax= 7.13D-02

 Cycle   3  Pass 1  IDiag  1:
 RMSU=  5.00D-03    CP:  6.28D-01  3.00D+00
 E= -3010.37623254603     Delta-E=       -0.385111806137 Rises=F Damp=F
 DIIS: error= 6.59D-02 at cycle   3 NSaved=   3.
 NSaved= 3 IEnMin= 3 EnMin= -3010.37623254603     IErMin= 3 ErrMin= 6.59D-02
 ErrMax= 6.59D-02  0.00D+00 EMaxC= 1.00D-01 BMatC= 7.36D-01 BMatP= 5.46D+00
 IDIUse=3 WtCom= 3.41D-01 WtEn= 6.59D-01
 Coeff-Com:  0.261D+01-0.342D+01 0.181D+01
 Coeff-En:   0.371D-01 0.000D+00 0.963D+00
 Coeff:      0.914D+00-0.117D+01 0.125D+01
 Gap=     0.263 Goal=   None    Shift=    0.000
 RMSDP=1.13D-02 MaxDP=7.52D-01 DE=-3.85D-01 OVMax= 7.53D-02

 Cycle   4  Pass 1  IDiag  1:
 RMSU=  5.38D-03    CP:  6.70D-01  1.70D+00  2.07D+00
 E= -3010.48567949079     Delta-E=       -0.109446944762 Rises=F Damp=F
 DIIS: error= 3.76D-02 at cycle   4 NSaved=   4.
 NSaved= 4 IEnMin= 4 EnMin= -3010.48567949079     IErMin= 4 ErrMin= 3.76D-02
 ErrMax= 3.76D-02  0.00D+00 EMaxC= 1.00D-01 BMatC= 2.22D-01 BMatP= 7.36D-01
 IDIUse=3 WtCom= 6.24D-01 WtEn= 3.76D-01
 Coeff-Com: -0.262D-01 0.487D-01 0.349D+00 0.629D+00
 Coeff-En:   0.000D+00 0.000D+00 0.190D+00 0.810D+00
 Coeff:     -0.164D-01 0.304D-01 0.289D+00 0.697D+00
 Gap=     0.253 Goal=   None    Shift=    0.000
 RMSDP=5.81D-03 MaxDP=7.34D-01 DE=-1.09D-01 OVMax= 3.21D-02

 Cycle   5  Pass 1  IDiag  1:
 RMSU=  1.55D-03    CP:  6.26D-01  2.00D+00  1.93D+00  5.48D-01
 E= -3010.52875295659     Delta-E=       -0.043073465798 Rises=F Damp=F
 DIIS: error= 6.60D-03 at cycle   5 NSaved=   5.
 NSaved= 5 IEnMin= 5 EnMin= -3010.52875295659     IErMin= 5 ErrMin= 6.60D-03
 ErrMax= 6.60D-03  0.00D+00 EMaxC= 1.00D-01 BMatC= 9.13D-03 BMatP= 2.22D-01
 IDIUse=3 WtCom= 9.34D-01 WtEn= 6.60D-02
 Coeff-Com: -0.107D+00 0.148D+00 0.110D+00 0.390D+00 0.459D+00
 Coeff-En:   0.000D+00 0.000D+00 0.000D+00 0.000D+00 0.100D+01
 Coeff:     -0.100D+00 0.139D+00 0.103D+00 0.364D+00 0.495D+00
 Gap=     0.245 Goal=   None    Shift=    0.000
 RMSDP=1.56D-03 MaxDP=1.95D-01 DE=-4.31D-02 OVMax= 2.34D-02

 Cycle   6  Pass 1  IDiag  1:
 RMSU=  5.57D-04    CP:  6.34D-01  1.98D+00  2.00D+00  7.31D-01  6.22D-01
 E= -3010.53140931447     Delta-E=       -0.002656357883 Rises=F Damp=F
 DIIS: error= 2.86D-03 at cycle   6 NSaved=   6.
 NSaved= 6 IEnMin= 6 EnMin= -3010.53140931447     IErMin= 6 ErrMin= 2.86D-03
 ErrMax= 2.86D-03  0.00D+00 EMaxC= 1.00D-01 BMatC= 6.70D-04 BMatP= 9.13D-03
 IDIUse=3 WtCom= 9.71D-01 WtEn= 2.86D-02
 Coeff-Com: -0.961D-01 0.129D+00 0.207D-02 0.166D+00 0.339D+00 0.459D+00
 Coeff-En:   0.000D+00 0.000D+00 0.000D+00 0.000D+00 0.100D+00 0.900D+00
 Coeff:     -0.933D-01 0.126D+00 0.201D-02 0.162D+00 0.332D+00 0.472D+00
 Gap=     0.244 Goal=   None    Shift=    0.000
 RMSDP=4.53D-04 MaxDP=4.46D-02 DE=-2.66D-03 OVMax= 8.14D-03

 Cycle   7  Pass 1  IDiag  1:
 RMSU=  2.16D-04    CP:  6.32D-01  1.98D+00  1.99D+00  6.92D-01  7.43D-01
                    CP:  6.49D-01
 E= -3010.53188201481     Delta-E=       -0.000472700345 Rises=F Damp=F
 DIIS: error= 3.37D-04 at cycle   7 NSaved=   7.
 NSaved= 7 IEnMin= 7 EnMin= -3010.53188201481     IErMin= 7 ErrMin= 3.37D-04
 ErrMax= 3.37D-04  0.00D+00 EMaxC= 1.00D-01 BMatC= 1.59D-05 BMatP= 6.70D-04
 IDIUse=3 WtCom= 9.97D-01 WtEn= 3.37D-03
 Coeff-Com: -0.353D-01 0.470D-01-0.119D-01 0.343D-01 0.842D-01 0.183D+00
 Coeff-Com:  0.698D+00
 Coeff-En:   0.000D+00 0.000D+00 0.000D+00 0.000D+00 0.000D+00 0.000D+00
 Coeff-En:   0.100D+01
 Coeff:     -0.352D-01 0.469D-01-0.118D-01 0.342D-01 0.839D-01 0.183D+00
 Coeff:      0.699D+00
 Gap=     0.245 Goal=   None    Shift=    0.000
 RMSDP=1.35D-04 MaxDP=1.08D-02 DE=-4.73D-04 OVMax= 1.47D-03

 Cycle   8  Pass 1  IDiag  1:
 RMSU=  5.95D-05    CP:  6.32D-01  1.97D+00  2.00D+00  7.03D-01  7.86D-01
                    CP:  6.97D-01  9.03D-01
 E= -3010.53189967787     Delta-E=       -0.000017663061 Rises=F Damp=F
 DIIS: error= 1.03D-04 at cycle   8 NSaved=   8.
 NSaved= 8 IEnMin= 8 EnMin= -3010.53189967787     IErMin= 8 ErrMin= 1.03D-04
 ErrMax= 1.03D-04  0.00D+00 EMaxC= 1.00D-01 BMatC= 2.19D-06 BMatP= 1.59D-05
 IDIUse=3 WtCom= 9.99D-01 WtEn= 1.03D-03
 Coeff-Com:  0.432D-02-0.599D-02-0.345D-02-0.130D-01-0.277D-01-0.302D-01
 Coeff-Com:  0.171D+00 0.905D+00
 Coeff-En:   0.000D+00 0.000D+00 0.000D+00 0.000D+00 0.000D+00 0.000D+00
 Coeff-En:   0.000D+00 0.100D+01
 Coeff:      0.431D-02-0.598D-02-0.345D-02-0.129D-01-0.277D-01-0.302D-01
 Coeff:      0.171D+00 0.905D+00
 Gap=     0.245 Goal=   None    Shift=    0.000
 RMSDP=6.33D-05 MaxDP=4.46D-03 DE=-1.77D-05 OVMax= 1.26D-03

 Cycle   9  Pass 1  IDiag  1:
 RMSU=  2.40D-05    CP:  6.32D-01  1.97D+00  2.00D+00  7.07D-01  7.98D-01
                    CP:  6.99D-01  1.05D+00  1.21D+00
 E= -3010.53190386948     Delta-E=       -0.000004191604 Rises=F Damp=F
 DIIS: error= 2.16D-05 at cycle   9 NSaved=   9.
 NSaved= 9 IEnMin= 9 EnMin= -3010.53190386948     IErMin= 9 ErrMin= 2.16D-05
 ErrMax= 2.16D-05  0.00D+00 EMaxC= 1.00D-01 BMatC= 2.34D-07 BMatP= 2.19D-06
 IDIUse=1 WtCom= 1.00D+00 WtEn= 0.00D+00
 Coeff-Com:  0.647D-02-0.869D-02 0.684D-03-0.882D-02-0.180D-01-0.308D-01
 Coeff-Com: -0.580D-01 0.251D+00 0.866D+00
 Coeff:      0.647D-02-0.869D-02 0.684D-03-0.882D-02-0.180D-01-0.308D-01
 Coeff:     -0.580D-01 0.251D+00 0.866D+00
 Gap=     0.245 Goal=   None    Shift=    0.000
 RMSDP=3.97D-05 MaxDP=4.63D-03 DE=-4.19D-06 OVMax= 7.60D-04

 Cycle  10  Pass 1  IDiag  1:
 RMSU=  8.24D-06    CP:  6.32D-01  1.96D+00  2.00D+00  7.05D-01  8.05D-01
                    CP:  6.88D-01  1.08D+00  1.50D+00  1.05D+00
 E= -3010.53190471443     Delta-E=       -0.000000844948 Rises=F Damp=F
 DIIS: error= 1.34D-05 at cycle  10 NSaved=  10.
 NSaved=10 IEnMin=10 EnMin= -3010.53190471443     IErMin=10 ErrMin= 1.34D-05
 ErrMax= 1.34D-05  0.00D+00 EMaxC= 1.00D-01 BMatC= 6.47D-08 BMatP= 2.34D-07
 IDIUse=1 WtCom= 1.00D+00 WtEn= 0.00D+00
 Coeff-Com:  0.612D-03-0.796D-03 0.448D-03-0.252D-03 0.182D-02 0.299D-02
 Coeff-Com: -0.399D-01-0.865D-01 0.207D+00 0.914D+00
 Coeff:      0.612D-03-0.796D-03 0.448D-03-0.252D-03 0.182D-02 0.299D-02
 Coeff:     -0.399D-01-0.865D-01 0.207D+00 0.914D+00
 Gap=     0.245 Goal=   None    Shift=    0.000
 RMSDP=1.40D-05 MaxDP=1.38D-03 DE=-8.45D-07 OVMax= 4.16D-04

 Cycle  11  Pass 1  IDiag  1:
 RMSU=  7.48D-06    CP:  6.32D-01  1.97D+00  2.00D+00  7.05D-01  8.06D-01
                    CP:  6.85D-01  1.07D+00  1.62D+00  1.17D+00  1.36D+00
 E= -3010.53190492690     Delta-E=       -0.000000212479 Rises=F Damp=F
 DIIS: error= 6.47D-06 at cycle  11 NSaved=  11.
 NSaved=11 IEnMin=11 EnMin= -3010.53190492690     IErMin=11 ErrMin= 6.47D-06
 ErrMax= 6.47D-06  0.00D+00 EMaxC= 1.00D-01 BMatC= 7.61D-09 BMatP= 6.47D-08
 IDIUse=1 WtCom= 1.00D+00 WtEn= 0.00D+00
 Coeff-Com: -0.353D-03 0.473D-03 0.395D-04 0.865D-03 0.194D-02 0.425D-02
 Coeff-Com:  0.147D-01-0.201D-01-0.177D+00-0.179D+00 0.135D+01
 Coeff:     -0.353D-03 0.473D-03 0.395D-04 0.865D-03 0.194D-02 0.425D-02
 Coeff:      0.147D-01-0.201D-01-0.177D+00-0.179D+00 0.135D+01
 Gap=     0.245 Goal=   None    Shift=    0.000
 RMSDP=1.45D-05 MaxDP=1.41D-03 DE=-2.12D-07 OVMax= 3.17D-04

 Cycle  12  Pass 1  IDiag  1:
 RMSU=  1.65D-06    CP:  6.31D-01  1.97D+00  2.00D+00  7.04D-01  8.07D-01
                    CP:  6.79D-01  1.07D+00  1.72D+00  1.19D+00  1.78D+00
                    CP:  1.70D+00
 E= -3010.53190499470     Delta-E=       -0.000000067795 Rises=F Damp=F
 DIIS: error= 3.33D-06 at cycle  12 NSaved=  12.
 NSaved=12 IEnMin=12 EnMin= -3010.53190499470     IErMin=12 ErrMin= 3.33D-06
 ErrMax= 3.33D-06  0.00D+00 EMaxC= 1.00D-01 BMatC= 2.16D-09 BMatP= 7.61D-09
 IDIUse=1 WtCom= 1.00D+00 WtEn= 0.00D+00
 Coeff-Com: -0.204D-03 0.269D-03-0.371D-04 0.379D-03 0.327D-03 0.967D-03
 Coeff-Com:  0.127D-01 0.583D-02-0.108D+00-0.239D+00 0.585D+00 0.741D+00
 Coeff:     -0.204D-03 0.269D-03-0.371D-04 0.379D-03 0.327D-03 0.967D-03
 Coeff:      0.127D-01 0.583D-02-0.108D+00-0.239D+00 0.585D+00 0.741D+00
 Gap=     0.245 Goal=   None    Shift=    0.000
 RMSDP=2.40D-06 MaxDP=2.12D-04 DE=-6.78D-08 OVMax= 1.02D-04

 Cycle  13  Pass 1  IDiag  1:
 RMSU=  8.80D-07    CP:  6.31D-01  1.97D+00  2.00D+00  7.04D-01  8.07D-01
                    CP:  6.78D-01  1.06D+00  1.73D+00  1.20D+00  1.85D+00
                    CP:  1.88D+00  1.20D+00
 E= -3010.53190500363     Delta-E=       -0.000000008932 Rises=F Damp=F
 DIIS: error= 1.61D-06 at cycle  13 NSaved=  13.
 NSaved=13 IEnMin=13 EnMin= -3010.53190500363     IErMin=13 ErrMin= 1.61D-06
 ErrMax= 1.61D-06  0.00D+00 EMaxC= 1.00D-01 BMatC= 3.72D-10 BMatP= 2.16D-09
 IDIUse=1 WtCom= 1.00D+00 WtEn= 0.00D+00
 Coeff-Com:  0.116D-04-0.155D-04-0.217D-04-0.124D-03-0.470D-03-0.103D-02
 Coeff-Com: -0.233D-02 0.389D-02 0.347D-01 0.136D-01-0.251D+00 0.144D+00
 Coeff-Com:  0.106D+01
 Coeff:      0.116D-04-0.155D-04-0.217D-04-0.124D-03-0.470D-03-0.103D-02
 Coeff:     -0.233D-02 0.389D-02 0.347D-01 0.136D-01-0.251D+00 0.144D+00
 Coeff:      0.106D+01
 Gap=     0.245 Goal=   None    Shift=    0.000
 RMSDP=8.98D-07 MaxDP=4.62D-05 DE=-8.93D-09 OVMax= 4.53D-05

 Cycle  14  Pass 1  IDiag  1:
 RMSU=  3.26D-07    CP:  6.31D-01  1.97D+00  2.00D+00  7.04D-01  8.07D-01
                    CP:  6.78D-01  1.06D+00  1.73D+00  1.20D+00  1.88D+00
                    CP:  1.93D+00  1.45D+00  1.54D+00
 E= -3010.53190500549     Delta-E=       -0.000000001859 Rises=F Damp=F
 DIIS: error= 5.34D-07 at cycle  14 NSaved=  14.
 NSaved=14 IEnMin=14 EnMin= -3010.53190500549     IErMin=14 ErrMin= 5.34D-07
 ErrMax= 5.34D-07  0.00D+00 EMaxC= 1.00D-01 BMatC= 6.61D-11 BMatP= 3.72D-10
 IDIUse=1 WtCom= 1.00D+00 WtEn= 0.00D+00
 Coeff-Com:  0.134D-04-0.174D-04-0.851D-05-0.814D-04-0.175D-03-0.436D-03
 Coeff-Com: -0.247D-02 0.254D-03 0.279D-01 0.372D-01-0.181D+00-0.490D-01
 Coeff-Com:  0.395D+00 0.773D+00
 Coeff:      0.134D-04-0.174D-04-0.851D-05-0.814D-04-0.175D-03-0.436D-03
 Coeff:     -0.247D-02 0.254D-03 0.279D-01 0.372D-01-0.181D+00-0.490D-01
 Coeff:      0.395D+00 0.773D+00
 Gap=     0.245 Goal=   None    Shift=    0.000
 RMSDP=4.12D-07 MaxDP=4.27D-05 DE=-1.86D-09 OVMax= 1.44D-05

 Cycle  15  Pass 1  IDiag  1:
 RMSU=  1.37D-07    CP:  6.31D-01  1.97D+00  2.00D+00  7.04D-01  8.07D-01
                    CP:  6.78D-01  1.06D+00  1.73D+00  1.20D+00  1.88D+00
                    CP:  1.94D+00  1.52D+00  1.74D+00  1.27D+00
 E= -3010.53190500572     Delta-E=       -0.000000000233 Rises=F Damp=F
 DIIS: error= 2.75D-07 at cycle  15 NSaved=  15.
 NSaved=15 IEnMin=15 EnMin= -3010.53190500572     IErMin=15 ErrMin= 2.75D-07
 ErrMax= 2.75D-07  0.00D+00 EMaxC= 1.00D-01 BMatC= 1.16D-11 BMatP= 6.61D-11
 IDIUse=1 WtCom= 1.00D+00 WtEn= 0.00D+00
 Coeff-Com:  0.630D-05-0.836D-05 0.323D-05 0.234D-05 0.640D-04 0.120D-03
 Coeff-Com: -0.635D-04-0.660D-03-0.368D-03 0.642D-02 0.729D-02-0.448D-01
 Coeff-Com: -0.136D+00 0.226D+00 0.942D+00
 Coeff:      0.630D-05-0.836D-05 0.323D-05 0.234D-05 0.640D-04 0.120D-03
 Coeff:     -0.635D-04-0.660D-03-0.368D-03 0.642D-02 0.729D-02-0.448D-01
 Coeff:     -0.136D+00 0.226D+00 0.942D+00
 Gap=     0.245 Goal=   None    Shift=    0.000
 RMSDP=1.67D-07 MaxDP=7.57D-06 DE=-2.33D-10 OVMax= 6.20D-06

 Cycle  16  Pass 1  IDiag  1:
 RMSU=  6.36D-08    CP:  6.31D-01  1.97D+00  2.00D+00  7.04D-01  8.07D-01
                    CP:  6.78D-01  1.06D+00  1.73D+00  1.19D+00  1.88D+00
                    CP:  1.94D+00  1.54D+00  1.81D+00  1.46D+00  1.46D+00
 E= -3010.53190500578     Delta-E=       -0.000000000060 Rises=F Damp=F
 DIIS: error= 6.91D-08 at cycle  16 NSaved=  16.
 NSaved=16 IEnMin=16 EnMin= -3010.53190500578     IErMin=16 ErrMin= 6.91D-08
 ErrMax= 6.91D-08  0.00D+00 EMaxC= 1.00D-01 BMatC= 9.26D-13 BMatP= 1.16D-11
 IDIUse=1 WtCom= 1.00D+00 WtEn= 0.00D+00
 Coeff-Com: -0.120D-06 0.138D-06 0.151D-05 0.885D-05 0.288D-04 0.580D-04
 Coeff-Com:  0.209D-03-0.199D-03-0.290D-02-0.202D-02 0.185D-01-0.305D-02
 Coeff-Com: -0.555D-01-0.579D-01 0.117D+00 0.986D+00
 Coeff:     -0.120D-06 0.138D-06 0.151D-05 0.885D-05 0.288D-04 0.580D-04
 Coeff:      0.209D-03-0.199D-03-0.290D-02-0.202D-02 0.185D-01-0.305D-02
 Coeff:     -0.555D-01-0.579D-01 0.117D+00 0.986D+00
 Gap=     0.245 Goal=   None    Shift=    0.000
 RMSDP=6.78D-08 MaxDP=5.28D-06 DE=-6.00D-11 OVMax= 1.62D-06

 Cycle  17  Pass 1  IDiag  1:
 RMSU=  2.16D-08    CP:  6.31D-01  1.97D+00  2.00D+00  7.04D-01  8.07D-01
                    CP:  6.78D-01  1.06D+00  1.73D+00  1.19D+00  1.88D+00
                    CP:  1.94D+00  1.55D+00  1.83D+00  1.51D+00  1.74D+00
                    CP:  1.21D+00
 E= -3010.53190500579     Delta-E=       -0.000000000004 Rises=F Damp=F
 DIIS: error= 2.67D-08 at cycle  17 NSaved=  17.
 NSaved=17 IEnMin=17 EnMin= -3010.53190500579     IErMin=17 ErrMin= 2.67D-08
 ErrMax= 2.67D-08  0.00D+00 EMaxC= 1.00D-01 BMatC= 1.96D-13 BMatP= 9.26D-13
 IDIUse=1 WtCom= 1.00D+00 WtEn= 0.00D+00
 Coeff-Com: -0.168D-05 0.224D-05-0.223D-06 0.262D-05 0.100D-05-0.106D-06
 Coeff-Com:  0.487D-04 0.756D-04-0.593D-03-0.106D-02 0.345D-02 0.468D-02
 Coeff-Com:  0.708D-02-0.475D-01-0.997D-01 0.225D+00 0.908D+00
 Coeff:     -0.168D-05 0.224D-05-0.223D-06 0.262D-05 0.100D-05-0.106D-06
 Coeff:      0.487D-04 0.756D-04-0.593D-03-0.106D-02 0.345D-02 0.468D-02
 Coeff:      0.708D-02-0.475D-01-0.997D-01 0.225D+00 0.908D+00
 Gap=     0.245 Goal=   None    Shift=    0.000
 RMSDP=4.72D-08 MaxDP=4.33D-06 DE=-3.64D-12 OVMax= 6.16D-07

 Cycle  18  Pass 1  IDiag  1:
 RMSU=  7.49D-09    CP:  6.31D-01  1.97D+00  2.00D+00  7.04D-01  8.07D-01
                    CP:  6.78D-01  1.06D+00  1.73D+00  1.19D+00  1.88D+00
                    CP:  1.94D+00  1.55D+00  1.83D+00  1.50D+00  1.83D+00
                    CP:  1.45D+00  1.14D+00
 E= -3010.53190500584     Delta-E=       -0.000000000055 Rises=F Damp=F
 DIIS: error= 1.59D-08 at cycle  18 NSaved=  18.
 NSaved=18 IEnMin=18 EnMin= -3010.53190500584     IErMin=18 ErrMin= 1.59D-08
 ErrMax= 1.59D-08  0.00D+00 EMaxC= 1.00D-01 BMatC= 4.64D-14 BMatP= 1.96D-13
 IDIUse=1 WtCom= 1.00D+00 WtEn= 0.00D+00
 Coeff-Com: -0.149D-06 0.200D-06-0.291D-06-0.131D-05-0.686D-05-0.153D-04
 Coeff-Com: -0.301D-04 0.892D-04 0.319D-03-0.129D-03-0.262D-02 0.221D-02
 Coeff-Com:  0.151D-01-0.778D-02-0.594D-01-0.101D+00 0.350D+00 0.803D+00
 Coeff:     -0.149D-06 0.200D-06-0.291D-06-0.131D-05-0.686D-05-0.153D-04
 Coeff:     -0.301D-04 0.892D-04 0.319D-03-0.129D-03-0.262D-02 0.221D-02
 Coeff:      0.151D-01-0.778D-02-0.594D-01-0.101D+00 0.350D+00 0.803D+00
 Gap=     0.245 Goal=   None    Shift=    0.000
 RMSDP=3.18D-08 MaxDP=3.32D-06 DE=-5.46D-11 OVMax= 2.47D-07

 Cycle  19  Pass 1  IDiag  1:
 RMSU=  2.62D-09    CP:  6.31D-01  1.97D+00  2.00D+00  7.04D-01  8.07D-01
                    CP:  6.78D-01  1.06D+00  1.73D+00  1.19D+00  1.88D+00
                    CP:  1.94D+00  1.55D+00  1.82D+00  1.49D+00  1.87D+00
                    CP:  1.51D+00  1.33D+00  1.22D+00
 E= -3010.53190500583     Delta-E=        0.000000000009 Rises=F Damp=F
 DIIS: error= 9.17D-09 at cycle  19 NSaved=  19.
 NSaved=19 IEnMin=18 EnMin= -3010.53190500584     IErMin=19 ErrMin= 9.17D-09
 ErrMax= 9.17D-09  0.00D+00 EMaxC= 1.00D-01 BMatC= 4.58D-15 BMatP= 4.64D-14
 IDIUse=1 WtCom= 1.00D+00 WtEn= 0.00D+00
 Large coefficients: NSaved= 19 BigCof=    0.00 CofMax=   10.00 Det=-8.64D-15
 Inversion failed.  Reducing to 18 matrices.
 Large coefficients: NSaved= 18 BigCof=    0.00 CofMax=   10.00 Det=-1.52D-14
 Inversion failed.  Reducing to 17 matrices.
 Coeff-Com: -0.263D-07-0.873D-07 0.221D-06 0.161D-06-0.623D-05-0.599D-05
 Coeff-Com:  0.769D-04 0.135D-03-0.394D-03-0.466D-03 0.773D-04 0.460D-02
 Coeff-Com:  0.919D-02-0.355D-01-0.103D+00 0.265D-01 0.110D+01
 Coeff:     -0.263D-07-0.873D-07 0.221D-06 0.161D-06-0.623D-05-0.599D-05
 Coeff:      0.769D-04 0.135D-03-0.394D-03-0.466D-03 0.773D-04 0.460D-02
 Coeff:      0.919D-02-0.355D-01-0.103D+00 0.265D-01 0.110D+01
 Gap=     0.245 Goal=   None    Shift=    0.000
 RMSDP=6.57D-09 MaxDP=6.02D-07 DE= 8.64D-12 OVMax= 1.84D-07

 SCF Done:  E(RwB97XD) =  -3010.53190501     A.U. after   19 cycles
            NFock= 19  Conv=0.66D-08     -V/T= 2.0016
 KE= 3.005851572803D+03 PE=-8.699517982512D+03 EE= 1.910247942386D+03
 Leave Link  502 at Thu May  2 14:18:25 2024, MaxMem=   134217728 cpu:            1187.3 elap:            1188.8
 (Enter /software/gaussian/g16-c01/sse4/g16/l601.exe)
 Copying SCF densities to generalized density rwf, IOpCl= 0 IROHF=0.

 **********************************************************************

            Population analysis using the SCF Density.

 **********************************************************************

 Alpha  occ. eigenvalues -- -483.31026 -62.86047 -56.65742 -56.65171 -56.65160
 Alpha  occ. eigenvalues --  -19.46173 -19.46158 -14.85595 -10.59121 -10.57913
 Alpha  occ. eigenvalues --  -10.57193 -10.56856 -10.53281 -10.52644  -9.01851
 Alpha  occ. eigenvalues --   -6.84536  -6.82660  -6.82627  -2.94439  -2.93946
 Alpha  occ. eigenvalues --   -2.93919  -2.92418  -2.92417  -1.49857  -1.32817
 Alpha  occ. eigenvalues --   -1.22324  -1.12754  -1.12334  -1.04656  -1.00204
 Alpha  occ. eigenvalues --   -0.95242  -0.90476  -0.84869  -0.80823  -0.80057
 Alpha  occ. eigenvalues --   -0.79984  -0.77816  -0.76127  -0.75486  -0.71867
 Alpha  occ. eigenvalues --   -0.68428  -0.67469  -0.63232  -0.59707  -0.57344
 Alpha  occ. eigenvalues --   -0.56674  -0.56057  -0.55861  -0.54455
 Alpha virt. eigenvalues --   -0.29973  -0.20301  -0.15519  -0.12966  -0.08473
 Alpha virt. eigenvalues --   -0.06024  -0.05447  -0.04559  -0.04231  -0.03135
 Alpha virt. eigenvalues --   -0.02281  -0.01364  -0.01260  -0.00500   0.00642
 Alpha virt. eigenvalues --    0.01079   0.01681   0.01899   0.02742   0.03545
 Alpha virt. eigenvalues --    0.04410   0.05530   0.05814   0.06134   0.06927
 Alpha virt. eigenvalues --    0.07600   0.07730   0.08228   0.09377   0.09675
 Alpha virt. eigenvalues --    0.10135   0.10803   0.11740   0.11989   0.12698
 Alpha virt. eigenvalues --    0.13073   0.13392   0.13706   0.14818   0.15731
 Alpha virt. eigenvalues --    0.16718   0.17275   0.17554   0.18821   0.19052
 Alpha virt. eigenvalues --    0.20183   0.20878   0.21620   0.22483   0.24215
 Alpha virt. eigenvalues --    0.24719   0.26603   0.28089   0.29584   0.32179
 Alpha virt. eigenvalues --    0.32719   0.33553   0.33625   0.34492   0.36659
 Alpha virt. eigenvalues --    0.37418   0.37861   0.39682   0.40811   0.42038
 Alpha virt. eigenvalues --    0.43462   0.44240   0.45548   0.47065   0.47500
 Alpha virt. eigenvalues --    0.48716   0.50582   0.51034   0.52427   0.53724
 Alpha virt. eigenvalues --    0.55263   0.56110   0.58220   0.58329   0.60349
 Alpha virt. eigenvalues --    0.61299   0.62448   0.64686   0.67751   0.68350
 Alpha virt. eigenvalues --    0.71489   0.71759   0.72983   0.74518   0.74808
 Alpha virt. eigenvalues --    0.74995   0.77459   0.79768   0.83446   0.85752
 Alpha virt. eigenvalues --    0.87221   0.87777   0.91630   0.94353   0.98869
 Alpha virt. eigenvalues --    1.00485   1.02704   1.04037   1.05813   1.07087
 Alpha virt. eigenvalues --    1.08935   1.12698   1.13462   1.14173   1.18030
 Alpha virt. eigenvalues --    1.21125   1.22968   1.28275   1.33636   1.36475
 Alpha virt. eigenvalues --    1.37104   1.39177   1.43377   1.55112   1.56871
 Alpha virt. eigenvalues --    1.57464   1.60014   1.61409   1.64129   1.65989
 Alpha virt. eigenvalues --    1.68277   1.71653   1.74106   1.75464   1.79665
 Alpha virt. eigenvalues --    1.84142   1.85551   1.87471   1.95142   1.96433
 Alpha virt. eigenvalues --    1.98048   2.02696   2.03168   2.07447   2.09160
 Alpha virt. eigenvalues --    2.13075   2.14857   2.22521   2.23842   2.27584
 Alpha virt. eigenvalues --    2.33720   2.40056   2.41687   2.44539   2.53475
 Alpha virt. eigenvalues --    2.58275   2.63361   2.66168   2.68947   2.71784
 Alpha virt. eigenvalues --    2.73819   2.76477   2.77606   2.80737   2.82253
 Alpha virt. eigenvalues --    2.93437   2.98312   3.01553   3.06026   3.09194
 Alpha virt. eigenvalues --    3.15058   3.16558   3.17757   3.22605   3.26658
 Alpha virt. eigenvalues --    3.27984   3.38078   3.46820   3.50331   3.54808
 Alpha virt. eigenvalues --    3.57763   3.68968   3.74295   3.83869   3.87577
 Alpha virt. eigenvalues --    4.10222   4.11080   4.19631   4.23765   4.43451
 Alpha virt. eigenvalues --    4.45318   4.54862   4.59960   4.93621   4.96446
 Alpha virt. eigenvalues --    5.05316   5.09785   5.62073   6.15216   6.68241
 Alpha virt. eigenvalues --    7.49100   7.51421   7.61522  23.22385  23.61514
 Alpha virt. eigenvalues --   23.72110  23.78240  23.95903  24.02338  35.31568
 Alpha virt. eigenvalues --   47.94308  49.85294  49.93956 289.81947 289.84286
 Alpha virt. eigenvalues --  289.969051020.95486
          Condensed to atoms (all electrons):
               1          2          3          4          5          6
     1  C    7.807554  -2.509430   0.805358  -0.054180   0.297588   0.057682
     2  C   -2.509430  17.203952  -4.032625   0.431921  -0.014853   0.190916
     3  C    0.805358  -4.032625  18.842702  -1.332345   0.023938   0.118189
     4  C   -0.054180   0.431921  -1.332345   6.404386   0.021920  -0.015457
     5  H    0.297588  -0.014853   0.023938   0.021920   0.331433  -0.001665
     6  H    0.057682   0.190916   0.118189  -0.015457  -0.001665   0.312116
     7  H    0.027140  -0.026888   0.021649   0.305608  -0.002781  -0.000004
     8  N   -0.097130  -0.014284  -1.727632   0.019784  -0.000438  -0.029903
     9  O   -0.017201   0.265451  -0.078551  -0.016487  -0.000033  -0.002472
    10  O    0.271284  -0.194845  -0.244073  -0.022328   0.000006   0.021311
    11  C    0.750399  -0.622731   2.375823  -0.288721  -0.024917   0.008851
    12  H   -0.011204   0.017660   0.008396   0.017588   0.000018  -0.000017
    13  C   -1.221516  -4.685282  -8.510205   0.856144   0.024463  -0.009282
    14  H   -0.003617   0.012086   0.025562   0.003613  -0.000031   0.000044
    15  Br   0.006782  -0.204285  -0.221397   0.001830  -0.000030  -0.000551
               7          8          9         10         11         12
     1  C    0.027140  -0.097130  -0.017201   0.271284   0.750399  -0.011204
     2  C   -0.026888  -0.014284   0.265451  -0.194845  -0.622731   0.017660
     3  C    0.021649  -1.727632  -0.078551  -0.244073   2.375823   0.008396
     4  C    0.305608   0.019784  -0.016487  -0.022328  -0.288721   0.017588
     5  H   -0.002781  -0.000438  -0.000033   0.000006  -0.024917   0.000018
     6  H   -0.000004  -0.029903  -0.002472   0.021311   0.008851  -0.000017
     7  H    0.338319   0.000006   0.000004   0.000001   0.030874  -0.002334
     8  N    0.000006   7.637695   0.055198   0.196918  -0.316691   0.000494
     9  O    0.000004   0.055198   7.891149   0.004180   0.265908   0.000105
    10  O    0.000001   0.196918   0.004180   7.816626   0.004753  -0.000023
    11  C    0.030874  -0.316691   0.265908   0.004753   7.933823   0.313334
    12  H   -0.002334   0.000494   0.000105  -0.000023   0.313334   0.322110
    13  C   -0.021767   1.381532  -0.410925   0.073980  -4.301080  -0.017280
    14  H   -0.000031  -0.030241   0.012437  -0.001738   0.016264  -0.004685
    15  Br  -0.000418   0.164738  -0.057119   0.004138   0.056848  -0.000820
              13         14         15
     1  C   -1.221516  -0.003617   0.006782
     2  C   -4.685282   0.012086  -0.204285
     3  C   -8.510205   0.025562  -0.221397
     4  C    0.856144   0.003613   0.001830
     5  H    0.024463  -0.000031  -0.000030
     6  H   -0.009282   0.000044  -0.000551
     7  H   -0.021767  -0.000031  -0.000418
     8  N    1.381532  -0.030241   0.164738
     9  O   -0.410925   0.012437  -0.057119
    10  O    0.073980  -0.001738   0.004138
    11  C   -4.301080   0.016264   0.056848
    12  H   -0.017280  -0.004685  -0.000820
    13  C   22.517151   0.276056   0.406462
    14  H    0.276056   0.323625  -0.040575
    15  Br   0.406462  -0.040575  34.701121
 Mulliken charges:
               1
     1  C   -0.109510
     2  C    0.183237
     3  C   -0.074791
     4  C   -0.333275
     5  H    0.345383
     6  H    0.350243
     7  H    0.330620
     8  N   -0.240046
     9  O    0.088357
    10  O    0.069810
    11  C   -0.202738
    12  H    0.356656
    13  C   -0.358451
    14  H    0.411230
    15  Br   0.183274
 Sum of Mulliken charges =   1.00000
 Mulliken charges with hydrogens summed into heavy atoms:
               1
     1  C    0.235873
     2  C    0.533480
     3  C   -0.074791
     4  C   -0.002655
     8  N   -0.240046
     9  O    0.088357
    10  O    0.069810
    11  C    0.153919
    13  C    0.052779
    15  Br   0.183274
 Electronic spatial extent (au):  <R**2>=           3946.1242
 Charge=              1.0000 electrons
 Dipole moment (field-independent basis, Debye):
    X=              2.7820    Y=             -0.9055    Z=             -0.7509  Tot=              3.0205
 Quadrupole moment (field-independent basis, Debye-Ang):
   XX=            -67.8518   YY=            -51.1404   ZZ=            -62.1636
   XY=             -2.9703   XZ=             -2.5613   YZ=              2.4582
 Traceless Quadrupole moment (field-independent basis, Debye-Ang):
   XX=             -7.4665   YY=              9.2449   ZZ=             -1.7784
   XY=             -2.9703   XZ=             -2.5613   YZ=              2.4582
 Octapole moment (field-independent basis, Debye-Ang**2):
  XXX=           -513.1722  YYY=             92.0555  ZZZ=             82.8706  XYY=           -136.5105
  XXY=             24.3767  XXZ=             25.4301  XZZ=           -132.4757  YZZ=             17.0951
  YYZ=             25.6396  XYZ=              7.9920
 Hexadecapole moment (field-independent basis, Debye-Ang**3):
 XXXX=          -3449.6858 YYYY=           -701.8988 ZZZZ=           -395.1293 XXXY=            179.1289
 XXXZ=            183.3844 YYYX=            185.0900 YYYZ=           -171.8884 ZZZX=            167.3582
 ZZZY=           -144.2534 XXYY=           -623.8969 XXZZ=           -525.9953 YYZZ=           -171.3156
 XXYZ=            -41.0947 YYXZ=             49.3255 ZZXY=             28.7851
 N-N= 7.728865623173D+02 E-N=-8.699517982082D+03  KE= 3.005851572803D+03
 No NMR shielding tensors so no spin-rotation constants.
 Leave Link  601 at Thu May  2 14:18:33 2024, MaxMem=   134217728 cpu:               7.5 elap:               7.5
 (Enter /software/gaussian/g16-c01/sse4/g16/l9999.exe)
 Unable to Open any file for archive entry.
 1\1\GINC-BHX0006\SP\RwB97XD\6-311+G(d)\C6H5Br1N1O2(1+)\BWEIGHT\02-May-
 2024\0\\#P wB97XD/6-311+G* NoSymm #P Field=X+0\\TitleMe\\1,1\C,0,0.519
 3,1.233,-0.0319\C,0,1.9445,1.2692,-0.0367\C,0,2.6204,0.0928,-0.025\C,0
 ,-0.196,0.0301,0.001\H,0,-0.0207,2.1742,-0.0434\H,0,2.4828,2.2089,-0.0
 361\H,0,-1.2777,0.0399,0.0117\N,0,4.0921,0.0959,0.0366\O,0,4.6393,-1.0
 217,0.1446\O,0,4.6649,1.1984,-0.0233\C,0,0.4943,-1.1671,0.021\H,0,-0.0
 325,-2.1149,0.0545\C,0,1.9629,-1.2165,-0.0211\H,0,2.4436,-1.9631,0.615
 1\Br,0,2.173,-1.9491,-1.9062\\Version=ES64L-G16RevC.01\HF=-3010.531905
 \RMSD=6.570e-09\Dipole=-3.2346911,0.8718627,0.9538061\Quadrupole=-5.55
 11596,6.8733273,-1.3221678,-2.2083665,-1.9042368,1.8276352\PG=C01 [X(C
 6H5Br1N1O2)]\\@
 The archive entry for this job was punched.


 YOU CAN LEAD A BOY TO COLLEGE....
 BUT YOU CANNOT MAKE HIM THINK....
           ELBERT HUBBARD
 Job cpu time:       0 days  0 hours 20 minutes 59.1 seconds.
 Elapsed time:       0 days  0 hours 21 minutes  0.6 seconds.
 File lengths (MBytes):  RWF=     40 Int=      0 D2E=      0 Chk=     32 Scr=      1
 Normal termination of Gaussian 16 at Thu May  2 14:18:34 2024.
