 Entering Gaussian System, Link 0=g16
 Initial command:
 /software/gaussian/g16-c01/sse4/g16/l1.exe "/local_scratch/24657516/Gau-8472.inp" -scrdir="/local_scratch/24657516/"
 Entering Link 1 = /software/gaussian/g16-c01/sse4/g16/l1.exe PID=      8486.
  
 Copyright (c) 1988-2019, Gaussian, Inc.  All Rights Reserved.
  
 This is part of the Gaussian(R) 16 program.  It is based on
 the Gaussian(R) 09 system (copyright 2009, Gaussian, Inc.),
 the Gaussian(R) 03 system (copyright 2003, Gaussian, Inc.),
 the Gaussian(R) 98 system (copyright 1998, Gaussian, Inc.),
 the Gaussian(R) 94 system (copyright 1995, Gaussian, Inc.),
 the Gaussian 92(TM) system (copyright 1992, Gaussian, Inc.),
 the Gaussian 90(TM) system (copyright 1990, Gaussian, Inc.),
 the Gaussian 88(TM) system (copyright 1988, Gaussian, Inc.),
 the Gaussian 86(TM) system (copyright 1986, Carnegie Mellon
 University), and the Gaussian 82(TM) system (copyright 1983,
 Carnegie Mellon University). Gaussian is a federally registered
 trademark of Gaussian, Inc.
  
 This software contains proprietary and confidential information,
 including trade secrets, belonging to Gaussian, Inc.
  
 This software is provided under written license and may be
 used, copied, transmitted, or stored only in accord with that
 written license.
  
 The following legend is applicable only to US Government
 contracts under FAR:
  
                    RESTRICTED RIGHTS LEGEND
  
 Use, reproduction and disclosure by the US Government is
 subject to restrictions as set forth in subparagraphs (a)
 and (c) of the Commercial Computer Software - Restricted
 Rights clause in FAR 52.227-19.
  
 Gaussian, Inc.
 340 Quinnipiac St., Bldg. 40, Wallingford CT 06492
  
  
 ---------------------------------------------------------------
 Warning -- This program may not be used in any manner that
 competes with the business of Gaussian, Inc. or will provide
 assistance to any competitor of Gaussian, Inc.  The licensee
 of this program is prohibited from giving any competitor of
 Gaussian, Inc. access to this program.  By using this program,
 the user acknowledges that Gaussian, Inc. is engaged in the
 business of creating and licensing software in the field of
 computational chemistry and represents and warrants to the
 licensee that it is not a competitor of Gaussian, Inc. and that
 it will not use this program in any manner prohibited above.
 ---------------------------------------------------------------
  

 Cite this work as:
 Gaussian 16, Revision C.01,
 M. J. Frisch, G. W. Trucks, H. B. Schlegel, G. E. Scuseria, 
 M. A. Robb, J. R. Cheeseman, G. Scalmani, V. Barone, 
 G. A. Petersson, H. Nakatsuji, X. Li, M. Caricato, A. V. Marenich, 
 J. Bloino, B. G. Janesko, R. Gomperts, B. Mennucci, H. P. Hratchian, 
 J. V. Ortiz, A. F. Izmaylov, J. L. Sonnenberg, D. Williams-Young, 
 F. Ding, F. Lipparini, F. Egidi, J. Goings, B. Peng, A. Petrone, 
 T. Henderson, D. Ranasinghe, V. G. Zakrzewski, J. Gao, N. Rega, 
 G. Zheng, W. Liang, M. Hada, M. Ehara, K. Toyota, R. Fukuda, 
 J. Hasegawa, M. Ishida, T. Nakajima, Y. Honda, O. Kitao, H. Nakai, 
 T. Vreven, K. Throssell, J. A. Montgomery, Jr., J. E. Peralta, 
 F. Ogliaro, M. J. Bearpark, J. J. Heyd, E. N. Brothers, K. N. Kudin, 
 V. N. Staroverov, T. A. Keith, R. Kobayashi, J. Normand, 
 K. Raghavachari, A. P. Rendell, J. C. Burant, S. S. Iyengar, 
 J. Tomasi, M. Cossi, J. M. Millam, M. Klene, C. Adamo, R. Cammi, 
 J. W. Ochterski, R. L. Martin, K. Morokuma, O. Farkas, 
 J. B. Foresman, and D. J. Fox, Gaussian, Inc., Wallingford CT, 2019.
 
 ******************************************
 Gaussian 16:  ES64L-G16RevC.01  3-Jul-2019
                 1-May-2024 
 ******************************************
 %chk=geometry.chk
 %mem=9GB
 %nprocshared=12
 Will use up to   12 processors via shared memory.
 ----------------------------------------
 #P wB97XD/6-311+G* NoSymm #P Field=Y+145
 ----------------------------------------
 1/38=1,172=1/1;
 2/12=2,15=1,17=6,18=5,40=1/2;
 3/5=4,6=6,7=11,11=2,14=2,15=145,25=1,30=1,74=-58/1,2,3;
 4//1;
 5/5=2,38=5/2;
 6/7=2,8=2,9=2,10=2,28=1/1;
 99/5=1,9=1/99;
 Leave Link    1 at Wed May  1 14:49:55 2024, MaxMem=  1207959552 cpu:               2.6 elap:               2.6
 (Enter /software/gaussian/g16-c01/sse4/g16/l101.exe)
 -------
 TitleMe
 -------
 Symbolic Z-matrix:
 Charge =  1 Multiplicity = 1
 C                     0.0295    1.3397    0.0682 
 C                     1.4348    1.2867    0.0064 
 C                     2.1118    0.0511   -0.0054 
 C                     1.4451   -1.1372    0.0312 
 C                    -0.6879    0.1682    0.11 
 H                    -0.4713    2.2984    0.0781 
 H                     2.0273    2.1965   -0.0322 
 H                     1.9897   -2.0764    0.0232 
 H                    -1.7716    0.1804    0.1582 
 N                     3.5864    0.051    -0.0675 
 O                     4.1471   -1.0597   -0.0881 
 O                     4.145     1.1639   -0.0901 
 C                    -0.0236   -1.1458    0.0835 
 H                    -0.4367   -1.8725    0.7889 
 Br                   -0.5359   -1.8697   -1.7408 
 
 ITRead=  0  0  0  0  0  0  0  0  0  0  0  0  0  0  0
 MicOpt= -1 -1 -1 -1 -1 -1 -1 -1 -1 -1 -1 -1 -1 -1 -1
 NAtoms=     15 NQM=       15 NQMF=       0 NMMI=      0 NMMIF=      0
                NMic=       0 NMicF=      0.
                    Isotopes and Nuclear Properties:
 (Nuclear quadrupole moments (NQMom) in fm**2, nuclear magnetic moments (NMagM)
  in nuclear magnetons)

  Atom         1           2           3           4           5           6           7           8           9          10
 IAtWgt=          12          12          12          12          12           1           1           1           1          14
 AtmWgt=  12.0000000  12.0000000  12.0000000  12.0000000  12.0000000   1.0078250   1.0078250   1.0078250   1.0078250  14.0030740
 NucSpn=           0           0           0           0           0           1           1           1           1           2
 AtZEff=  -0.0000000  -0.0000000  -0.0000000  -0.0000000  -0.0000000  -0.0000000  -0.0000000  -0.0000000  -0.0000000  -0.0000000
 NQMom=    0.0000000   0.0000000   0.0000000   0.0000000   0.0000000   0.0000000   0.0000000   0.0000000   0.0000000   2.0440000
 NMagM=    0.0000000   0.0000000   0.0000000   0.0000000   0.0000000   2.7928460   2.7928460   2.7928460   2.7928460   0.4037610
 AtZNuc=   6.0000000   6.0000000   6.0000000   6.0000000   6.0000000   1.0000000   1.0000000   1.0000000   1.0000000   7.0000000

  Atom        11          12          13          14          15
 IAtWgt=          16          16          12           1          79
 AtmWgt=  15.9949146  15.9949146  12.0000000   1.0078250  78.9183361
 NucSpn=           0           0           0           1           3
 AtZEff=  -0.0000000  -0.0000000  -0.0000000  -0.0000000  -0.0000000
 NQMom=    0.0000000   0.0000000   0.0000000   0.0000000  31.3000000
 NMagM=    0.0000000   0.0000000   0.0000000   2.7928460   2.1063990
 AtZNuc=   8.0000000   8.0000000   6.0000000   1.0000000  35.0000000
 Leave Link  101 at Wed May  1 14:49:57 2024, MaxMem=  1207959552 cpu:               1.4 elap:               1.5
 (Enter /software/gaussian/g16-c01/sse4/g16/l202.exe)
                          Input orientation:                          
 ---------------------------------------------------------------------
 Center     Atomic      Atomic             Coordinates (Angstroms)
 Number     Number       Type             X           Y           Z
 ---------------------------------------------------------------------
      1          6           0        0.029500    1.339700    0.068200
      2          6           0        1.434800    1.286700    0.006400
      3          6           0        2.111800    0.051100   -0.005400
      4          6           0        1.445100   -1.137200    0.031200
      5          6           0       -0.687900    0.168200    0.110000
      6          1           0       -0.471300    2.298400    0.078100
      7          1           0        2.027300    2.196500   -0.032200
      8          1           0        1.989700   -2.076400    0.023200
      9          1           0       -1.771600    0.180400    0.158200
     10          7           0        3.586400    0.051000   -0.067500
     11          8           0        4.147100   -1.059700   -0.088100
     12          8           0        4.145000    1.163900   -0.090100
     13          6           0       -0.023600   -1.145800    0.083500
     14          1           0       -0.436700   -1.872500    0.788900
     15         35           0       -0.535900   -1.869700   -1.740800
 ---------------------------------------------------------------------
                    Distance matrix (angstroms):
                    1          2          3          4          5
     1  C    0.000000
     2  C    1.407656   0.000000
     3  C    2.449874   1.408963   0.000000
     4  C    2.853126   2.424049   1.363043   0.000000
     5  C    1.374344   2.401589   2.804523   2.501993   0.000000
     6  H    1.081667   2.159142   3.424870   3.934226   2.141421
     7  H    2.176095   1.086408   2.147231   3.384750   3.392128
     8  H    3.938800   3.408612   2.131193   1.085702   3.495040
     9  H    2.143837   3.395283   3.888995   3.478413   1.084840
    10  N    3.785591   2.482297   1.475907   2.450862   4.279589
    11  O    4.768247   3.587631   2.320164   2.705743   4.992415
    12  O    4.122294   2.714696   2.319353   3.549540   4.938459
    13  C    2.486114   2.837240   2.449573   1.469656   1.472614
    14  H    3.324903   3.754379   3.290289   2.157764   2.165286
    15  Br   3.727252   4.110867   3.702891   2.756973   2.757100
                    6          7          8          9         10
     6  H    0.000000
     7  H    2.503108   0.000000
     8  H    5.019802   4.273425   0.000000
     9  H    2.486588   4.304945   4.388479   0.000000
    10  N    4.640790   2.652397   2.661486   5.364313   0.000000
    11  O    5.712624   3.885809   2.387560   6.052233   1.244373
    12  O    4.756638   2.356750   3.893289   6.002923   1.245428
    13  C    3.473180   3.923079   2.218790   2.195425   3.806210
    14  H    4.231175   4.827242   2.552506   2.528663   4.540772
    15  Br   4.548146   5.101303   3.087568   3.055498   4.845862
                   11         12         13         14         15
    11  O    0.000000
    12  O    2.223602   0.000000
    13  C    4.175117   4.768865   0.000000
    14  H    4.737193   5.566358   1.093770   0.000000
    15  Br   5.031700   5.817075   2.028436   2.531646   0.000000
 Symmetry turned off by external request.
 Stoichiometry    C6H5BrNO2(1+)
 Framework group  C1[X(C6H5BrNO2)]
 Deg. of freedom    39
 Full point group                 C1      NOp   1
 Rotational constants (GHZ):           1.8252210           0.5518633           0.4576002
 Leave Link  202 at Wed May  1 14:49:58 2024, MaxMem=  1207959552 cpu:               1.2 elap:               1.2
 (Enter /software/gaussian/g16-c01/sse4/g16/l301.exe)
 Standard basis: 6-311+G(d) (5D, 7F)
 Ernie: Thresh=  0.10000D-02 Tol=  0.10000D-05 Strict=F.
 The following finite field(s) will be applied:
 An electric field of              0.0000  0.0145  0.0000
   261 basis functions,   443 primitive gaussians,   273 cartesian basis functions
    49 alpha electrons       49 beta electrons
       nuclear repulsion energy       739.2122215416 Hartrees.
 IExCor= 4639 DFT=T Ex+Corr=wB97XD ExCW=0 ScaHFX=  1.000000
 ScaDFX=  1.000000  1.000000  1.000000  1.000000 ScalE2=  1.000000  1.000000
 IRadAn=      5 IRanWt=     -1 IRanGd=            0 ICorTp=0 IEmpDi=121
 HFx  wShort=  0.000000 wLong=  0.200000 cFull=  0.222036 cShort=  0.000000 cLong=  0.777964
 DFx  wShort=  0.000000 wLong=  0.200000 cFull=  0.000000 cShort=  0.000000 cLong=  1.000000
 NAtoms=   15 NActive=   15 NUniq=   15 SFac= 1.00D+00 NAtFMM=   60 NAOKFM=F Big=F
 Integral buffers will be    131072 words long.
 Raffenetti 2 integral format.
 Two-electron integral symmetry is turned off.
 R6Disp:  Grimme-D2 Dispersion energy=       -0.0077368520 Hartrees.
 Nuclear repulsion after empirical dispersion term =      739.2044846896 Hartrees.
 Leave Link  301 at Wed May  1 14:49:59 2024, MaxMem=  1207959552 cpu:               1.0 elap:               1.0
 (Enter /software/gaussian/g16-c01/sse4/g16/l302.exe)
 NPDir=0 NMtPBC=     1 NCelOv=     1 NCel=       1 NClECP=     1 NCelD=      1
         NCelK=      1 NCelE2=     1 NClLst=     1 CellRange=     0.0.
 One-electron integrals computed using PRISM.
 NBasis=   261 RedAO= T EigKep=  2.35D-06  NBF=   261
 NBsUse=   261 1.00D-06 EigRej= -1.00D+00 NBFU=   261
 Precomputing XC quadrature grid using
 IXCGrd= 4 IRadAn=           5 IRanWt=          -1 IRanGd=           0 AccXCQ= 0.00D+00.
 Generated NRdTot=       0 NPtTot=           0 NUsed=           0 NTot=          32
 NSgBfM=   273   273   273   273   273 MxSgAt=    15 MxSgA2=    15.
 Leave Link  302 at Wed May  1 14:50:21 2024, MaxMem=  1207959552 cpu:              21.8 elap:              21.8
 (Enter /software/gaussian/g16-c01/sse4/g16/l303.exe)
 DipDrv:  MaxL=1.
 The nuclear repulsion energy is now       737.5564141907 hartrees.
 Leave Link  303 at Wed May  1 14:50:24 2024, MaxMem=  1207959552 cpu:               3.3 elap:               3.3
 (Enter /software/gaussian/g16-c01/sse4/g16/l401.exe)
 ExpMin= 3.50D-02 ExpMax= 4.40D+05 ExpMxC= 1.51D+04 IAcc=3 IRadAn=         5 AccDes= 0.00D+00
 Harris functional with IExCor= 4639 and IRadAn=       5 diagonalized for initial guess.
 HarFok:  IExCor= 4639 AccDes= 0.00D+00 IRadAn=         5 IDoV= 1 UseB2=F ITyADJ=14
 ICtDFT=  3500011 ScaDFX=  1.000000  1.000000  1.000000  1.000000
 FoFCou: FMM=F IPFlag=           0 FMFlag=      100000 FMFlg1=           0
         NFxFlg=           0 DoJE=T BraDBF=F KetDBF=T FulRan=T
         wScrn=  0.000000 ICntrl=       500 IOpCl=  0 I1Cent=   200000004 NGrid=           0
         NMat0=    1 NMatS0=      1 NMatT0=    0 NMatD0=    1 NMtDS0=    0 NMtDT0=    0
 Symmetry not used in FoFCou.
 Harris En= -2970.63310028001    
 JPrj=0 DoOrth=F DoCkMO=F.
 Leave Link  401 at Wed May  1 14:50:55 2024, MaxMem=  1207959552 cpu:              30.4 elap:              30.4
 (Enter /software/gaussian/g16-c01/sse4/g16/l502.exe)
 Two-electron integral symmetry not used.
 Closed shell SCF:
 Using DIIS extrapolation, IDIIS=  1040.
 NGot=  1207959552 LenX=  1207804877 LenY=  1207729907
 Requested convergence on RMS density matrix=1.00D-08 within 128 cycles.
 Requested convergence on MAX density matrix=1.00D-06.
 Requested convergence on             energy=1.00D-06.
 No special actions if energy rises.
 Fock matrices will be formed incrementally for  20 cycles.

 Cycle   1  Pass 1  IDiag  1:
 FoFJK:  IHMeth= 1 ICntrl=       0 DoSepK=T KAlg= 0 I1Cent=           0 FoldK=F
 IRaf=         1 NMat=       1 IRICut=       1 DoRegI=T DoRafI=F ISym2E= 0 IDoP0=0 IntGTp=1.
 FoFCou: FMM=F IPFlag=           0 FMFlag=      100000 FMFlg1=           0
         NFxFlg=           0 DoJE=T BraDBF=F KetDBF=F FulRan=T
         wScrn=  0.000000 ICntrl=       500 IOpCl=  0 I1Cent=           0 NGrid=           0
         NMat0=    1 NMatS0=      1 NMatT0=    0 NMatD0=    1 NMtDS0=    0 NMtDT0=    0
 Symmetry not used in FoFCou.
 E= -3009.65105424165    
 DIIS: error= 3.20D-01 at cycle   1 NSaved=   1.
 NSaved= 1 IEnMin= 1 EnMin= -3009.65105424165     IErMin= 1 ErrMin= 3.20D-01
 ErrMax= 3.20D-01  0.00D+00 EMaxC= 1.00D-01 BMatC= 1.20D+01 BMatP= 1.20D+01
 IDIUse=3 WtCom= 0.00D+00 WtEn= 1.00D+00
 Coeff-Com:  0.100D+01
 Coeff-En:   0.100D+01
 Coeff:      0.100D+01
 Gap=     0.397 Goal=   None    Shift=    0.000
 GapD=    0.397 DampG=1.000 DampE=0.250 DampFc=0.2500 IDamp=-1.
 Damping current iteration by 2.50D-01
 RMSDP=1.03D-01 MaxDP=1.09D+01              OVMax= 3.25D-01

 Cycle   2  Pass 1  IDiag  1:
 RMSU=  6.95D-03    CP:  8.38D-01
 E= -3009.96501227418     Delta-E=       -0.313958032526 Rises=F Damp=T
 DIIS: error= 2.25D-01 at cycle   2 NSaved=   2.
 NSaved= 2 IEnMin= 2 EnMin= -3009.96501227418     IErMin= 2 ErrMin= 2.25D-01
 ErrMax= 2.25D-01  0.00D+00 EMaxC= 1.00D-01 BMatC= 5.46D+00 BMatP= 1.20D+01
 IDIUse=3 WtCom= 0.00D+00 WtEn= 1.00D+00
 Coeff-Com: -0.179D+01 0.279D+01
 Coeff-En:   0.000D+00 0.100D+01
 Coeff:      0.000D+00 0.100D+01
 Gap=     0.266 Goal=   None    Shift=    0.000
 RMSDP=7.74D-02 MaxDP=8.00D+00 DE=-3.14D-01 OVMax= 1.47D-01

 Cycle   3  Pass 1  IDiag  1:
 RMSU=  6.86D-03    CP:  3.50D-01  3.00D+00
 E= -3010.38140854254     Delta-E=       -0.416396268367 Rises=F Damp=F
 DIIS: error= 6.64D-02 at cycle   3 NSaved=   3.
 NSaved= 3 IEnMin= 3 EnMin= -3010.38140854254     IErMin= 3 ErrMin= 6.64D-02
 ErrMax= 6.64D-02  0.00D+00 EMaxC= 1.00D-01 BMatC= 7.65D-01 BMatP= 5.46D+00
 IDIUse=3 WtCom= 3.36D-01 WtEn= 6.64D-01
 Coeff-Com:  0.196D+01-0.252D+01 0.156D+01
 Coeff-En:   0.427D-01 0.000D+00 0.957D+00
 Coeff:      0.688D+00-0.846D+00 0.116D+01
 Gap=     0.304 Goal=   None    Shift=    0.000
 RMSDP=1.07D-02 MaxDP=6.73D-01 DE=-4.16D-01 OVMax= 1.01D-01

 Cycle   4  Pass 1  IDiag  1:
 RMSU=  7.97D-03    CP:  3.90D-01  3.00D+00  1.53D+00
 E= -3010.48124710934     Delta-E=       -0.099838566795 Rises=F Damp=F
 DIIS: error= 3.98D-02 at cycle   4 NSaved=   4.
 NSaved= 4 IEnMin= 4 EnMin= -3010.48124710934     IErMin= 4 ErrMin= 3.98D-02
 ErrMax= 3.98D-02  0.00D+00 EMaxC= 1.00D-01 BMatC= 2.74D-01 BMatP= 7.65D-01
 IDIUse=3 WtCom= 6.02D-01 WtEn= 3.98D-01
 Coeff-Com:  0.436D+00-0.564D+00 0.608D+00 0.520D+00
 Coeff-En:   0.000D+00 0.000D+00 0.256D+00 0.744D+00
 Coeff:      0.263D+00-0.340D+00 0.468D+00 0.609D+00
 Gap=     0.260 Goal=   None    Shift=    0.000
 RMSDP=7.34D-03 MaxDP=4.68D-01 DE=-9.98D-02 OVMax= 8.50D-02

 Cycle   5  Pass 1  IDiag  1:
 RMSU=  2.35D-03    CP:  3.51D-01  3.00D+00  1.63D+00  5.76D-01
 E= -3010.53925451980     Delta-E=       -0.058007410459 Rises=F Damp=F
 DIIS: error= 1.34D-02 at cycle   5 NSaved=   5.
 NSaved= 5 IEnMin= 5 EnMin= -3010.53925451980     IErMin= 5 ErrMin= 1.34D-02
 ErrMax= 1.34D-02  0.00D+00 EMaxC= 1.00D-01 BMatC= 1.82D-02 BMatP= 2.74D-01
 IDIUse=3 WtCom= 8.66D-01 WtEn= 1.34D-01
 Coeff-Com: -0.352D-01 0.525D-01 0.153D+00 0.348D+00 0.482D+00
 Coeff-En:   0.000D+00 0.000D+00 0.000D+00 0.626D-01 0.937D+00
 Coeff:     -0.305D-01 0.455D-01 0.132D+00 0.310D+00 0.543D+00
 Gap=     0.274 Goal=   None    Shift=    0.000
 RMSDP=1.65D-03 MaxDP=8.46D-02 DE=-5.80D-02 OVMax= 5.35D-02

 Cycle   6  Pass 1  IDiag  1:
 RMSU=  9.19D-04    CP:  3.49D-01  3.00D+00  1.61D+00  6.99D-01  6.29D-01
 E= -3010.54940684282     Delta-E=       -0.010152323021 Rises=F Damp=F
 DIIS: error= 3.43D-03 at cycle   6 NSaved=   6.
 NSaved= 6 IEnMin= 6 EnMin= -3010.54940684282     IErMin= 6 ErrMin= 3.43D-03
 ErrMax= 3.43D-03  0.00D+00 EMaxC= 1.00D-01 BMatC= 1.69D-03 BMatP= 1.82D-02
 IDIUse=3 WtCom= 9.66D-01 WtEn= 3.43D-02
 Coeff-Com: -0.691D-01 0.930D-01 0.377D-02 0.119D+00 0.344D+00 0.509D+00
 Coeff-En:   0.000D+00 0.000D+00 0.000D+00 0.000D+00 0.806D-01 0.919D+00
 Coeff:     -0.667D-01 0.898D-01 0.364D-02 0.115D+00 0.335D+00 0.523D+00
 Gap=     0.243 Goal=   None    Shift=    0.000
 RMSDP=5.21D-04 MaxDP=2.59D-02 DE=-1.02D-02 OVMax= 1.24D-02

 Cycle   7  Pass 1  IDiag  1:
 RMSU=  4.20D-04    CP:  3.49D-01  3.00D+00  1.63D+00  6.90D-01  7.32D-01
                    CP:  9.76D-01
 E= -3010.55055520000     Delta-E=       -0.001148357179 Rises=F Damp=F
 DIIS: error= 4.19D-04 at cycle   7 NSaved=   7.
 NSaved= 7 IEnMin= 7 EnMin= -3010.55055520000     IErMin= 7 ErrMin= 4.19D-04
 ErrMax= 4.19D-04  0.00D+00 EMaxC= 1.00D-01 BMatC= 3.10D-05 BMatP= 1.69D-03
 IDIUse=3 WtCom= 9.96D-01 WtEn= 4.19D-03
 Coeff-Com: -0.318D-01 0.423D-01-0.132D-01 0.231D-01 0.875D-01 0.190D+00
 Coeff-Com:  0.702D+00
 Coeff-En:   0.000D+00 0.000D+00 0.000D+00 0.000D+00 0.000D+00 0.000D+00
 Coeff-En:   0.100D+01
 Coeff:     -0.316D-01 0.421D-01-0.132D-01 0.230D-01 0.871D-01 0.189D+00
 Coeff:      0.703D+00
 Gap=     0.244 Goal=   None    Shift=    0.000
 RMSDP=2.98D-04 MaxDP=1.90D-02 DE=-1.15D-03 OVMax= 2.99D-03

 Cycle   8  Pass 1  IDiag  1:
 RMSU=  1.43D-04    CP:  3.47D-01  3.00D+00  1.65D+00  6.93D-01  7.67D-01
                    CP:  1.06D+00  9.22D-01
 E= -3010.55059959263     Delta-E=       -0.000044392634 Rises=F Damp=F
 DIIS: error= 1.76D-04 at cycle   8 NSaved=   8.
 NSaved= 8 IEnMin= 8 EnMin= -3010.55059959263     IErMin= 8 ErrMin= 1.76D-04
 ErrMax= 1.76D-04  0.00D+00 EMaxC= 1.00D-01 BMatC= 4.54D-06 BMatP= 3.10D-05
 IDIUse=3 WtCom= 9.98D-01 WtEn= 1.76D-03
 Coeff-Com:  0.372D-02-0.520D-02-0.426D-02-0.138D-01-0.454D-01-0.680D-01
 Coeff-Com:  0.178D+00 0.955D+00
 Coeff-En:   0.000D+00 0.000D+00 0.000D+00 0.000D+00 0.000D+00 0.000D+00
 Coeff-En:   0.000D+00 0.100D+01
 Coeff:      0.371D-02-0.519D-02-0.425D-02-0.138D-01-0.453D-01-0.678D-01
 Coeff:      0.177D+00 0.955D+00
 Gap=     0.244 Goal=   None    Shift=    0.000
 RMSDP=1.55D-04 MaxDP=9.38D-03 DE=-4.44D-05 OVMax= 2.30D-03

 Cycle   9  Pass 1  IDiag  1:
 RMSU=  3.22D-05    CP:  3.47D-01  3.00D+00  1.66D+00  7.00D-01  7.82D-01
                    CP:  1.12D+00  1.15D+00  1.34D+00
 E= -3010.55061332275     Delta-E=       -0.000013730119 Rises=F Damp=F
 DIIS: error= 5.25D-05 at cycle   9 NSaved=   9.
 NSaved= 9 IEnMin= 9 EnMin= -3010.55061332275     IErMin= 9 ErrMin= 5.25D-05
 ErrMax= 5.25D-05  0.00D+00 EMaxC= 1.00D-01 BMatC= 4.91D-07 BMatP= 4.54D-06
 IDIUse=1 WtCom= 1.00D+00 WtEn= 0.00D+00
 Coeff-Com:  0.545D-02-0.732D-02 0.574D-03-0.709D-02-0.220D-01-0.404D-01
 Coeff-Com: -0.446D-01 0.202D+00 0.913D+00
 Coeff:      0.545D-02-0.732D-02 0.574D-03-0.709D-02-0.220D-01-0.404D-01
 Coeff:     -0.446D-01 0.202D+00 0.913D+00
 Gap=     0.244 Goal=   None    Shift=    0.000
 RMSDP=5.26D-05 MaxDP=4.31D-03 DE=-1.37D-05 OVMax= 1.24D-03

 Cycle  10  Pass 1  IDiag  1:
 RMSU=  2.00D-05    CP:  3.47D-01  3.00D+00  1.66D+00  7.01D-01  7.82D-01
                    CP:  1.14D+00  1.21D+00  1.51D+00  1.38D+00
 E= -3010.55061612765     Delta-E=       -0.000002804896 Rises=F Damp=F
 DIIS: error= 1.66D-05 at cycle  10 NSaved=  10.
 NSaved=10 IEnMin=10 EnMin= -3010.55061612765     IErMin=10 ErrMin= 1.66D-05
 ErrMax= 1.66D-05  0.00D+00 EMaxC= 1.00D-01 BMatC= 1.46D-07 BMatP= 4.91D-07
 IDIUse=1 WtCom= 1.00D+00 WtEn= 0.00D+00
 Coeff-Com: -0.183D-03 0.283D-03 0.646D-03 0.142D-02 0.846D-02 0.137D-01
 Coeff-Com: -0.432D-01-0.199D+00 0.203D+00 0.102D+01
 Coeff:     -0.183D-03 0.283D-03 0.646D-03 0.142D-02 0.846D-02 0.137D-01
 Coeff:     -0.432D-01-0.199D+00 0.203D+00 0.102D+01
 Gap=     0.244 Goal=   None    Shift=    0.000
 RMSDP=3.62D-05 MaxDP=2.33D-03 DE=-2.80D-06 OVMax= 8.79D-04

 Cycle  11  Pass 1  IDiag  1:
 RMSU=  9.36D-06    CP:  3.47D-01  3.00D+00  1.66D+00  7.02D-01  7.80D-01
                    CP:  1.14D+00  1.24D+00  1.54D+00  1.67D+00  1.57D+00
 E= -3010.55061699458     Delta-E=       -0.000000866929 Rises=F Damp=F
 DIIS: error= 8.16D-06 at cycle  11 NSaved=  11.
 NSaved=11 IEnMin=11 EnMin= -3010.55061699458     IErMin=11 ErrMin= 8.16D-06
 ErrMax= 8.16D-06  0.00D+00 EMaxC= 1.00D-01 BMatC= 2.43D-08 BMatP= 1.46D-07
 IDIUse=1 WtCom= 1.00D+00 WtEn= 0.00D+00
 Coeff-Com: -0.541D-03 0.735D-03 0.153D-03 0.113D-02 0.359D-02 0.657D-02
 Coeff-Com: -0.191D-02-0.534D-01-0.113D+00 0.156D+00 0.100D+01
 Coeff:     -0.541D-03 0.735D-03 0.153D-03 0.113D-02 0.359D-02 0.657D-02
 Coeff:     -0.191D-02-0.534D-01-0.113D+00 0.156D+00 0.100D+01
 Gap=     0.244 Goal=   None    Shift=    0.000
 RMSDP=2.33D-05 MaxDP=1.74D-03 DE=-8.67D-07 OVMax= 4.26D-04

 Cycle  12  Pass 1  IDiag  1:
 RMSU=  3.49D-06    CP:  3.48D-01  3.00D+00  1.66D+00  7.02D-01  7.76D-01
                    CP:  1.14D+00  1.25D+00  1.55D+00  1.78D+00  2.07D+00
                    CP:  1.35D+00
 E= -3010.55061717766     Delta-E=       -0.000000183084 Rises=F Damp=F
 DIIS: error= 4.77D-06 at cycle  12 NSaved=  12.
 NSaved=12 IEnMin=12 EnMin= -3010.55061717766     IErMin=12 ErrMin= 4.77D-06
 ErrMax= 4.77D-06  0.00D+00 EMaxC= 1.00D-01 BMatC= 8.81D-09 BMatP= 2.43D-08
 IDIUse=1 WtCom= 1.00D+00 WtEn= 0.00D+00
 Coeff-Com: -0.154D-03 0.200D-03-0.785D-04 0.134D-03-0.128D-02-0.186D-02
 Coeff-Com:  0.136D-01 0.429D-01-0.125D+00-0.258D+00 0.484D+00 0.846D+00
 Coeff:     -0.154D-03 0.200D-03-0.785D-04 0.134D-03-0.128D-02-0.186D-02
 Coeff:      0.136D-01 0.429D-01-0.125D+00-0.258D+00 0.484D+00 0.846D+00
 Gap=     0.244 Goal=   None    Shift=    0.000
 RMSDP=1.14D-05 MaxDP=5.83D-04 DE=-1.83D-07 OVMax= 2.47D-04

 Cycle  13  Pass 1  IDiag  1:
 RMSU=  1.89D-06    CP:  3.48D-01  3.00D+00  1.66D+00  7.02D-01  7.75D-01
                    CP:  1.13D+00  1.25D+00  1.56D+00  1.82D+00  2.31D+00
                    CP:  1.65D+00  1.24D+00
 E= -3010.55061723052     Delta-E=       -0.000000052861 Rises=F Damp=F
 DIIS: error= 1.65D-06 at cycle  13 NSaved=  13.
 NSaved=13 IEnMin=13 EnMin= -3010.55061723052     IErMin=13 ErrMin= 1.65D-06
 ErrMax= 1.65D-06  0.00D+00 EMaxC= 1.00D-01 BMatC= 7.67D-10 BMatP= 8.81D-09
 IDIUse=1 WtCom= 1.00D+00 WtEn= 0.00D+00
 Coeff-Com:  0.347D-04-0.484D-04-0.430D-04-0.142D-03-0.548D-03-0.101D-02
 Coeff-Com:  0.118D-02 0.892D-02 0.606D-02-0.307D-01-0.124D+00 0.343D-01
 Coeff-Com:  0.111D+01
 Coeff:      0.347D-04-0.484D-04-0.430D-04-0.142D-03-0.548D-03-0.101D-02
 Coeff:      0.118D-02 0.892D-02 0.606D-02-0.307D-01-0.124D+00 0.343D-01
 Coeff:      0.111D+01
 Gap=     0.244 Goal=   None    Shift=    0.000
 RMSDP=2.66D-06 MaxDP=1.68D-04 DE=-5.29D-08 OVMax= 9.95D-05

 Cycle  14  Pass 1  IDiag  1:
 RMSU=  8.51D-07    CP:  3.48D-01  3.00D+00  1.66D+00  7.03D-01  7.74D-01
                    CP:  1.13D+00  1.25D+00  1.56D+00  1.84D+00  2.37D+00
                    CP:  1.73D+00  1.50D+00  1.35D+00
 E= -3010.55061723807     Delta-E=       -0.000000007545 Rises=F Damp=F
 DIIS: error= 7.96D-07 at cycle  14 NSaved=  14.
 NSaved=14 IEnMin=14 EnMin= -3010.55061723807     IErMin=14 ErrMin= 7.96D-07
 ErrMax= 7.96D-07  0.00D+00 EMaxC= 1.00D-01 BMatC= 2.12D-10 BMatP= 7.67D-10
 IDIUse=1 WtCom= 1.00D+00 WtEn= 0.00D+00
 Coeff-Com:  0.309D-04-0.412D-04-0.106D-04-0.829D-04 0.335D-04-0.631D-05
 Coeff-Com: -0.188D-02-0.465D-02 0.245D-01 0.363D-01-0.135D+00-0.146D+00
 Coeff-Com:  0.410D+00 0.816D+00
 Coeff:      0.309D-04-0.412D-04-0.106D-04-0.829D-04 0.335D-04-0.631D-05
 Coeff:     -0.188D-02-0.465D-02 0.245D-01 0.363D-01-0.135D+00-0.146D+00
 Coeff:      0.410D+00 0.816D+00
 Gap=     0.244 Goal=   None    Shift=    0.000
 RMSDP=1.16D-06 MaxDP=9.52D-05 DE=-7.55D-09 OVMax= 3.53D-05

 Cycle  15  Pass 1  IDiag  1:
 RMSU=  2.31D-07    CP:  3.48D-01  3.00D+00  1.66D+00  7.03D-01  7.74D-01
                    CP:  1.13D+00  1.26D+00  1.57D+00  1.84D+00  2.40D+00
                    CP:  1.75D+00  1.60D+00  1.55D+00  1.18D+00
 E= -3010.55061723913     Delta-E=       -0.000000001063 Rises=F Damp=F
 DIIS: error= 3.21D-07 at cycle  15 NSaved=  15.
 NSaved=15 IEnMin=15 EnMin= -3010.55061723913     IErMin=15 ErrMin= 3.21D-07
 ErrMax= 3.21D-07  0.00D+00 EMaxC= 1.00D-01 BMatC= 2.94D-11 BMatP= 2.12D-10
 IDIUse=1 WtCom= 1.00D+00 WtEn= 0.00D+00
 Coeff-Com:  0.534D-05-0.677D-05 0.480D-05-0.104D-05 0.825D-04 0.154D-03
 Coeff-Com: -0.602D-03-0.224D-02 0.514D-02 0.136D-01-0.626D-02-0.417D-01
 Coeff-Com: -0.118D+00 0.193D+00 0.956D+00
 Coeff:      0.534D-05-0.677D-05 0.480D-05-0.104D-05 0.825D-04 0.154D-03
 Coeff:     -0.602D-03-0.224D-02 0.514D-02 0.136D-01-0.626D-02-0.417D-01
 Coeff:     -0.118D+00 0.193D+00 0.956D+00
 Gap=     0.244 Goal=   None    Shift=    0.000
 RMSDP=4.37D-07 MaxDP=2.88D-05 DE=-1.06D-09 OVMax= 1.41D-05

 Cycle  16  Pass 1  IDiag  1:
 RMSU=  1.05D-07    CP:  3.48D-01  3.00D+00  1.66D+00  7.03D-01  7.74D-01
                    CP:  1.13D+00  1.26D+00  1.57D+00  1.84D+00  2.40D+00
                    CP:  1.75D+00  1.64D+00  1.62D+00  1.29D+00  1.44D+00
 E= -3010.55061723933     Delta-E=       -0.000000000197 Rises=F Damp=F
 DIIS: error= 8.85D-08 at cycle  16 NSaved=  16.
 NSaved=16 IEnMin=16 EnMin= -3010.55061723933     IErMin=16 ErrMin= 8.85D-08
 ErrMax= 8.85D-08  0.00D+00 EMaxC= 1.00D-01 BMatC= 4.60D-12 BMatP= 2.94D-11
 IDIUse=1 WtCom= 1.00D+00 WtEn= 0.00D+00
 Coeff-Com:  0.265D-05-0.349D-05 0.411D-05 0.597D-05 0.928D-07 0.175D-04
 Coeff-Com:  0.863D-04 0.196D-03-0.232D-02-0.270D-02 0.151D-01 0.876D-02
 Coeff-Com: -0.697D-01-0.613D-01 0.181D+00 0.931D+00
 Coeff:      0.265D-05-0.349D-05 0.411D-05 0.597D-05 0.928D-07 0.175D-04
 Coeff:      0.863D-04 0.196D-03-0.232D-02-0.270D-02 0.151D-01 0.876D-02
 Coeff:     -0.697D-01-0.613D-01 0.181D+00 0.931D+00
 Gap=     0.244 Goal=   None    Shift=    0.000
 RMSDP=1.66D-07 MaxDP=1.27D-05 DE=-1.97D-10 OVMax= 6.79D-06

 Cycle  17  Pass 1  IDiag  1:
 RMSU=  4.77D-08    CP:  3.48D-01  3.00D+00  1.66D+00  7.03D-01  7.74D-01
                    CP:  1.13D+00  1.26D+00  1.57D+00  1.84D+00  2.41D+00
                    CP:  1.75D+00  1.65D+00  1.62D+00  1.35D+00  1.65D+00
                    CP:  1.06D+00
 E= -3010.55061723935     Delta-E=       -0.000000000022 Rises=F Damp=F
 DIIS: error= 5.87D-08 at cycle  17 NSaved=  17.
 NSaved=17 IEnMin=17 EnMin= -3010.55061723935     IErMin=17 ErrMin= 5.87D-08
 ErrMax= 5.87D-08  0.00D+00 EMaxC= 1.00D-01 BMatC= 1.32D-12 BMatP= 4.60D-12
 IDIUse=1 WtCom= 1.00D+00 WtEn= 0.00D+00
 Coeff-Com: -0.824D-06 0.105D-05 0.184D-06 0.303D-05-0.904D-05-0.109D-04
 Coeff-Com:  0.155D-03 0.504D-03-0.164D-02-0.316D-02 0.621D-02 0.102D-01
 Coeff-Com:  0.117D-02-0.596D-01-0.135D+00 0.315D+00 0.866D+00
 Coeff:     -0.824D-06 0.105D-05 0.184D-06 0.303D-05-0.904D-05-0.109D-04
 Coeff:      0.155D-03 0.504D-03-0.164D-02-0.316D-02 0.621D-02 0.102D-01
 Coeff:      0.117D-02-0.596D-01-0.135D+00 0.315D+00 0.866D+00
 Gap=     0.244 Goal=   None    Shift=    0.000
 RMSDP=5.32D-08 MaxDP=2.35D-06 DE=-2.18D-11 OVMax= 2.62D-06

 Cycle  18  Pass 1  IDiag  1:
 RMSU=  1.95D-08    CP:  3.48D-01  3.00D+00  1.66D+00  7.03D-01  7.74D-01
                    CP:  1.13D+00  1.26D+00  1.57D+00  1.84D+00  2.41D+00
                    CP:  1.75D+00  1.65D+00  1.63D+00  1.37D+00  1.71D+00
                    CP:  1.23D+00  1.44D+00
 E= -3010.55061723937     Delta-E=       -0.000000000025 Rises=F Damp=F
 DIIS: error= 2.31D-08 at cycle  18 NSaved=  18.
 NSaved=18 IEnMin=18 EnMin= -3010.55061723937     IErMin=18 ErrMin= 2.31D-08
 ErrMax= 2.31D-08  0.00D+00 EMaxC= 1.00D-01 BMatC= 2.61D-13 BMatP= 1.32D-12
 IDIUse=1 WtCom= 1.00D+00 WtEn= 0.00D+00
 Coeff-Com: -0.215D-06 0.280D-06-0.744D-06-0.139D-05 0.796D-06-0.410D-05
 Coeff-Com: -0.302D-04-0.626D-04 0.484D-03 0.608D-03-0.378D-02-0.137D-02
 Coeff-Com:  0.202D-01 0.831D-02-0.614D-01-0.213D+00 0.126D+00 0.112D+01
 Coeff:     -0.215D-06 0.280D-06-0.744D-06-0.139D-05 0.796D-06-0.410D-05
 Coeff:     -0.302D-04-0.626D-04 0.484D-03 0.608D-03-0.378D-02-0.137D-02
 Coeff:      0.202D-01 0.831D-02-0.614D-01-0.213D+00 0.126D+00 0.112D+01
 Gap=     0.244 Goal=   None    Shift=    0.000
 RMSDP=4.98D-08 MaxDP=3.45D-06 DE=-2.55D-11 OVMax= 1.82D-06

 Cycle  19  Pass 1  IDiag  1:
 RMSU=  1.03D-08    CP:  3.48D-01  3.00D+00  1.66D+00  7.03D-01  7.74D-01
                    CP:  1.13D+00  1.26D+00  1.57D+00  1.84D+00  2.41D+00
                    CP:  1.75D+00  1.66D+00  1.62D+00  1.37D+00  1.76D+00
                    CP:  1.25D+00  1.88D+00  1.57D+00
 E= -3010.55061723933     Delta-E=        0.000000000039 Rises=F Damp=F
 DIIS: error= 9.63D-09 at cycle  19 NSaved=  19.
 NSaved=19 IEnMin=18 EnMin= -3010.55061723937     IErMin=19 ErrMin= 9.63D-09
 ErrMax= 9.63D-09  0.00D+00 EMaxC= 1.00D-01 BMatC= 3.71D-14 BMatP= 2.61D-13
 IDIUse=1 WtCom= 1.00D+00 WtEn= 0.00D+00
 Coeff-Com:  0.489D-07-0.542D-07 0.596D-07-0.210D-06 0.114D-05 0.382D-06
 Coeff-Com: -0.270D-04-0.671D-04 0.277D-03 0.433D-03-0.109D-02-0.764D-03
 Coeff-Com: -0.167D-02 0.575D-02 0.301D-01-0.379D-01-0.127D+00-0.124D+00
 Coeff-Com:  0.126D+01
 Coeff:      0.489D-07-0.542D-07 0.596D-07-0.210D-06 0.114D-05 0.382D-06
 Coeff:     -0.270D-04-0.671D-04 0.277D-03 0.433D-03-0.109D-02-0.764D-03
 Coeff:     -0.167D-02 0.575D-02 0.301D-01-0.379D-01-0.127D+00-0.124D+00
 Coeff:      0.126D+01
 Gap=     0.244 Goal=   None    Shift=    0.000
 RMSDP=1.78D-08 MaxDP=1.07D-06 DE= 3.91D-11 OVMax= 7.76D-07

 Cycle  20  Pass 1  IDiag  1:
 RMSU=  4.21D-09    CP:  3.48D-01  3.00D+00  1.66D+00  7.03D-01  7.74D-01
                    CP:  1.13D+00  1.26D+00  1.57D+00  1.84D+00  2.41D+00
                    CP:  1.75D+00  1.66D+00  1.62D+00  1.37D+00  1.75D+00
                    CP:  1.23D+00  2.07D+00  1.89D+00  1.29D+00
 E= -3010.55061723934     Delta-E=       -0.000000000005 Rises=F Damp=F
 DIIS: error= 6.13D-09 at cycle  20 NSaved=  20.
 NSaved=20 IEnMin=18 EnMin= -3010.55061723937     IErMin=20 ErrMin= 6.13D-09
 ErrMax= 6.13D-09  0.00D+00 EMaxC= 1.00D-01 BMatC= 1.09D-14 BMatP= 3.71D-14
 IDIUse=1 WtCom= 1.00D+00 WtEn= 0.00D+00
 Coeff-Com: -0.315D-07 0.477D-07 0.145D-06 0.276D-06 0.392D-06 0.711D-06
 Coeff-Com: -0.440D-05-0.921D-05 0.143D-04 0.258D-04 0.175D-03 0.165D-03
 Coeff-Com: -0.412D-02-0.174D-04 0.240D-01 0.234D-01-0.630D-01-0.269D+00
 Coeff-Com:  0.439D+00 0.849D+00
 Coeff:     -0.315D-07 0.477D-07 0.145D-06 0.276D-06 0.392D-06 0.711D-06
 Coeff:     -0.440D-05-0.921D-05 0.143D-04 0.258D-04 0.175D-03 0.165D-03
 Coeff:     -0.412D-02-0.174D-04 0.240D-01 0.234D-01-0.630D-01-0.269D+00
 Coeff:      0.439D+00 0.849D+00
 Gap=     0.244 Goal=   None    Shift=    0.000
 RMSDP=6.64D-09 MaxDP=2.56D-07 DE=-5.46D-12 OVMax= 2.50D-07

 SCF Done:  E(RwB97XD) =  -3010.55061724     A.U. after   20 cycles
            NFock= 20  Conv=0.66D-08     -V/T= 2.0016
 KE= 3.005822966960D+03 PE=-8.629835925473D+03 EE= 1.875905927083D+03
 Leave Link  502 at Wed May  1 15:10:25 2024, MaxMem=  1207959552 cpu:            1170.2 elap:            1170.4
 (Enter /software/gaussian/g16-c01/sse4/g16/l601.exe)
 Copying SCF densities to generalized density rwf, IOpCl= 0 IROHF=0.

 **********************************************************************

            Population analysis using the SCF Density.

 **********************************************************************

 Alpha  occ. eigenvalues -- -483.28992 -62.83985 -56.63706 -56.63096 -56.63092
 Alpha  occ. eigenvalues --  -19.45468 -19.45305 -14.84858 -10.57458 -10.56385
 Alpha  occ. eigenvalues --  -10.56382 -10.56203 -10.55829 -10.53368  -8.99767
 Alpha  occ. eigenvalues --   -6.82518  -6.80530  -6.80511  -2.92405  -2.91879
 Alpha  occ. eigenvalues --   -2.91862  -2.90273  -2.90273  -1.49157  -1.32144
 Alpha  occ. eigenvalues --   -1.21842  -1.12918  -1.11262  -1.02547  -1.00505
 Alpha  occ. eigenvalues --   -0.94606  -0.90315  -0.84932  -0.80344  -0.79970
 Alpha  occ. eigenvalues --   -0.79441  -0.77614  -0.75541  -0.75172  -0.71396
 Alpha  occ. eigenvalues --   -0.68615  -0.66961  -0.62804  -0.59036  -0.56713
 Alpha  occ. eigenvalues --   -0.55712  -0.55058  -0.53605  -0.53064
 Alpha virt. eigenvalues --   -0.28657  -0.20597  -0.14872  -0.13800  -0.11916
 Alpha virt. eigenvalues --   -0.09805  -0.06972  -0.06267  -0.05321  -0.03481
 Alpha virt. eigenvalues --   -0.02081  -0.01327  -0.01092  -0.00095   0.00321
 Alpha virt. eigenvalues --    0.01710   0.02222   0.03181   0.03546   0.04404
 Alpha virt. eigenvalues --    0.04818   0.05958   0.06043   0.06429   0.07192
 Alpha virt. eigenvalues --    0.07814   0.08108   0.08322   0.08611   0.09396
 Alpha virt. eigenvalues --    0.11245   0.11635   0.11829   0.12579   0.13072
 Alpha virt. eigenvalues --    0.13978   0.14498   0.14923   0.15747   0.16477
 Alpha virt. eigenvalues --    0.16968   0.17651   0.18966   0.19422   0.21040
 Alpha virt. eigenvalues --    0.21473   0.22356   0.22746   0.23816   0.25571
 Alpha virt. eigenvalues --    0.26556   0.28452   0.28759   0.31649   0.32429
 Alpha virt. eigenvalues --    0.34149   0.34906   0.35856   0.36479   0.37491
 Alpha virt. eigenvalues --    0.37781   0.38358   0.40258   0.42087   0.42853
 Alpha virt. eigenvalues --    0.43640   0.44147   0.45159   0.46676   0.47728
 Alpha virt. eigenvalues --    0.48521   0.51295   0.51935   0.52702   0.53868
 Alpha virt. eigenvalues --    0.55683   0.56097   0.57399   0.58501   0.59759
 Alpha virt. eigenvalues --    0.61519   0.63702   0.66016   0.67862   0.69844
 Alpha virt. eigenvalues --    0.70505   0.71153   0.72448   0.73996   0.74460
 Alpha virt. eigenvalues --    0.75805   0.79425   0.81049   0.84884   0.85996
 Alpha virt. eigenvalues --    0.87287   0.88328   0.92586   0.93849   0.98774
 Alpha virt. eigenvalues --    1.00370   1.01234   1.05315   1.05952   1.07275
 Alpha virt. eigenvalues --    1.10090   1.10922   1.12326   1.12980   1.15076
 Alpha virt. eigenvalues --    1.22591   1.25106   1.27268   1.33328   1.37002
 Alpha virt. eigenvalues --    1.37330   1.39240   1.46120   1.54947   1.57591
 Alpha virt. eigenvalues --    1.58968   1.59534   1.61055   1.63181   1.67033
 Alpha virt. eigenvalues --    1.69655   1.70563   1.73902   1.75793   1.79462
 Alpha virt. eigenvalues --    1.81810   1.85395   1.87994   1.95552   1.97688
 Alpha virt. eigenvalues --    1.99232   2.03443   2.04456   2.08166   2.09149
 Alpha virt. eigenvalues --    2.11206   2.15275   2.20496   2.22868   2.28254
 Alpha virt. eigenvalues --    2.38025   2.41945   2.43262   2.44882   2.52818
 Alpha virt. eigenvalues --    2.57156   2.63364   2.66542   2.68751   2.71914
 Alpha virt. eigenvalues --    2.74199   2.77018   2.77704   2.81441   2.82528
 Alpha virt. eigenvalues --    2.94448   2.97294   3.01129   3.06905   3.09585
 Alpha virt. eigenvalues --    3.13347   3.14658   3.18962   3.23811   3.25086
 Alpha virt. eigenvalues --    3.27791   3.39568   3.47422   3.51626   3.55172
 Alpha virt. eigenvalues --    3.57516   3.70447   3.74582   3.82625   3.87802
 Alpha virt. eigenvalues --    4.11394   4.11602   4.18897   4.24202   4.44765
 Alpha virt. eigenvalues --    4.44978   4.58107   4.60358   4.93551   4.96342
 Alpha virt. eigenvalues --    5.04884   5.09142   5.63275   6.16202   6.67064
 Alpha virt. eigenvalues --    7.50068   7.51652   7.61321  23.21808  23.61795
 Alpha virt. eigenvalues --   23.71334  23.79652  23.96169  24.01907  35.33099
 Alpha virt. eigenvalues --   47.93478  49.86002  49.94809 289.82769 289.84436
 Alpha virt. eigenvalues --  289.968531020.93847
          Condensed to atoms (all electrons):
               1          2          3          4          5          6
     1  C   10.015650  -3.608297   0.740647  -2.248766  -0.696721   0.296534
     2  C   -3.608297  14.990892  -2.687656  -1.449646   0.798129  -0.018524
     3  C    0.740647  -2.687656  14.771988  -4.652664  -1.823973   0.017550
     4  C   -2.248766  -1.449646  -4.652664  16.106021   1.999063   0.016488
     5  C   -0.696721   0.798129  -1.823973   1.999063   7.920526   0.040973
     6  H    0.296534  -0.018524   0.017550   0.016488   0.040973   0.400350
     7  H    0.095277   0.179048   0.129046  -0.048262  -0.030191  -0.002908
     8  H    0.001161   0.003450   0.045965   0.280361  -0.014500  -0.000002
     9  H    0.013062  -0.003003   0.000231   0.009310   0.301071  -0.002664
    10  N   -0.252438   0.457280  -1.010127   0.381784   0.027828  -0.000705
    11  O   -0.007966  -0.048794  -0.273657   0.049544  -0.049804  -0.000022
    12  O    0.391767  -0.111427  -0.278292  -0.104303  -0.050028   0.000027
    13  C    1.815774  -3.049294   1.672003  -4.589833  -2.463117  -0.016905
    14  H   -0.004760  -0.025412   0.024393  -0.144226  -0.034253  -0.000086
    15  Br   0.050163  -0.028665   0.126824   0.043338   0.128893  -0.000392
               7          8          9         10         11         12
     1  C    0.095277   0.001161   0.013062  -0.252438  -0.007966   0.391767
     2  C    0.179048   0.003450  -0.003003   0.457280  -0.048794  -0.111427
     3  C    0.129046   0.045965   0.000231  -1.010127  -0.273657  -0.278292
     4  C   -0.048262   0.280361   0.009310   0.381784   0.049544  -0.104303
     5  C   -0.030191  -0.014500   0.301071   0.027828  -0.049804  -0.050028
     6  H   -0.002908  -0.000002  -0.002664  -0.000705  -0.000022   0.000027
     7  H    0.352821   0.000003  -0.000011  -0.033215  -0.001982   0.027328
     8  H    0.000003   0.258925   0.000126  -0.019413   0.018617  -0.000484
     9  H   -0.000011   0.000126   0.337631   0.000453   0.000010   0.000005
    10  N   -0.033215  -0.019413   0.000453   7.373139   0.240795   0.091530
    11  O   -0.001982   0.018617   0.000010   0.240795   7.708085  -0.000317
    12  O    0.027328  -0.000484   0.000005   0.091530  -0.000317   8.024525
    13  C    0.022729   0.007731   0.005548  -0.151935   0.259702   0.061380
    14  H   -0.000015  -0.003059  -0.005964  -0.000307  -0.000350  -0.000056
    15  Br  -0.000161   0.001481  -0.002854  -0.001582   0.000708   0.001991
              13         14         15
     1  C    1.815774  -0.004760   0.050163
     2  C   -3.049294  -0.025412  -0.028665
     3  C    1.672003   0.024393   0.126824
     4  C   -4.589833  -0.144226   0.043338
     5  C   -2.463117  -0.034253   0.128893
     6  H   -0.016905  -0.000086  -0.000392
     7  H    0.022729  -0.000015  -0.000161
     8  H    0.007731  -0.003059   0.001481
     9  H    0.005548  -0.005964  -0.002854
    10  N   -0.151935  -0.000307  -0.001582
    11  O    0.259702  -0.000350   0.000708
    12  O    0.061380  -0.000056   0.001991
    13  C   12.590610   0.478057  -0.133721
    14  H    0.478057   0.306266  -0.030633
    15  Br  -0.133721  -0.030633  34.568901
 Mulliken charges:
               1
     1  C   -0.601087
     2  C    0.601919
     3  C   -0.802279
     4  C    0.351792
     5  C   -0.053896
     6  H    0.270286
     7  H    0.310493
     8  H    0.419639
     9  H    0.347050
    10  N   -0.103085
    11  O    0.105430
    12  O   -0.053646
    13  C   -0.508730
    14  H    0.440405
    15  Br   0.275707
 Sum of Mulliken charges =   1.00000
 Mulliken charges with hydrogens summed into heavy atoms:
               1
     1  C   -0.330801
     2  C    0.912413
     3  C   -0.802279
     4  C    0.771431
     5  C    0.293154
    10  N   -0.103085
    11  O    0.105430
    12  O   -0.053646
    13  C   -0.068325
    15  Br   0.275707
 Electronic spatial extent (au):  <R**2>=           2796.8764
 Charge=              1.0000 electrons
 Dipole moment (field-independent basis, Debye):
    X=             -1.2953    Y=             -4.7784    Z=             -0.5853  Tot=              4.9853
 Quadrupole moment (field-independent basis, Debye-Ang):
   XX=            -71.9902   YY=            -50.4007   ZZ=            -61.4502
   XY=             -3.3467   XZ=              1.5855   YZ=              3.5877
 Traceless Quadrupole moment (field-independent basis, Debye-Ang):
   XX=            -10.7098   YY=             10.8797   ZZ=             -0.1699
   XY=             -3.3467   XZ=              1.5855   YZ=              3.5877
 Octapole moment (field-independent basis, Debye-Ang**2):
  XXX=           -303.7927  YYY=             62.7176  ZZZ=             73.7513  XYY=            -79.3069
  XXY=              7.7264  XXZ=             31.6902  XZZ=            -79.4743  YZZ=              9.4101
  YYZ=             19.6778  XYZ=             -4.3159
 Hexadecapole moment (field-independent basis, Debye-Ang**3):
 XXXX=          -2295.6520 YYYY=           -658.3711 ZZZZ=           -338.3786 XXXY=           -145.8878
 XXXZ=            -19.8045 YYYX=            -74.2492 YYYZ=           -138.4844 ZZZX=            -15.5970
 ZZZY=           -124.2986 XXYY=           -458.5251 XXZZ=           -369.6603 YYZZ=           -151.0361
 XXYZ=            -51.0937 YYXZ=              1.5778 ZZXY=             -8.9135
 N-N= 7.375564141907D+02 E-N=-8.629835925911D+03  KE= 3.005822966960D+03
 No NMR shielding tensors so no spin-rotation constants.
 Leave Link  601 at Wed May  1 15:10:32 2024, MaxMem=  1207959552 cpu:               7.4 elap:               7.4
 (Enter /software/gaussian/g16-c01/sse4/g16/l9999.exe)
 Unable to Open any file for archive entry.
 1\1\GINC-BHX0030\SP\RwB97XD\6-311+G(d)\C6H5Br1N1O2(1+)\BWEIGHT\01-May-
 2024\0\\#P wB97XD/6-311+G* NoSymm #P Field=Y+145\\TitleMe\\1,1\C,0,0.0
 295,1.3397,0.0682\C,0,1.4348,1.2867,0.0064\C,0,2.1118,0.0511,-0.0054\C
 ,0,1.4451,-1.1372,0.0312\C,0,-0.6879,0.1682,0.11\H,0,-0.4713,2.2984,0.
 0781\H,0,2.0273,2.1965,-0.0322\H,0,1.9897,-2.0764,0.0232\H,0,-1.7716,0
 .1804,0.1582\N,0,3.5864,0.051,-0.0675\O,0,4.1471,-1.0597,-0.0881\O,0,4
 .145,1.1639,-0.0901\C,0,-0.0236,-1.1458,0.0835\H,0,-0.4367,-1.8725,0.7
 889\Br,0,-0.5359,-1.8697,-1.7408\\Version=ES64L-G16RevC.01\HF=-3010.55
 06172\RMSD=6.641e-09\Dipole=-2.4161632,-0.7318813,0.915916\Quadrupole=
 -7.9624975,8.0887837,-0.1262862,-2.4881895,1.1788142,2.6673705\PG=C01 
 [X(C6H5Br1N1O2)]\\@
 The archive entry for this job was punched.


 PERICLES, SOPHOCLES,
 PELOPONESIAN WAR,
 FRENCH VERBS, LATIN VERBS
 H2SO4.
 Job cpu time:       0 days  0 hours 20 minutes 40.2 seconds.
 Elapsed time:       0 days  0 hours 20 minutes 40.4 seconds.
 File lengths (MBytes):  RWF=     40 Int=      0 D2E=      0 Chk=     32 Scr=      1
 Normal termination of Gaussian 16 at Wed May  1 15:10:33 2024.
