 Entering Gaussian System, Link 0=g16
 Initial command:
 /software/gaussian/g16-a03/l1.exe "/local_scratch/6484883/Gau-1241.inp" -scrdir="/local_scratch/6484883/"
 Entering Link 1 = /software/gaussian/g16-a03/l1.exe PID=      1253.
  
 Copyright (c) 1988,1990,1992,1993,1995,1998,2003,2009,2016,
            Gaussian, Inc.  All Rights Reserved.
  
 This is part of the Gaussian(R) 16 program.  It is based on
 the Gaussian(R) 09 system (copyright 2009, Gaussian, Inc.),
 the Gaussian(R) 03 system (copyright 2003, Gaussian, Inc.),
 the Gaussian(R) 98 system (copyright 1998, Gaussian, Inc.),
 the Gaussian(R) 94 system (copyright 1995, Gaussian, Inc.),
 the Gaussian 92(TM) system (copyright 1992, Gaussian, Inc.),
 the Gaussian 90(TM) system (copyright 1990, Gaussian, Inc.),
 the Gaussian 88(TM) system (copyright 1988, Gaussian, Inc.),
 the Gaussian 86(TM) system (copyright 1986, Carnegie Mellon
 University), and the Gaussian 82(TM) system (copyright 1983,
 Carnegie Mellon University). Gaussian is a federally registered
 trademark of Gaussian, Inc.
  
 This software contains proprietary and confidential information,
 including trade secrets, belonging to Gaussian, Inc.
  
 This software is provided under written license and may be
 used, copied, transmitted, or stored only in accord with that
 written license.
  
 The following legend is applicable only to US Government
 contracts under FAR:
  
                    RESTRICTED RIGHTS LEGEND
  
 Use, reproduction and disclosure by the US Government is
 subject to restrictions as set forth in subparagraphs (a)
 and (c) of the Commercial Computer Software - Restricted
 Rights clause in FAR 52.227-19.
  
 Gaussian, Inc.
 340 Quinnipiac St., Bldg. 40, Wallingford CT 06492
  
  
 ---------------------------------------------------------------
 Warning -- This program may not be used in any manner that
 competes with the business of Gaussian, Inc. or will provide
 assistance to any competitor of Gaussian, Inc.  The licensee
 of this program is prohibited from giving any competitor of
 Gaussian, Inc. access to this program.  By using this program,
 the user acknowledges that Gaussian, Inc. is engaged in the
 business of creating and licensing software in the field of
 computational chemistry and represents and warrants to the
 licensee that it is not a competitor of Gaussian, Inc. and that
 it will not use this program in any manner prohibited above.
 ---------------------------------------------------------------
  

 Cite this work as:
 Gaussian 16, Revision A.03,
 M. J. Frisch, G. W. Trucks, H. B. Schlegel, G. E. Scuseria, 
 M. A. Robb, J. R. Cheeseman, G. Scalmani, V. Barone, 
 G. A. Petersson, H. Nakatsuji, X. Li, M. Caricato, A. V. Marenich, 
 J. Bloino, B. G. Janesko, R. Gomperts, B. Mennucci, H. P. Hratchian, 
 J. V. Ortiz, A. F. Izmaylov, J. L. Sonnenberg, D. Williams-Young, 
 F. Ding, F. Lipparini, F. Egidi, J. Goings, B. Peng, A. Petrone, 
 T. Henderson, D. Ranasinghe, V. G. Zakrzewski, J. Gao, N. Rega, 
 G. Zheng, W. Liang, M. Hada, M. Ehara, K. Toyota, R. Fukuda, 
 J. Hasegawa, M. Ishida, T. Nakajima, Y. Honda, O. Kitao, H. Nakai, 
 T. Vreven, K. Throssell, J. A. Montgomery, Jr., J. E. Peralta, 
 F. Ogliaro, M. J. Bearpark, J. J. Heyd, E. N. Brothers, K. N. Kudin, 
 V. N. Staroverov, T. A. Keith, R. Kobayashi, J. Normand, 
 K. Raghavachari, A. P. Rendell, J. C. Burant, S. S. Iyengar, 
 J. Tomasi, M. Cossi, J. M. Millam, M. Klene, C. Adamo, R. Cammi, 
 J. W. Ochterski, R. L. Martin, K. Morokuma, O. Farkas, 
 J. B. Foresman, and D. J. Fox, Gaussian, Inc., Wallingford CT, 2016.
 
 ******************************************
 Gaussian 16:  ES64L-G16RevA.03 25-Dec-2016
                17-Sep-2021 
 ******************************************
 %chk=geometry.chk
 %mem=2GB
 %nprocshared=1
 Will use up to    1 processors via shared memory.
 --------------------------------------------------------------------
 #p B3LYP/6-311+G** #p TD=(singlets,nstates=30)IOp(6/8=3) IOp(9/40=4)
 --------------------------------------------------------------------
 1/38=1,172=1/1;
 2/12=2,17=6,18=5,40=1/2;
 3/5=4,6=6,7=111,11=9,25=1,30=1,74=-5/1,2,3,8;
 4//1;
 5/5=2,38=5/2;
 8/6=1,10=2,108=30/1;
 9/40=4,41=30,42=1,48=1,70=2/14;
 6/7=2,8=3,9=2,10=2/1;
 99/5=1,9=1/99;
 Leave Link    1 at Fri Sep 17 10:52:18 2021, MaxMem=   268435456 cpu:               0.0 elap:               0.6
 (Enter /software/gaussian/g16-a03/l101.exe)
 -------------------------------
 Scan Step 152, Bond Length 1.26
 -------------------------------
 Symbolic Z-matrix:
 Charge =  0 Multiplicity = 1
 C                     0.        0.       -0.52736 
 H                     0.        0.93726  -1.11871 
 H                     0.       -0.93726  -1.11871 
 O                     0.        0.        0.73264 
 
 ITRead=  0  0  0  0
 MicOpt= -1 -1 -1 -1
 NAtoms=      4 NQM=        4 NQMF=       0 NMMI=      0 NMMIF=      0
                NMic=       0 NMicF=      0.
                    Isotopes and Nuclear Properties:
 (Nuclear quadrupole moments (NQMom) in fm**2, nuclear magnetic moments (NMagM)
  in nuclear magnetons)

  Atom         1           2           3           4
 IAtWgt=          12           1           1          16
 AtmWgt=  12.0000000   1.0078250   1.0078250  15.9949146
 NucSpn=           0           1           1           0
 AtZEff=  -0.0000000  -0.0000000  -0.0000000  -0.0000000
 NQMom=    0.0000000   0.0000000   0.0000000   0.0000000
 NMagM=    0.0000000   2.7928460   2.7928460   0.0000000
 AtZNuc=   6.0000000   1.0000000   1.0000000   8.0000000
 Leave Link  101 at Fri Sep 17 10:52:18 2021, MaxMem=   268435456 cpu:               0.1 elap:               0.1
 (Enter /software/gaussian/g16-a03/l202.exe)
                          Input orientation:                          
 ---------------------------------------------------------------------
 Center     Atomic      Atomic             Coordinates (Angstroms)
 Number     Number       Type             X           Y           Z
 ---------------------------------------------------------------------
      1          6           0        0.000000    0.000000   -0.527360
      2          1           0        0.000000    0.937260   -1.118710
      3          1           0        0.000000   -0.937260   -1.118710
      4          8           0        0.000000    0.000000    0.732640
 ---------------------------------------------------------------------
                    Distance matrix (angstroms):
                    1          2          3          4
     1  C    0.000000
     2  H    1.108220   0.000000
     3  H    1.108220   1.874520   0.000000
     4  O    1.260000   2.075079   2.075079   0.000000
 Stoichiometry    CH2O
 Framework group  C2V[C2(CO),SGV(H2)]
 Deg. of freedom     3
 Full point group                 C2V     NOp   4
 Largest Abelian subgroup         C2V     NOp   4
 Largest concise Abelian subgroup C2      NOp   2
                         Standard orientation:                         
 ---------------------------------------------------------------------
 Center     Atomic      Atomic             Coordinates (Angstroms)
 Number     Number       Type             X           Y           Z
 ---------------------------------------------------------------------
      1          6           0        0.000000   -0.000000   -0.556081
      2          1           0        0.000000    0.937260   -1.147431
      3          1           0       -0.000000   -0.937260   -1.147431
      4          8           0        0.000000    0.000000    0.703919
 ---------------------------------------------------------------------
 Rotational constants (GHZ):         285.4183527          35.7972472          31.8078927
 Leave Link  202 at Fri Sep 17 10:52:18 2021, MaxMem=   268435456 cpu:               0.0 elap:               0.0
 (Enter /software/gaussian/g16-a03/l301.exe)
 Standard basis: 6-311+G(d,p) (5D, 7F)
 Ernie: Thresh=  0.10000D-02 Tol=  0.10000D-05 Strict=F.
 There are    29 symmetry adapted cartesian basis functions of A1  symmetry.
 There are     3 symmetry adapted cartesian basis functions of A2  symmetry.
 There are    11 symmetry adapted cartesian basis functions of B1  symmetry.
 There are    15 symmetry adapted cartesian basis functions of B2  symmetry.
 There are    27 symmetry adapted basis functions of A1  symmetry.
 There are     3 symmetry adapted basis functions of A2  symmetry.
 There are    11 symmetry adapted basis functions of B1  symmetry.
 There are    15 symmetry adapted basis functions of B2  symmetry.
    56 basis functions,    88 primitive gaussians,    58 cartesian basis functions
     8 alpha electrons        8 beta electrons
       nuclear repulsion energy        30.2517034966 Hartrees.
 IExCor=  402 DFT=T Ex+Corr=B3LYP ExCW=0 ScaHFX=  0.200000
 ScaDFX=  0.800000  0.720000  1.000000  0.810000 ScalE2=  1.000000  1.000000
 IRadAn=      5 IRanWt=     -1 IRanGd=            0 ICorTp=0 IEmpDi=  4
 NAtoms=    4 NActive=    4 NUniq=    3 SFac= 1.78D+00 NAtFMM=   60 NAOKFM=F Big=F
 Integral buffers will be    131072 words long.
 Regular integral format.
 Two-electron integral symmetry is turned on.
 Leave Link  301 at Fri Sep 17 10:52:18 2021, MaxMem=   268435456 cpu:               0.1 elap:               0.1
 (Enter /software/gaussian/g16-a03/l302.exe)
 NPDir=0 NMtPBC=     1 NCelOv=     1 NCel=       1 NClECP=     1 NCelD=      1
         NCelK=      1 NCelE2=     1 NClLst=     1 CellRange=     0.0.
 One-electron integrals computed using PRISM.
 One-electron integral symmetry used in STVInt
 NBasis=    56 RedAO= T EigKep=  4.69D-03  NBF=    27     3    11    15
 NBsUse=    56 1.00D-06 EigRej= -1.00D+00 NBFU=    27     3    11    15
 Precomputing XC quadrature grid using
 IXCGrd= 4 IRadAn=           5 IRanWt=          -1 IRanGd=           0 AccXCQ= 0.00D+00.
 Generated NRdTot=       0 NPtTot=           0 NUsed=           0 NTot=          32
 NSgBfM=    58    58    58    58    58 MxSgAt=     4 MxSgA2=     4.
 Leave Link  302 at Fri Sep 17 10:52:18 2021, MaxMem=   268435456 cpu:               0.1 elap:               0.1
 (Enter /software/gaussian/g16-a03/l303.exe)
 DipDrv:  MaxL=1.
 Leave Link  303 at Fri Sep 17 10:52:19 2021, MaxMem=   268435456 cpu:               0.0 elap:               0.0
 (Enter /software/gaussian/g16-a03/l308.exe)
 Leave Link  308 at Fri Sep 17 10:52:19 2021, MaxMem=   268435456 cpu:               0.0 elap:               0.0
 (Enter /software/gaussian/g16-a03/l401.exe)
 ExpMin= 4.38D-02 ExpMax= 8.59D+03 ExpMxC= 1.30D+03 IAcc=3 IRadAn=         5 AccDes= 0.00D+00
 Harris functional with IExCor=  402 and IRadAn=       5 diagonalized for initial guess.
 HarFok:  IExCor=  402 AccDes= 0.00D+00 IRadAn=         5 IDoV= 1 UseB2=F ITyADJ=14
 ICtDFT=  3500011 ScaDFX=  1.000000  1.000000  1.000000  1.000000
 FoFCou: FMM=F IPFlag=           0 FMFlag=      100000 FMFlg1=           0
         NFxFlg=           0 DoJE=T BraDBF=F KetDBF=T FulRan=T
         wScrn=  0.000000 ICntrl=       500 IOpCl=  0 I1Cent=   200000004 NGrid=           0
         NMat0=    1 NMatS0=      1 NMatT0=    0 NMatD0=    1 NMtDS0=    0 NMtDT0=    0
 Petite list used in FoFCou.
 Harris En= -114.546420215568    
 JPrj=0 DoOrth=F DoCkMO=F.
 Initial guess orbital symmetries:
       Occupied  (A1) (A1) (A1) (A1) (B2) (A1) (B1) (B2)
       Virtual   (B1) (A1) (A1) (B2) (B1) (A1) (B2) (A1) (B1) (B2)
                 (A1) (A1) (A1) (B2) (B1) (A1) (B2) (A1) (A1) (A2)
                 (B1) (B2) (B1) (A1) (B2) (A1) (B2) (A1) (B1) (A2)
                 (A1) (B2) (A1) (B2) (B1) (A1) (A2) (A1) (B1) (A1)
                 (B2) (B2) (A1) (B1) (B2) (A1) (A1) (A1)
 The electronic state of the initial guess is 1-A1.
 Leave Link  401 at Fri Sep 17 10:52:19 2021, MaxMem=   268435456 cpu:               0.3 elap:               0.3
 (Enter /software/gaussian/g16-a03/l502.exe)
 Keep R1 ints in memory in symmetry-blocked form, NReq=2159909.
 FoFCou: FMM=F IPFlag=           0 FMFlag=           0 FMFlg1=           0
         NFxFlg=           0 DoJE=F BraDBF=F KetDBF=F FulRan=T
         wScrn=  0.000000 ICntrl=       600 IOpCl=  0 I1Cent=           0 NGrid=           0
         NMat0=    1 NMatS0=   1596 NMatT0=    0 NMatD0=    1 NMtDS0=    0 NMtDT0=    0
 Petite list used in FoFCou.
 Closed shell SCF:
 Using DIIS extrapolation, IDIIS=  1040.
 NGot=   268435456 LenX=   268074384 LenY=   268070579
 Requested convergence on RMS density matrix=1.00D-08 within 128 cycles.
 Requested convergence on MAX density matrix=1.00D-06.
 Requested convergence on             energy=1.00D-06.
 No special actions if energy rises.

 Cycle   1  Pass 1  IDiag  1:
 E= -114.483188541356    
 DIIS: error= 4.49D-02 at cycle   1 NSaved=   1.
 NSaved= 1 IEnMin= 1 EnMin= -114.483188541356     IErMin= 1 ErrMin= 4.49D-02
 ErrMax= 4.49D-02  0.00D+00 EMaxC= 1.00D-01 BMatC= 7.50D-02 BMatP= 7.50D-02
 IDIUse=3 WtCom= 5.51D-01 WtEn= 4.49D-01
 Coeff-Com:  0.100D+01
 Coeff-En:   0.100D+01
 Coeff:      0.100D+01
 Gap=     0.140 Goal=   None    Shift=    0.000
 GapD=    0.140 DampG=1.000 DampE=0.500 DampFc=0.5000 IDamp=-1.
 Damping current iteration by 5.00D-01
 RMSDP=1.04D-02 MaxDP=8.90D-02              OVMax= 3.21D-01

 Cycle   2  Pass 1  IDiag  1:
 E= -114.468115355551     Delta-E=        0.015073185806 Rises=F Damp=T
 DIIS: error= 3.66D-02 at cycle   2 NSaved=   2.
 NSaved= 2 IEnMin= 1 EnMin= -114.483188541356     IErMin= 2 ErrMin= 3.66D-02
 ErrMax= 3.66D-02  0.00D+00 EMaxC= 1.00D-01 BMatC= 3.37D-02 BMatP= 7.50D-02
 IDIUse=3 WtCom= 6.34D-01 WtEn= 3.66D-01
 Coeff-Com:  0.386D+00 0.614D+00
 Coeff-En:   0.578D+00 0.422D+00
 Coeff:      0.457D+00 0.543D+00
 Gap=     0.196 Goal=   None    Shift=    0.000
 RMSDP=2.18D-03 MaxDP=2.74D-02 DE= 1.51D-02 OVMax= 2.32D-01

 Cycle   3  Pass 1  IDiag  1:
 E= -114.534797770126     Delta-E=       -0.066682414575 Rises=F Damp=F
 DIIS: error= 8.69D-03 at cycle   3 NSaved=   3.
 NSaved= 3 IEnMin= 3 EnMin= -114.534797770126     IErMin= 3 ErrMin= 8.69D-03
 ErrMax= 8.69D-03  0.00D+00 EMaxC= 1.00D-01 BMatC= 2.39D-03 BMatP= 3.37D-02
 IDIUse=3 WtCom= 9.13D-01 WtEn= 8.69D-02
 Coeff-Com:  0.156D+00 0.174D+00 0.670D+00
 Coeff-En:   0.000D+00 0.000D+00 0.100D+01
 Coeff:      0.143D+00 0.158D+00 0.699D+00
 Gap=     0.204 Goal=   None    Shift=    0.000
 RMSDP=8.09D-04 MaxDP=1.74D-02 DE=-6.67D-02 OVMax= 1.83D-02

 Cycle   4  Pass 1  IDiag  1:
 E= -114.536694848371     Delta-E=       -0.001897078245 Rises=F Damp=F
 DIIS: error= 3.57D-03 at cycle   4 NSaved=   4.
 NSaved= 4 IEnMin= 4 EnMin= -114.536694848371     IErMin= 4 ErrMin= 3.57D-03
 ErrMax= 3.57D-03  0.00D+00 EMaxC= 1.00D-01 BMatC= 3.37D-04 BMatP= 2.39D-03
 IDIUse=3 WtCom= 9.64D-01 WtEn= 3.57D-02
 Coeff-Com:  0.229D-01 0.207D-03 0.295D+00 0.682D+00
 Coeff-En:   0.000D+00 0.000D+00 0.208D-01 0.979D+00
 Coeff:      0.221D-01 0.199D-03 0.285D+00 0.693D+00
 Gap=     0.206 Goal=   None    Shift=    0.000
 RMSDP=2.27D-04 MaxDP=5.25D-03 DE=-1.90D-03 OVMax= 5.87D-03

 Cycle   5  Pass 1  IDiag  1:
 E= -114.537009122353     Delta-E=       -0.000314273982 Rises=F Damp=F
 DIIS: error= 4.36D-04 at cycle   5 NSaved=   5.
 NSaved= 5 IEnMin= 5 EnMin= -114.537009122353     IErMin= 5 ErrMin= 4.36D-04
 ErrMax= 4.36D-04  0.00D+00 EMaxC= 1.00D-01 BMatC= 5.89D-06 BMatP= 3.37D-04
 IDIUse=3 WtCom= 9.96D-01 WtEn= 4.36D-03
 Coeff-Com:  0.355D-02-0.956D-02 0.533D-01 0.173D+00 0.779D+00
 Coeff-En:   0.000D+00 0.000D+00 0.000D+00 0.000D+00 0.100D+01
 Coeff:      0.353D-02-0.952D-02 0.531D-01 0.172D+00 0.780D+00
 Gap=     0.206 Goal=   None    Shift=    0.000
 RMSDP=3.00D-05 MaxDP=2.15D-04 DE=-3.14D-04 OVMax= 6.84D-04

 Cycle   6  Pass 1  IDiag  1:
 E= -114.537014101957     Delta-E=       -0.000004979604 Rises=F Damp=F
 DIIS: error= 6.07D-05 at cycle   6 NSaved=   6.
 NSaved= 6 IEnMin= 6 EnMin= -114.537014101957     IErMin= 6 ErrMin= 6.07D-05
 ErrMax= 6.07D-05  0.00D+00 EMaxC= 1.00D-01 BMatC= 1.01D-07 BMatP= 5.89D-06
 IDIUse=1 WtCom= 1.00D+00 WtEn= 0.00D+00
 Coeff-Com:  0.371D-03-0.107D-02-0.300D-03-0.339D-02-0.139D-01 0.102D+01
 Coeff:      0.371D-03-0.107D-02-0.300D-03-0.339D-02-0.139D-01 0.102D+01
 Gap=     0.206 Goal=   None    Shift=    0.000
 RMSDP=5.29D-06 MaxDP=4.86D-05 DE=-4.98D-06 OVMax= 9.77D-05

 Cycle   7  Pass 1  IDiag  1:
 E= -114.537014186134     Delta-E=       -0.000000084177 Rises=F Damp=F
 DIIS: error= 2.27D-06 at cycle   7 NSaved=   7.
 NSaved= 7 IEnMin= 7 EnMin= -114.537014186134     IErMin= 7 ErrMin= 2.27D-06
 ErrMax= 2.27D-06  0.00D+00 EMaxC= 1.00D-01 BMatC= 3.05D-10 BMatP= 1.01D-07
 IDIUse=1 WtCom= 1.00D+00 WtEn= 0.00D+00
 Coeff-Com:  0.171D-04-0.210D-04-0.189D-03-0.159D-02-0.914D-02 0.702D-01
 Coeff-Com:  0.941D+00
 Coeff:      0.171D-04-0.210D-04-0.189D-03-0.159D-02-0.914D-02 0.702D-01
 Coeff:      0.941D+00
 Gap=     0.206 Goal=   None    Shift=    0.000
 RMSDP=2.09D-07 MaxDP=3.71D-06 DE=-8.42D-08 OVMax= 5.51D-06

 Cycle   8  Pass 1  IDiag  1:
 E= -114.537014186354     Delta-E=       -0.000000000221 Rises=F Damp=F
 DIIS: error= 1.38D-06 at cycle   8 NSaved=   8.
 NSaved= 8 IEnMin= 8 EnMin= -114.537014186354     IErMin= 8 ErrMin= 1.38D-06
 ErrMax= 1.38D-06  0.00D+00 EMaxC= 1.00D-01 BMatC= 5.36D-11 BMatP= 3.05D-10
 IDIUse=1 WtCom= 1.00D+00 WtEn= 0.00D+00
 Coeff-Com:  0.492D-05-0.300D-05 0.157D-04-0.960D-04-0.256D-03-0.158D-01
 Coeff-Com:  0.640D-01 0.952D+00
 Coeff:      0.492D-05-0.300D-05 0.157D-04-0.960D-04-0.256D-03-0.158D-01
 Coeff:      0.640D-01 0.952D+00
 Gap=     0.206 Goal=   None    Shift=    0.000
 RMSDP=1.15D-07 MaxDP=9.36D-07 DE=-2.21D-10 OVMax= 2.21D-06

 Cycle   9  Pass 1  IDiag  1:
 E= -114.537014186399     Delta-E=       -0.000000000044 Rises=F Damp=F
 DIIS: error= 6.75D-08 at cycle   9 NSaved=   9.
 NSaved= 9 IEnMin= 9 EnMin= -114.537014186399     IErMin= 9 ErrMin= 6.75D-08
 ErrMax= 6.75D-08  0.00D+00 EMaxC= 1.00D-01 BMatC= 2.17D-13 BMatP= 5.36D-11
 IDIUse=1 WtCom= 1.00D+00 WtEn= 0.00D+00
 Coeff-Com:  0.838D-06-0.840D-06 0.336D-05 0.329D-07 0.799D-04-0.276D-02
 Coeff-Com: -0.255D-02 0.984D-01 0.907D+00
 Coeff:      0.838D-06-0.840D-06 0.336D-05 0.329D-07 0.799D-04-0.276D-02
 Coeff:     -0.255D-02 0.984D-01 0.907D+00
 Gap=     0.206 Goal=   None    Shift=    0.000
 RMSDP=4.21D-09 MaxDP=6.66D-08 DE=-4.42D-11 OVMax= 9.09D-08

 SCF Done:  E(RB3LYP) =  -114.537014186     A.U. after    9 cycles
            NFock=  9  Conv=0.42D-08     -V/T= 2.0053
 KE= 1.139319038194D+02 PE=-3.294130740265D+02 EE= 7.069245252405D+01
 Leave Link  502 at Fri Sep 17 10:52:21 2021, MaxMem=   268435456 cpu:               1.6 elap:               1.9
 (Enter /software/gaussian/g16-a03/l801.exe)
 DoSCS=F DFT=T ScalE2(SS,OS)=  1.000000  1.000000
 ExpMin= 4.38D-02 ExpMax= 8.59D+03 ExpMxC= 1.30D+03 IAcc=3 IRadAn=         5 AccDes= 0.00D+00
 HarFok:  IExCor=  205 AccDes= 0.00D+00 IRadAn=         5 IDoV=-2 UseB2=F ITyADJ=14
 ICtDFT= 12500011 ScaDFX=  1.000000  1.000000  1.000000  1.000000
 Largest valence mixing into a core orbital is  4.82D-05
 Largest core mixing into a valence orbital is  1.02D-05
 Range of M.O.s used for correlation:     3    56
 NBasis=    56 NAE=     8 NBE=     8 NFC=     2 NFV=     0
 NROrb=     54 NOA=     6 NOB=     6 NVA=    48 NVB=    48
 Leave Link  801 at Fri Sep 17 10:52:21 2021, MaxMem=   268435456 cpu:               0.2 elap:               0.2
 (Enter /software/gaussian/g16-a03/l914.exe)
 RHF ground state
 Keep R1, R2, and R3 ints in memory in symmetry-blocked form, NReq=6042848.
 FoFCou: FMM=F IPFlag=           0 FMFlag=           0 FMFlg1=           0
         NFxFlg=           0 DoJE=F BraDBF=F KetDBF=F FulRan=T
         wScrn=  0.000000 ICntrl=       600 IOpCl=  0 I1Cent=           0 NGrid=           0
         NMat0=    1 NMatS0=   1596 NMatT0=    0 NMatD0=    1 NMtDS0=    0 NMtDT0=    0
 Petite list used in FoFCou.
 MDV=   268435456 DFT=T DoStab=F Mixed=T DoRPA=T DoScal=F NonHer=T
 Making orbital integer symmetry assigments:
 Orbital symmetries:
       Occupied  (A1) (A1) (A1) (A1) (B2) (A1) (B1) (B2)
       Virtual   (B1) (A1) (A1) (B2) (B1) (A1) (B2) (A1) (B1) (B2)
                 (A1) (A1) (A1) (B2) (B1) (A1) (B2) (A1) (A2) (A1)
                 (B1) (B2) (B1) (A1) (B2) (A1) (B2) (A1) (B1) (A2)
                 (A1) (B2) (A1) (B2) (A1) (B1) (A2) (A1) (B1) (A1)
                 (B2) (B2) (A1) (B1) (B2) (A1) (A1) (A1)
   120 initial guesses have been made.
 Convergence on wavefunction:    0.001000000000000
 Davidson Disk Diagonalization:  ConvIn= 1.00D-03 SkipCon=T Conv= 1.00D-03.
 Max sub-space:  1728 roots to seek:   120 dimension of matrix:          576
 Iteration     1 Dimension   120 NMult     0 NNew    120
 CISAX will form   120 AO SS matrices at one time.
 NMat=   120 NSing=   120 JSym2X=-1.
 New state      3 was old state      4
 New state      4 was old state      5
 New state      5 was old state      6
 New state      6 was old state      7
 New state      7 was old state      3
 New state      8 was old state     10
 New state      9 was old state      8
 New state     10 was old state      9
 New state     13 was old state     16
 New state     14 was old state     15
 New state     15 was old state     14
 New state     16 was old state     13
 New state     17 was old state     19
 New state     18 was old state     17
 New state     19 was old state     18
 New state     21 was old state     23
 New state     22 was old state     21
 New state     23 was old state     22
 New state     24 was old state     26
 New state     25 was old state     24
 New state     26 was old state     25
 New state     27 was old state     28
 New state     28 was old state     27
 New state     29 was old state     31
 Excitation Energies [eV] at current iteration:
 Root      1 :     3.635100481617190
 Root      2 :     6.916983028747226
 Root      3 :     7.686658492020110
 Root      4 :     7.921868280770769
 Root      5 :     8.437155803759193
 Root      6 :     8.508531436998746
 Root      7 :     8.821806724808800
 Root      8 :     9.528134327944715
 Root      9 :     9.923814248223625
 Root     10 :    10.321340515633570
 Root     11 :    10.777068580963560
 Root     12 :    10.906562597751320
 Root     13 :    11.492348175557800
 Root     14 :    11.569917498307090
 Root     15 :    11.640104075844380
 Root     16 :    12.216967440994470
 Root     17 :    12.339760489257440
 Root     18 :    12.460490371154200
 Root     19 :    12.618483656613750
 Root     20 :    12.675535128722780
 Root     21 :    13.056313713866470
 Root     22 :    13.062103246212930
 Root     23 :    13.146399914874480
 Root     24 :    13.460200634215960
 Root     25 :    13.608434004264890
 Root     26 :    13.988271318114970
 Root     27 :    14.087345117492060
 Root     28 :    14.201862455574380
 Root     29 :    14.502816590981420
 Root     30 :    14.808466839841430
 Root     31 :    14.933317774238340
 Root     32 :    15.365524964120540
 Root     33 :    15.680367207730160
 Root     34 :    15.811655477221280
 Root     35 :    15.869945227489250
 Root     36 :    16.218369358408450
 Root     37 :    16.572248644353730
 Root     38 :    16.647778578355200
 Root     39 :    16.999407247950950
 Root     40 :    17.005851080878560
 Root     41 :    17.498161054969100
 Root     42 :    17.529939069844750
 Root     43 :    17.668445974892170
 Root     44 :    17.845691813973690
 Root     45 :    17.947202900945480
 Root     46 :    17.984573565514640
 Root     47 :    18.273775158878190
 Root     48 :    18.408734532775910
 Root     49 :    18.554282438983100
 Root     50 :    18.644476502802660
 Root     51 :    19.153877132962320
 Root     52 :    19.242188335849840
 Root     53 :    19.530745075219040
 Root     54 :    20.044694266256170
 Root     55 :    20.495045312078750
 Root     56 :    20.917835007346970
 Root     57 :    21.158217794561080
 Root     58 :    21.423562253852340
 Root     59 :    21.467895353280010
 Root     60 :    21.603866231839350
 Root     61 :    21.900507790207960
 Root     62 :    22.332356844550920
 Root     63 :    22.691905496740490
 Root     64 :    22.934564746841340
 Root     65 :    23.112159733898980
 Root     66 :    23.473699974864400
 Root     67 :    23.596618141740720
 Root     68 :    23.833352169688150
 Root     69 :    24.193395028775870
 Root     70 :    24.696962539641700
 Root     71 :    24.777577260638260
 Root     72 :    24.884997531492360
 Root     73 :    25.116588814690470
 Root     74 :    25.327719422125640
 Root     75 :    25.544036283029510
 Root     76 :    25.679290428460710
 Root     77 :    25.803349173740450
 Root     78 :    27.343328944177220
 Root     79 :    27.582228237410170
 Root     80 :    27.582673167519730
 Root     81 :    27.712020870038860
 Root     82 :    27.890268882551130
 Root     83 :    28.609315582761560
 Root     84 :    28.656326633005780
 Root     85 :    28.788736982000030
 Root     86 :    29.199976900156360
 Root     87 :    29.360680553745100
 Root     88 :    29.970876850457830
 Root     89 :    30.063958200392110
 Root     90 :    30.385899888942230
 Root     91 :    30.780794363924190
 Root     92 :    32.002829409933370
 Root     93 :    32.310386978956850
 Root     94 :    32.782082948294140
 Root     95 :    32.978668502815740
 Root     96 :    33.171110114468710
 Root     97 :    33.278520971726580
 Root     98 :    33.333828719557080
 Root     99 :    33.506153230552800
 Root    100 :    33.721917648541340
 Root    101 :    33.824175596847190
 Root    102 :    33.941313147958150
 Root    103 :    34.641805847967540
 Root    104 :    35.772389404750260
 Root    105 :    36.133930518222790
 Root    106 :    36.339409698199620
 Root    107 :    36.824778998956930
 Root    108 :    37.658181376100560
 Root    109 :    37.845041679557600
 Root    110 :    38.152341122619500
 Root    111 :    38.413763037628840
 Root    112 :    38.620529635604000
 Root    113 :    39.358693202276290
 Root    114 :    39.400611706332250
 Root    115 :    39.703640773374690
 Root    116 :    39.742883248060250
 Root    117 :    39.930478870908290
 Root    118 :    40.311872392688610
 Root    119 :    40.420635461643260
 Root    120 :    45.141137122584740
 Iteration     2 Dimension   180 NMult   120 NNew     60
 CISAX will form    60 AO SS matrices at one time.
 NMat=    60 NSing=    60 JSym2X=-1.
 Root      1 not converged, maximum delta is    0.005364488475555
 Root      2 not converged, maximum delta is    0.002002731337289
 Root      3 not converged, maximum delta is    0.004037829347342
 Root      4 not converged, maximum delta is    0.005792636003313
 Root      5 not converged, maximum delta is    0.001269686383639
 Root      6 not converged, maximum delta is    0.012748796527857
 Root      7 not converged, maximum delta is    0.018341914004430
 Root      8 not converged, maximum delta is    0.010324091780881
 Root      9 not converged, maximum delta is    0.001981025589880
 Root     10 not converged, maximum delta is    0.003580185965968
 Root     11 not converged, maximum delta is    0.004888954137397
 Root     12 not converged, maximum delta is    0.001847449858495
 Root     13 not converged, maximum delta is    0.002018531428626
 Root     14 not converged, maximum delta is    0.011801308227780
 Root     15 not converged, maximum delta is    0.019338440855753
 Root     16 not converged, maximum delta is    0.021609026118065
 Root     17 not converged, maximum delta is    0.001647196850702
 Root     18 not converged, maximum delta is    0.017335054075014
 Root     19 not converged, maximum delta is    0.017727097759409
 Root     20 not converged, maximum delta is    0.018233575880750
 New state     21 was old state     22
 Root     21 not converged, maximum delta is    0.010078384094040
 New state     22 was old state     21
 Root     22 not converged, maximum delta is    0.005793671151319
 Root     23 not converged, maximum delta is    0.006395157612722
 Root     24 not converged, maximum delta is    0.016901736132295
 Root     25 not converged, maximum delta is    0.016413436480280
 Root     26 not converged, maximum delta is    0.009588546897275
 Root     27 not converged, maximum delta is    0.006368698674697
 Root     28 not converged, maximum delta is    0.006341184941965
 Root     29 not converged, maximum delta is    0.028901772228671
 Root     30 not converged, maximum delta is    0.005569686532962
 Excitation Energies [eV] at current iteration:
 Root      1 :     3.623132612156973   Change is   -0.011967869460217
 Root      2 :     6.915288400300255   Change is   -0.001694628446972
 Root      3 :     7.678144491563976   Change is   -0.008514000456134
 Root      4 :     7.919451517896359   Change is   -0.002416762874411
 Root      5 :     8.436774380520065   Change is   -0.000381423239129
 Root      6 :     8.445422056507770   Change is   -0.063109380490975
 Root      7 :     8.751015997216564   Change is   -0.070790727592235
 Root      8 :     9.514719697582882   Change is   -0.013414630361833
 Root      9 :     9.922863711144656   Change is   -0.000950537078969
 Root     10 :    10.312233513997310   Change is   -0.009107001636256
 Root     11 :    10.770613686891160   Change is   -0.006454894072394
 Root     12 :    10.906002861829510   Change is   -0.000559735921811
 Root     13 :    11.489969631408420   Change is   -0.002378544149390
 Root     14 :    11.562489098683160   Change is   -0.007428399623930
 Root     15 :    11.626211472793750   Change is   -0.013892603050638
 Root     16 :    12.185598049084040   Change is   -0.031369391910435
 Root     17 :    12.338909028331360   Change is   -0.000851460926081
 Root     18 :    12.449876812281950   Change is   -0.010613558872241
 Root     19 :    12.615157798593940   Change is   -0.003325858019815
 Root     20 :    12.670060670348230   Change is   -0.005474458374553
 Root     21 :    13.043899321985960   Change is   -0.018203924226979
 Root     22 :    13.052593400667320   Change is   -0.003720313199140
 Root     23 :    13.144279972010920   Change is   -0.002119942863551
 Root     24 :    13.427702264505890   Change is   -0.032498369710071
 Root     25 :    13.600695259074130   Change is   -0.007738745190765
 Root     26 :    13.974468792713160   Change is   -0.013802525401811
 Root     27 :    14.085030909053010   Change is   -0.002314208439051
 Root     28 :    14.200914110159060   Change is   -0.000948345415317
 Root     29 :    14.494348085824910   Change is   -0.008468505156511
 Root     30 :    14.801403120148220   Change is   -0.007063719693209
 Iteration     3 Dimension   236 NMult   180 NNew     56
 CISAX will form    56 AO SS matrices at one time.
 NMat=    56 NSing=    56 JSym2X=-1.
 Root      1 has converged.
 Root      2 has converged.
 Root      3 has converged.
 Root      4 has converged.
 Root      5 has converged.
 Root      6 has converged.
 Root      7 has converged.
 Root      8 has converged.
 Root      9 has converged.
 Root     10 has converged.
 Root     11 has converged.
 Root     12 has converged.
 Root     13 has converged.
 Root     14 has converged.
 Root     15 has converged.
 Root     16 has converged.
 Root     17 has converged.
 Root     18 has converged.
 Root     19 has converged.
 Root     20 has converged.
 Root     21 has converged.
 Root     22 has converged.
 Root     23 has converged.
 Root     24 has converged.
 Root     25 has converged.
 Root     26 has converged.
 Root     27 has converged.
 Root     28 has converged.
 Root     29 has converged.
 Root     30 has converged.
 Excitation Energies [eV] at current iteration:
 Root      1 :     3.623131401305961   Change is   -0.000001210851012
 Root      2 :     6.915287246916174   Change is   -0.000001153384081
 Root      3 :     7.678139244923066   Change is   -0.000005246640910
 Root      4 :     7.919449361006630   Change is   -0.000002156889728
 Root      5 :     8.436774341461788   Change is   -0.000000039058277
 Root      6 :     8.445322036886232   Change is   -0.000100019621539
 Root      7 :     8.750927070296946   Change is   -0.000088926919620
 Root      8 :     9.514709683577131   Change is   -0.000010014005751
 Root      9 :     9.922862880269626   Change is   -0.000000830875030
 Root     10 :    10.312226934370250   Change is   -0.000006579627062
 Root     11 :    10.770604123341630   Change is   -0.000009563549539
 Root     12 :    10.906002569515690   Change is   -0.000000292313820
 Root     13 :    11.489966223939500   Change is   -0.000003407468916
 Root     14 :    11.562469239735180   Change is   -0.000019858947980
 Root     15 :    11.626180774099610   Change is   -0.000030698694138
 Root     16 :    12.185518803821540   Change is   -0.000079245262496
 Root     17 :    12.338908397437680   Change is   -0.000000630893679
 Root     18 :    12.449842812400300   Change is   -0.000033999881651
 Root     19 :    12.615152922970400   Change is   -0.000004875623535
 Root     20 :    12.670047982837430   Change is   -0.000012687510799
 Root     21 :    13.043839661657170   Change is   -0.000059660328790
 Root     22 :    13.052587154379900   Change is   -0.000006246287423
 Root     23 :    13.144275929167190   Change is   -0.000004042843730
 Root     24 :    13.427650076681200   Change is   -0.000052187824692
 Root     25 :    13.600687696881700   Change is   -0.000007562192424
 Root     26 :    13.974441245178250   Change is   -0.000027547534912
 Root     27 :    14.085026622245140   Change is   -0.000004286807870
 Root     28 :    14.200912309020750   Change is   -0.000001801138310
 Root     29 :    14.494332874284060   Change is   -0.000015211540854
 Root     30 :    14.801386288918720   Change is   -0.000016831229493
 Convergence achieved on expansion vectors.
 ***********************************************************************
 Excited states from <AA,BB:AA,BB> singles matrix:
 ***********************************************************************
 
 1PDM for each excited state written to RWF  633
 Ground to excited state transition densities written to RWF  633
 Ground to excited state transition electric dipole moments (Au):
       state          X           Y           Z        Dip. S.      Osc.
         1        -0.0000     -0.0000      0.0000      0.0000      0.0000
         2        -0.0000      0.3738      0.0000      0.1397      0.0237
         3         0.0000      0.3796     -0.0000      0.1441      0.0271
         4         0.0000     -0.0000     -0.4639      0.2152      0.0418
         5        -0.0000     -0.0000      0.0000      0.0000      0.0000
         6         0.0745      0.0000     -0.0000      0.0055      0.0011
         7         0.0000      0.0000      0.8273      0.6845      0.1467
         8        -0.0000      0.0000      0.0000      0.0000      0.0000
         9        -0.4092      0.0000      0.0000      0.1675      0.0407
        10        -0.0000      0.5950     -0.0000      0.3540      0.0894
        11         0.4364      0.0000      0.0000      0.1905      0.0503
        12        -0.0000      0.0000      0.0000      0.0000      0.0000
        13         0.0000     -0.0480     -0.0000      0.0023      0.0006
        14        -0.0000      0.0000      0.0423      0.0018      0.0005
        15        -0.0000      0.0000     -0.2621      0.0687      0.0196
        16        -0.0000      0.0000     -0.6382      0.4072      0.1216
        17        -0.0000     -0.0000      0.0000      0.0000      0.0000
        18        -0.0000      0.0000      0.9579      0.9176      0.2799
        19        -0.0000     -0.3826      0.0000      0.1464      0.0452
        20        -0.0000     -0.5832      0.0000      0.3401      0.1056
        21         0.0000     -0.0000     -0.5001      0.2501      0.0799
        22         0.2506     -0.0000     -0.0000      0.0628      0.0201
        23        -0.2061      0.0000     -0.0000      0.0425      0.0137
        24         0.0000     -0.1836      0.0000      0.0337      0.0111
        25        -0.0000      0.3010      0.0000      0.0906      0.0302
        26        -0.0000      0.0000      0.0785      0.0062      0.0021
        27        -0.0000     -0.0000      0.0000      0.0000      0.0000
        28        -0.0000      0.0000      0.0000      0.0000      0.0000
        29        -0.0395      0.0000     -0.0000      0.0016      0.0006
        30        -0.0000      0.0000      0.2626      0.0690      0.0250
 Ground to excited state transition velocity dipole moments (Au):
       state          X           Y           Z        Dip. S.      Osc.
         1         0.0000      0.0000     -0.0000      0.0000      0.0000
         2        -0.0000     -0.0965     -0.0000      0.0093      0.0244
         3        -0.0000     -0.1118      0.0000      0.0125      0.0295
         4        -0.0000      0.0000      0.1321      0.0175      0.0400
         5         0.0000      0.0000     -0.0000      0.0000      0.0000
         6        -0.0363      0.0000     -0.0000      0.0013      0.0028
         7        -0.0000      0.0000     -0.2547      0.0649      0.1345
         8        -0.0000     -0.0000     -0.0000      0.0000      0.0000
         9         0.1530     -0.0000     -0.0000      0.0234      0.0428
        10        -0.0000     -0.2246      0.0000      0.0505      0.0888
        11        -0.1810     -0.0000     -0.0000      0.0328      0.0552
        12         0.0000      0.0000     -0.0000      0.0000      0.0000
        13         0.0000     -0.0025      0.0000      0.0000      0.0000
        14         0.0000     -0.0000     -0.0219      0.0005      0.0008
        15        -0.0000     -0.0000      0.1154      0.0133      0.0208
        16         0.0000     -0.0000      0.2784      0.0775      0.1154
        17         0.0000      0.0000     -0.0000      0.0000      0.0000
        18         0.0000     -0.0000     -0.4460      0.1989      0.2899
        19         0.0000      0.1749     -0.0000      0.0306      0.0440
        20         0.0000      0.2687     -0.0000      0.0722      0.1034
        21        -0.0000     -0.0000      0.2318      0.0537      0.0747
        22        -0.0990      0.0000      0.0000      0.0098      0.0136
        23         0.0953     -0.0000      0.0000      0.0091      0.0125
        24         0.0000      0.0954     -0.0000      0.0091      0.0123
        25         0.0000     -0.1519      0.0000      0.0231      0.0308
        26         0.0000      0.0000     -0.0332      0.0011      0.0014
        27         0.0000      0.0000      0.0000      0.0000      0.0000
        28         0.0000     -0.0000     -0.0000      0.0000      0.0000
        29         0.0273     -0.0000      0.0000      0.0007      0.0009
        30         0.0000     -0.0000     -0.1417      0.0201      0.0246
 Ground to excited state transition magnetic dipole moments (Au):
       state          X           Y           Z
         1         0.0000     -0.0000      1.1960
         2        -0.4170      0.0000      0.0000
         3         0.6759      0.0000      0.0000
         4        -0.0000     -0.0000      0.0000
         5         0.0000      0.0000     -0.0367
         6         0.0000     -1.5811     -0.0000
         7        -0.0000     -0.0000      0.0000
         8        -0.0000      0.0000     -0.7216
         9         0.0000     -0.0056      0.0000
        10        -0.7999     -0.0000      0.0000
        11        -0.0000      0.0832      0.0000
        12        -0.0000      0.0000      0.0377
        13         0.5181     -0.0000      0.0000
        14        -0.0000      0.0000      0.0000
        15         0.0000     -0.0000      0.0000
        16         0.0000      0.0000     -0.0000
        17         0.0000      0.0000     -0.0107
        18         0.0000     -0.0000      0.0000
        19        -0.1964      0.0000      0.0000
        20         0.3562      0.0000      0.0000
        21        -0.0000     -0.0000     -0.0000
        22        -0.0000     -0.1549     -0.0000
        23        -0.0000      0.3080      0.0000
        24        -0.5939     -0.0000      0.0000
        25        -0.5434     -0.0000     -0.0000
        26        -0.0000     -0.0000     -0.0000
        27         0.0000      0.0000     -0.0175
        28         0.0000     -0.0000      0.0355
        29         0.0000     -0.1822      0.0000
        30        -0.0000     -0.0000     -0.0000
 Ground to excited state transition velocity quadrupole moments (Au):
       state          XX          YY          ZZ          XY          XZ          YZ
         1        -0.0000     -0.0000     -0.0000     -0.0845     -0.0000     -0.0000
         2        -0.0000      0.0000      0.0000     -0.0000     -0.0000      0.4775
         3         0.0000      0.0000     -0.0000     -0.0000      0.0000     -0.0182
         4        -0.0377     -0.2919     -0.2651      0.0000     -0.0000      0.0000
         5         0.0000     -0.0000     -0.0000     -0.0625      0.0000     -0.0000
         6        -0.0000      0.0000      0.0000     -0.0000     -0.3228      0.0000
         7         0.2300     -0.0283     -0.2036     -0.0000      0.0000      0.0000
         8         0.0000     -0.0000      0.0000      0.2138      0.0000      0.0000
         9         0.0000     -0.0000      0.0000      0.0000     -0.1267      0.0000
        10        -0.0000     -0.0000     -0.0000      0.0000      0.0000      0.5083
        11         0.0000     -0.0000      0.0000      0.0000     -0.2866      0.0000
        12         0.0000     -0.0000      0.0000      0.2807      0.0000     -0.0000
        13        -0.0000      0.0000     -0.0000      0.0000      0.0000      0.3371
        14        -0.3339     -0.0888      0.1113      0.0000      0.0000      0.0000
        15         0.6444     -0.1286      0.0486      0.0000     -0.0000     -0.0000
        16        -0.2865     -0.7365     -0.7026      0.0000     -0.0000     -0.0000
        17         0.0000      0.0000      0.0000      0.3404     -0.0000     -0.0000
        18        -0.0756      0.2221      0.3296      0.0000     -0.0000      0.0000
        19        -0.0000      0.0000      0.0000     -0.0000     -0.0000     -0.2227
        20        -0.0000      0.0000      0.0000     -0.0000      0.0000     -0.6378
        21         0.2006      0.5137      0.2490      0.0000     -0.0000      0.0000
        22         0.0000      0.0000      0.0000      0.0000      0.0473     -0.0000
        23         0.0000      0.0000      0.0000      0.0000      0.0063      0.0000
        24        -0.0000     -0.0000     -0.0000      0.0000     -0.0000      0.1954
        25        -0.0000     -0.0000     -0.0000     -0.0000     -0.0000     -0.2804
        26         0.3322      1.0586      0.2492      0.0000     -0.0000      0.0000
        27         0.0000      0.0000     -0.0000     -0.2799      0.0000      0.0000
        28         0.0000      0.0000      0.0000      0.2833     -0.0000     -0.0000
        29        -0.0000     -0.0000     -0.0000     -0.0000     -0.0053      0.0000
        30        -0.1800      0.4583     -0.1451     -0.0000     -0.0000     -0.0000
 <0|del|b> * <b|rxdel|0> + <0|del|b> * <b|delr+rdel|0>
 Rotatory Strengths (R) in cgs (10**-40 erg-esu-cm/Gauss)
       state          XX          YY          ZZ    R(velocity)    E-M Angle
         1        -0.0000     -0.0000      0.0000     -0.0000       90.00
         2        -0.0000     -0.0000      0.0000      0.0000       90.00
         3         0.0000     -0.0000     -0.0000     -0.0000       90.00
         4         0.0000     -0.0000     -0.0000      0.0000       90.00
         5         0.0000     -0.0000      0.0000      0.0000       90.00
         6        -0.0000     -0.0000     -0.0000     -0.0000       90.00
         7         0.0000     -0.0000     -0.0000     -0.0000       90.00
         8         0.0000      0.0000      0.0000      0.0000       90.00
         9        -0.0000      0.0000      0.0000      0.0000       90.00
        10         0.0000      0.0000      0.0000      0.0000       90.00
        11        -0.0000      0.0000      0.0000      0.0000       90.00
        12        -0.0000      0.0000      0.0000     -0.0000       90.00
        13         0.0000      0.0000      0.0000      0.0000       90.00
        14        -0.0000     -0.0000     -0.0000     -0.0000       90.00
        15         0.0000     -0.0000      0.0000      0.0000       90.00
        16         0.0000     -0.0000      0.0000     -0.0000       90.00
        17        -0.0000      0.0000      0.0000      0.0000       90.00
        18        -0.0000     -0.0000      0.0000     -0.0000       90.00
        19         0.0000     -0.0000     -0.0000     -0.0000       90.00
        20         0.0000     -0.0000      0.0000      0.0000       90.00
        21         0.0000     -0.0000      0.0000     -0.0000       90.00
        22        -0.0000      0.0000     -0.0000     -0.0000       90.00
        23        -0.0000     -0.0000     -0.0000     -0.0000       90.00
        24        -0.0000     -0.0000     -0.0000     -0.0000       90.00
        25         0.0000     -0.0000     -0.0000     -0.0000       90.00
        26        -0.0000      0.0000     -0.0000      0.0000       90.00
        27        -0.0000      0.0000      0.0000     -0.0000       90.00
        28        -0.0000      0.0000      0.0000     -0.0000       90.00
        29         0.0000      0.0000      0.0000      0.0000       90.00
        30         0.0000     -0.0000      0.0000      0.0000       90.00
 1/2[<0|r|b>*<b|rxdel|0> + (<0|rxdel|b>*<b|r|0>)*]
 Rotatory Strengths (R) in cgs (10**-40 erg-esu-cm/Gauss)
       state          XX          YY          ZZ     R(length)
         1         0.0000     -0.0000     -0.0000     -0.0000
         2        -0.0000     -0.0000     -0.0000     -0.0000
         3        -0.0000     -0.0000      0.0000     -0.0000
         4         0.0000     -0.0000      0.0000      0.0000
         5         0.0000      0.0000      0.0000      0.0000
         6        -0.0000      0.0000     -0.0000      0.0000
         7         0.0000      0.0000     -0.0000     -0.0000
         8        -0.0000     -0.0000      0.0000      0.0000
         9         0.0000      0.0000     -0.0000      0.0000
        10        -0.0000      0.0000      0.0000     -0.0000
        11         0.0000     -0.0000     -0.0000      0.0000
        12        -0.0000     -0.0000     -0.0000     -0.0000
        13        -0.0000     -0.0000      0.0000     -0.0000
        14        -0.0000     -0.0000     -0.0000     -0.0000
        15         0.0000      0.0000      0.0000      0.0000
        16         0.0000     -0.0000     -0.0000     -0.0000
        17         0.0000      0.0000      0.0000      0.0000
        18         0.0000      0.0000     -0.0000     -0.0000
        19        -0.0000      0.0000     -0.0000     -0.0000
        20         0.0000      0.0000     -0.0000      0.0000
        21         0.0000     -0.0000     -0.0000     -0.0000
        22         0.0000     -0.0000     -0.0000     -0.0000
        23        -0.0000     -0.0000      0.0000     -0.0000
        24         0.0000     -0.0000     -0.0000     -0.0000
        25        -0.0000      0.0000      0.0000      0.0000
        26        -0.0000      0.0000      0.0000      0.0000
        27         0.0000      0.0000      0.0000      0.0000
        28         0.0000      0.0000     -0.0000     -0.0000
        29         0.0000      0.0000      0.0000      0.0000
        30        -0.0000      0.0000      0.0000      0.0000
  1/2[<0|del|b>*<b|r|0> + (<0|r|b>*<b|del|0>)*] (Au)
       state          X           Y           Z        Dip. S.   Osc.(frdel)
         1        -0.0000     -0.0000     -0.0000      0.0000      0.0000
         2         0.0000     -0.0361     -0.0000      0.0361      0.0241
         3        -0.0000     -0.0425     -0.0000      0.0425      0.0283
         4        -0.0000     -0.0000     -0.0613      0.0613      0.0409
         5        -0.0000     -0.0000     -0.0000      0.0000      0.0000
         6        -0.0027      0.0000      0.0000      0.0027      0.0018
         7        -0.0000      0.0000     -0.2108      0.2108      0.1405
         8         0.0000     -0.0000     -0.0000      0.0000      0.0000
         9        -0.0626     -0.0000     -0.0000      0.0626      0.0418
        10         0.0000     -0.1337     -0.0000      0.1337      0.0891
        11        -0.0790     -0.0000     -0.0000      0.0790      0.0527
        12        -0.0000      0.0000     -0.0000      0.0000      0.0000
        13         0.0000      0.0001     -0.0000     -0.0001     -0.0001
        14        -0.0000     -0.0000     -0.0009      0.0009      0.0006
        15         0.0000     -0.0000     -0.0302      0.0302      0.0202
        16        -0.0000     -0.0000     -0.1777      0.1777      0.1184
        17        -0.0000     -0.0000     -0.0000      0.0000      0.0000
        18        -0.0000     -0.0000     -0.4272      0.4272      0.2848
        19        -0.0000     -0.0669     -0.0000      0.0669      0.0446
        20        -0.0000     -0.1567     -0.0000      0.1567      0.1045
        21        -0.0000      0.0000     -0.1159      0.1159      0.0773
        22        -0.0248     -0.0000     -0.0000      0.0248      0.0165
        23        -0.0196     -0.0000     -0.0000      0.0196      0.0131
        24         0.0000     -0.0175     -0.0000      0.0175      0.0117
        25        -0.0000     -0.0457      0.0000      0.0457      0.0305
        26        -0.0000      0.0000     -0.0026      0.0026      0.0017
        27        -0.0000     -0.0000      0.0000      0.0000      0.0000
        28        -0.0000     -0.0000     -0.0000      0.0000      0.0000
        29        -0.0011     -0.0000     -0.0000      0.0011      0.0007
        30        -0.0000     -0.0000     -0.0372      0.0372      0.0248

 Excitation energies and oscillator strengths:
 
 Excited State   1:      Singlet-A2     3.6231 eV  342.20 nm  f=0.0000  <S**2>=0.000
       3 -> 27         0.00230
       3 -> 38         0.00193
       3 -> 45         0.00264
       4 -> 27         0.00170
       4 -> 38        -0.00049
       4 -> 45        -0.00135
       5 ->  9         0.02006
       5 -> 13        -0.00219
       5 -> 17         0.00535
       5 -> 23         0.00027
       5 -> 29         0.00436
       5 -> 31        -0.00189
       5 -> 37         0.00315
       5 -> 44         0.00058
       5 -> 47         0.00014
       5 -> 52         0.00072
       6 -> 27        -0.00024
       6 -> 38        -0.00086
       6 -> 45         0.00177
       7 -> 12        -0.00062
       7 -> 15         0.00312
       7 -> 18        -0.00298
       7 -> 22         0.00048
       7 -> 25         0.00142
       7 -> 30        -0.00098
       7 -> 33         0.00044
       7 -> 35         0.00021
       7 -> 40         0.00020
       7 -> 42        -0.00011
       7 -> 49         0.00028
       7 -> 50         0.00033
       7 -> 53         0.00047
       8 ->  9         0.70592
       8 -> 13        -0.03694
       8 -> 17         0.02277
       8 -> 23        -0.00946
       8 -> 29         0.00962
       8 -> 31        -0.00208
       8 -> 37         0.00011
       8 -> 47        -0.00026
       8 -> 52         0.00175
       3 <- 27         0.00146
       3 <- 38         0.00159
       3 <- 45         0.00273
       4 <- 27         0.00250
       4 <- 45        -0.00113
       5 <-  9        -0.00050
       5 <- 13        -0.00080
       5 <- 17        -0.00101
       5 <- 23         0.00052
       5 <- 29        -0.00070
       5 <- 31         0.00081
       5 <- 37         0.00153
       5 <- 44         0.00023
       5 <- 47         0.00015
       5 <- 52         0.00019
       6 <- 27         0.00035
       6 <- 38        -0.00076
       6 <- 45         0.00138
       7 <- 12        -0.00069
       7 <- 15        -0.00769
       7 <- 18         0.00070
       7 <- 22         0.00742
       7 <- 30         0.00372
       7 <- 33        -0.00126
       7 <- 35         0.00226
       7 <- 40         0.00094
       7 <- 50         0.00022
       7 <- 53         0.00132
       8 <-  9        -0.02667
       8 <- 13         0.00261
       8 <- 17        -0.00458
       8 <- 23         0.00078
       8 <- 29        -0.00114
       8 <- 31        -0.00070
       8 <- 37        -0.00129
       8 <- 52         0.00050
 This state for optimization and/or second-order correction.
 Total Energy, E(TD-HF/TD-DFT) =  -114.403866557    
 Copying the excited state density for this state as the 1-particle RhoCI density.
 
 Excited State   2:      Singlet-B2     6.9153 eV  179.29 nm  f=0.0237  <S**2>=0.000
       3 -> 12         0.00159
       3 -> 15         0.00069
       3 -> 18         0.00123
       3 -> 22        -0.00033
       3 -> 25         0.00125
       3 -> 33         0.00023
       3 -> 35        -0.00046
       3 -> 40        -0.00015
       4 -> 12        -0.00281
       4 -> 15         0.00195
       4 -> 18         0.00195
       4 -> 22        -0.00327
       4 -> 25         0.00321
       4 -> 30         0.00033
       4 -> 33        -0.00041
       4 -> 35         0.00052
       4 -> 40         0.00045
       4 -> 42        -0.00012
       5 -> 10        -0.00761
       5 -> 11        -0.00786
       5 -> 14         0.00702
       5 -> 16        -0.00073
       5 -> 19        -0.00119
       5 -> 20         0.00273
       5 -> 21         0.00586
       5 -> 24        -0.00034
       5 -> 26         0.00228
       5 -> 28         0.00106
       5 -> 32        -0.00101
       5 -> 34        -0.00100
       5 -> 36        -0.00018
       5 -> 39        -0.00027
       5 -> 41        -0.00043
       5 -> 43        -0.00051
       5 -> 46        -0.00027
       5 -> 54         0.00012
       6 -> 12        -0.00039
       6 -> 15         0.00148
       6 -> 18         0.00162
       6 -> 22        -0.00239
       6 -> 25         0.00105
       6 -> 30        -0.00053
       6 -> 33        -0.00025
       6 -> 35         0.00048
       6 -> 42        -0.00018
       6 -> 49         0.00046
       6 -> 50        -0.00026
       7 -> 27         0.00011
       7 -> 38        -0.00062
       7 -> 45         0.00031
       8 -> 10         0.70268
       8 -> 11        -0.07360
       8 -> 14         0.01700
       8 -> 16        -0.00504
       8 -> 19         0.00625
       8 -> 20         0.01660
       8 -> 21        -0.00260
       8 -> 26         0.00272
       8 -> 28         0.00089
       8 -> 32         0.00099
       8 -> 34         0.00095
       8 -> 36         0.00034
       8 -> 39         0.00034
       8 -> 41        -0.00021
       8 -> 43         0.00060
       8 -> 46        -0.00049
       8 -> 48         0.00015
       8 -> 51        -0.00011
       8 -> 54         0.00020
       3 <- 12         0.00037
       3 <- 15         0.00053
       3 <- 18         0.00046
       3 <- 22        -0.00049
       3 <- 25         0.00071
       3 <- 30        -0.00011
       3 <- 33         0.00019
       3 <- 35        -0.00041
       3 <- 40        -0.00017
       3 <- 49         0.00013
       4 <- 12         0.00077
       4 <- 15         0.00195
       4 <- 18         0.00186
       4 <- 22        -0.00203
       4 <- 25         0.00219
       4 <- 30         0.00024
       4 <- 33        -0.00021
       4 <- 35         0.00026
       4 <- 40         0.00012
       4 <- 42        -0.00023
       4 <- 50        -0.00013
       5 <- 10         0.00232
       5 <- 11        -0.00024
       5 <- 14         0.00473
       5 <- 16        -0.00062
       5 <- 19        -0.00020
       5 <- 20         0.00083
       5 <- 21         0.00189
       5 <- 24        -0.00204
       5 <- 26         0.00148
       5 <- 28         0.00013
       5 <- 32        -0.00073
       5 <- 34        -0.00092
       5 <- 36        -0.00026
       5 <- 39        -0.00015
       5 <- 41        -0.00024
       5 <- 43        -0.00039
       5 <- 46        -0.00024
       6 <- 15        -0.00017
       6 <- 18         0.00105
       6 <- 22        -0.00058
       6 <- 25         0.00035
       6 <- 30         0.00032
       6 <- 33        -0.00031
       6 <- 35         0.00055
       6 <- 42        -0.00016
       6 <- 49         0.00038
       6 <- 50        -0.00027
       6 <- 53         0.00015
       7 <- 27         0.00012
       7 <- 38        -0.00046
       7 <- 45         0.00029
       8 <- 10        -0.00156
       8 <- 11        -0.00054
       8 <- 14        -0.00477
       8 <- 16        -0.00050
       8 <- 19         0.00010
       8 <- 20        -0.00067
       8 <- 21        -0.00162
       8 <- 24         0.00202
       8 <- 26        -0.00080
       8 <- 28        -0.00048
       8 <- 32         0.00100
       8 <- 36         0.00032
       8 <- 39         0.00025
       8 <- 43         0.00039
       8 <- 46        -0.00030
 
 Excited State   3:      Singlet-B2     7.6781 eV  161.48 nm  f=0.0271  <S**2>=0.000
       3 -> 12        -0.00034
       3 -> 15        -0.00093
       3 -> 18         0.00103
       3 -> 22         0.00048
       3 -> 30         0.00240
       3 -> 33         0.00015
       3 -> 35        -0.00058
       3 -> 40        -0.00050
       3 -> 49         0.00056
       3 -> 50        -0.00019
       4 -> 12         0.00254
       4 -> 15         0.00031
       4 -> 18         0.00201
       4 -> 22        -0.00149
       4 -> 25         0.00286
       4 -> 30        -0.00135
       4 -> 33         0.00049
       4 -> 35        -0.00057
       4 -> 42        -0.00011
       4 -> 49         0.00024
       5 -> 10        -0.00614
       5 -> 11        -0.00021
       5 -> 14         0.00954
       5 -> 16        -0.00695
       5 -> 19        -0.00107
       5 -> 20        -0.00480
       5 -> 21         0.00218
       5 -> 24        -0.00088
       5 -> 26         0.00145
       5 -> 28         0.00157
       5 -> 32        -0.00015
       5 -> 34        -0.00091
       5 -> 36        -0.00035
       5 -> 39         0.00044
       5 -> 41        -0.00069
       5 -> 43         0.00018
       5 -> 46         0.00090
       5 -> 51        -0.00042
       6 -> 12        -0.00291
       6 -> 15        -0.00154
       6 -> 18        -0.00077
       6 -> 22         0.00115
       6 -> 25         0.00017
       6 -> 30         0.00113
       6 -> 33        -0.00055
       6 -> 35         0.00149
       6 -> 40         0.00110
       6 -> 49        -0.00125
       6 -> 50         0.00033
       6 -> 53         0.00011
       7 -> 27         0.00016
       7 -> 38        -0.00085
       7 -> 45        -0.00195
       8 -> 10         0.07383
       8 -> 11         0.70223
       8 -> 14        -0.00284
       8 -> 16         0.00915
       8 -> 19        -0.03357
       8 -> 20         0.00160
       8 -> 21        -0.00292
       8 -> 24         0.00013
       8 -> 26        -0.00084
       8 -> 28         0.00185
       8 -> 32         0.00013
       8 -> 34        -0.00020
       8 -> 36        -0.00019
       8 -> 39        -0.00025
       8 -> 41        -0.00113
       8 -> 43         0.00037
       8 -> 46         0.00224
       8 -> 48        -0.00012
       8 -> 51        -0.00105
       3 <- 12         0.00034
       3 <- 15        -0.00029
       3 <- 18         0.00098
       3 <- 25         0.00024
       3 <- 30         0.00131
       3 <- 33         0.00026
       3 <- 35        -0.00061
       3 <- 40        -0.00046
       3 <- 49         0.00050
       3 <- 50        -0.00013
       3 <- 53        -0.00032
       4 <- 12         0.00031
       4 <- 15         0.00083
       4 <- 18         0.00045
       4 <- 22        -0.00115
       4 <- 25         0.00121
       4 <- 30        -0.00069
       4 <- 33         0.00045
       4 <- 35        -0.00027
       4 <- 42        -0.00011
       4 <- 49         0.00018
       5 <- 10         0.00121
       5 <- 11        -0.00132
       5 <- 14         0.00271
       5 <- 16        -0.00043
       5 <- 19         0.00135
       5 <- 20        -0.00044
       5 <- 21         0.00079
       5 <- 24        -0.00140
       5 <- 28         0.00066
       5 <- 32        -0.00093
       5 <- 36         0.00014
       5 <- 39         0.00011
       5 <- 41        -0.00072
       5 <- 46         0.00086
       5 <- 48        -0.00013
       5 <- 51        -0.00030
       6 <- 12        -0.00029
       6 <- 15        -0.00096
       6 <- 18         0.00029
       6 <- 22         0.00086
       6 <- 25        -0.00014
       6 <- 30         0.00103
       6 <- 33        -0.00045
       6 <- 35         0.00128
       6 <- 40         0.00087
       6 <- 49        -0.00102
       6 <- 50         0.00026
       7 <- 27         0.00032
       7 <- 38        -0.00068
       7 <- 45        -0.00163
       8 <- 10        -0.00077
       8 <- 11        -0.00156
       8 <- 14        -0.00362
       8 <- 16         0.00042
       8 <- 19         0.00503
       8 <- 20        -0.00022
       8 <- 21        -0.00197
       8 <- 24        -0.00044
       8 <- 26        -0.00166
       8 <- 28         0.00053
       8 <- 32        -0.00123
       8 <- 34         0.00156
       8 <- 39        -0.00067
       8 <- 41        -0.00104
       8 <- 43         0.00018
       8 <- 46         0.00179
       8 <- 48        -0.00029
       8 <- 51        -0.00070
 
 Excited State   4:      Singlet-A1     7.9194 eV  156.56 nm  f=0.0418  <S**2>=0.000
       3 -> 10         0.00216
       3 -> 11        -0.00043
       3 -> 14         0.00124
       3 -> 19        -0.00165
       3 -> 20         0.00218
       3 -> 21         0.00104
       3 -> 24         0.00081
       3 -> 26         0.00131
       3 -> 28         0.00085
       3 -> 32         0.00015
       3 -> 34        -0.00082
       3 -> 36        -0.00016
       3 -> 41        -0.00019
       3 -> 46         0.00019
       3 -> 48        -0.00030
       3 -> 51        -0.00015
       3 -> 54        -0.00017
       4 -> 10         0.00485
       4 -> 11         0.00442
       4 -> 14         0.00452
       4 -> 16         0.00064
       4 -> 19         0.00024
       4 -> 20         0.00315
       4 -> 21        -0.00041
       4 -> 24        -0.00687
       4 -> 26         0.00216
       4 -> 28        -0.00029
       4 -> 32        -0.00062
       4 -> 34         0.00022
       4 -> 43         0.00016
       4 -> 46        -0.00020
       4 -> 51        -0.00013
       5 -> 12         0.00562
       5 -> 15         0.00336
       5 -> 18         0.00924
       5 -> 22        -0.00260
       5 -> 25         0.00549
       5 -> 30        -0.00033
       5 -> 33        -0.00021
       5 -> 35         0.00074
       5 -> 50         0.00016
       5 -> 53        -0.00012
       6 -> 10         0.01071
       6 -> 11        -0.00243
       6 -> 14         0.00403
       6 -> 16        -0.00025
       6 -> 19         0.00206
       6 -> 20         0.00212
       6 -> 21        -0.00113
       6 -> 24        -0.00462
       6 -> 26        -0.00046
       6 -> 28        -0.00228
       6 -> 32        -0.00027
       6 -> 34        -0.00013
       6 -> 39         0.00020
       6 -> 43         0.00015
       6 -> 48         0.00071
       6 -> 51         0.00019
       6 -> 54        -0.00012
       7 ->  9         0.03201
       7 -> 13         0.01215
       7 -> 17         0.00068
       7 -> 23         0.00517
       7 -> 29        -0.00087
       7 -> 31        -0.00098
       7 -> 37         0.00058
       7 -> 44         0.00061
       7 -> 47        -0.00032
       8 -> 12         0.70538
       8 -> 15         0.00101
       8 -> 18         0.02947
       8 -> 22         0.00251
       8 -> 25         0.00469
       8 -> 30        -0.00078
       8 -> 33         0.00170
       8 -> 35        -0.00201
       8 -> 40         0.00038
       8 -> 49        -0.00047
       8 -> 50         0.00025
       8 -> 53        -0.00025
       3 <- 10         0.00066
       3 <- 11         0.00035
       3 <- 14         0.00064
       3 <- 16         0.00015
       3 <- 19        -0.00103
       3 <- 20         0.00095
       3 <- 21         0.00070
       3 <- 24         0.00022
       3 <- 26         0.00090
       3 <- 28         0.00056
       3 <- 32         0.00026
       3 <- 34        -0.00056
       3 <- 36        -0.00011
       3 <- 41        -0.00011
       3 <- 46         0.00027
       3 <- 48        -0.00024
       3 <- 51        -0.00013
       3 <- 54        -0.00015
       4 <- 10         0.00398
       4 <- 11         0.00085
       4 <- 14         0.00331
       4 <- 20         0.00182
       4 <- 21        -0.00039
       4 <- 24        -0.00370
       4 <- 26         0.00132
       4 <- 32        -0.00081
       4 <- 34        -0.00019
       4 <- 41        -0.00012
       4 <- 43         0.00012
       4 <- 46        -0.00014
       4 <- 51        -0.00012
       5 <- 12         0.00272
       5 <- 15         0.00297
       5 <- 18         0.00329
       5 <- 22        -0.00100
       5 <- 25         0.00298
       5 <- 30        -0.00018
       5 <- 33        -0.00036
       5 <- 35         0.00066
       5 <- 53        -0.00010
       6 <- 10         0.00253
       6 <- 14         0.00152
       6 <- 16        -0.00013
       6 <- 19         0.00051
       6 <- 20         0.00095
       6 <- 21        -0.00073
       6 <- 24        -0.00223
       6 <- 28        -0.00148
       6 <- 32        -0.00034
       6 <- 34        -0.00017
       6 <- 46        -0.00016
       6 <- 48         0.00058
       6 <- 51         0.00022
       6 <- 54        -0.00010
       7 <-  9        -0.00198
       7 <- 13         0.00248
       7 <- 17        -0.00021
       7 <- 23         0.00260
       7 <- 29        -0.00069
       7 <- 31        -0.00065
       7 <- 37         0.00045
       7 <- 44         0.00052
       7 <- 47        -0.00028
       8 <- 12        -0.00043
       8 <- 15        -0.00389
       8 <- 18        -0.00163
       8 <- 22         0.00018
       8 <- 25        -0.00133
       8 <- 30        -0.00113
       8 <- 33         0.00064
       8 <- 35        -0.00075
       8 <- 40         0.00045
       8 <- 42         0.00011
       8 <- 49        -0.00046
       8 <- 50         0.00015
       8 <- 53        -0.00025
 
 Excited State   5:      Singlet-A2     8.4368 eV  146.96 nm  f=0.0000  <S**2>=0.000
       3 -> 27        -0.00039
       3 -> 38        -0.00034
       3 -> 45        -0.00015
       4 -> 27         0.00015
       4 -> 38         0.00044
       5 ->  9        -0.00139
       5 -> 13        -0.00583
       5 -> 17         0.00664
       5 -> 23        -0.00225
       5 -> 29        -0.00023
       5 -> 31         0.00124
       5 -> 37        -0.00085
       5 -> 44        -0.00018
       6 -> 27         0.00023
       6 -> 38         0.00030
       6 -> 45        -0.00016
       7 -> 12         0.00023
       7 -> 15        -0.00193
       7 -> 18         0.00203
       7 -> 22        -0.00075
       7 -> 35        -0.00012
       8 ->  9         0.03636
       8 -> 13         0.70557
       8 -> 17         0.02267
       8 -> 23         0.01577
       8 -> 29         0.00021
       8 -> 31         0.00175
       8 -> 37        -0.00041
       8 -> 47         0.00016
       3 <- 38        -0.00020
       3 <- 45        -0.00022
       5 <-  9        -0.00042
       5 <- 13        -0.00031
       5 <- 17         0.00046
       5 <- 37        -0.00018
       6 <- 38         0.00018
       7 <- 12        -0.00052
       7 <- 15        -0.00109
       7 <- 18         0.00079
       7 <- 22        -0.00083
       7 <- 25        -0.00043
       7 <- 30         0.00024
       7 <- 33         0.00033
       7 <- 35        -0.00053
       7 <- 40        -0.00033
       8 <-  9         0.00119
       8 <- 13         0.00117
       8 <- 17         0.00024
       8 <- 23        -0.00011
       8 <- 37         0.00010
 
 Excited State   6:      Singlet-B1     8.4453 eV  146.81 nm  f=0.0011  <S**2>=0.000
       3 ->  9        -0.03334
       3 -> 13         0.00516
       3 -> 17        -0.00708
       3 -> 23         0.00408
       3 -> 29        -0.00263
       3 -> 31        -0.00021
       3 -> 44         0.00066
       3 -> 47         0.00013
       3 -> 52         0.00113
       4 ->  9         0.01691
       4 -> 13        -0.00277
       4 -> 17         0.00100
       4 -> 23        -0.00249
       4 -> 31        -0.00255
       4 -> 37        -0.00039
       4 -> 47        -0.00163
       4 -> 52        -0.00098
       5 -> 27        -0.00177
       5 -> 38         0.00214
       5 -> 45         0.00296
       6 ->  9         0.70493
       6 -> 13        -0.03588
       6 -> 17         0.02306
       6 -> 23        -0.01246
       6 -> 29         0.00814
       6 -> 31         0.00360
       6 -> 37        -0.00262
       6 -> 44        -0.00351
       6 -> 47         0.00561
       6 -> 52         0.00197
       7 -> 10         0.00336
       7 -> 11         0.00976
       7 -> 14         0.00075
       7 -> 16        -0.01269
       7 -> 19        -0.00399
       7 -> 20         0.00287
       7 -> 21         0.00404
       7 -> 24         0.00311
       7 -> 26         0.00284
       7 -> 28        -0.00461
       7 -> 32        -0.00130
       7 -> 36        -0.00157
       7 -> 39         0.00036
       7 -> 41        -0.00223
       7 -> 43         0.00105
       7 -> 46         0.00503
       7 -> 48         0.00227
       7 -> 51         0.00108
       7 -> 54         0.00054
       8 -> 27         0.00318
       8 -> 38         0.00106
       8 -> 45         0.00686
       3 <-  9        -0.01031
       3 <- 13         0.00089
       3 <- 17        -0.00338
       3 <- 23         0.00060
       3 <- 29        -0.00154
       3 <- 37        -0.00017
       3 <- 47         0.00042
       3 <- 52         0.00092
       4 <-  9         0.00521
       4 <- 17         0.00250
       4 <- 23        -0.00033
       4 <- 29         0.00222
       4 <- 31        -0.00255
       4 <- 37         0.00024
       4 <- 44         0.00020
       4 <- 47        -0.00140
       4 <- 52        -0.00053
       5 <- 27        -0.00174
       5 <- 38         0.00161
       5 <- 45         0.00260
       6 <-  9        -0.02113
       6 <- 13         0.00340
       6 <- 17        -0.00308
       6 <- 23         0.00082
       6 <- 29        -0.00181
       6 <- 31         0.00328
       6 <- 37        -0.00272
       6 <- 44        -0.00217
       6 <- 47         0.00487
       6 <- 52         0.00071
       7 <- 10         0.00154
       7 <- 11         0.00241
       7 <- 14         0.00056
       7 <- 16         0.00024
       7 <- 19        -0.00600
       7 <- 20         0.00841
       7 <- 21         0.00706
       7 <- 24         0.00702
       7 <- 26         0.00477
       7 <- 28         0.00087
       7 <- 32        -0.00128
       7 <- 34         0.00150
       7 <- 36        -0.00249
       7 <- 39         0.00057
       7 <- 41        -0.00157
       7 <- 43         0.00103
       7 <- 46         0.00446
       7 <- 48         0.00182
       7 <- 51         0.00074
       7 <- 54         0.00099
       8 <- 27         0.00270
       8 <- 38         0.00103
       8 <- 45         0.00597
 
 Excited State   7:      Singlet-A1     8.7509 eV  141.68 nm  f=0.1467  <S**2>=0.000
       3 -> 10         0.00397
       3 -> 11         0.01221
       3 -> 14         0.00554
       3 -> 16        -0.00143
       3 -> 19        -0.01953
       3 -> 20         0.00889
       3 -> 21         0.00827
       3 -> 24         0.00842
       3 -> 26         0.01100
       3 -> 28         0.00328
       3 -> 32         0.00353
       3 -> 34        -0.00360
       3 -> 36        -0.00286
       3 -> 39         0.00175
       3 -> 41         0.00031
       3 -> 43         0.00096
       3 -> 46         0.00180
       3 -> 48         0.00036
       3 -> 51        -0.00022
       3 -> 54         0.00026
       4 -> 10         0.03397
       4 -> 11        -0.01289
       4 -> 14         0.01896
       4 -> 16         0.00020
       4 -> 19         0.01208
       4 -> 20         0.00844
       4 -> 21         0.00152
       4 -> 24        -0.00943
       4 -> 26         0.00580
       4 -> 28         0.00057
       4 -> 32        -0.00151
       4 -> 34         0.00344
       4 -> 36         0.00097
       4 -> 39        -0.00017
       4 -> 46        -0.00097
       4 -> 48        -0.00134
       4 -> 51         0.00011
       5 -> 12         0.04165
       5 -> 15         0.04459
       5 -> 18         0.00428
       5 -> 22        -0.00350
       5 -> 25         0.01633
       5 -> 30        -0.00498
       5 -> 33        -0.00251
       5 -> 35         0.00035
       5 -> 40         0.00156
       5 -> 42         0.00087
       5 -> 49         0.00048
       5 -> 50        -0.00035
       5 -> 53        -0.00049
       6 -> 10        -0.02311
       6 -> 11        -0.02924
       6 -> 14        -0.00704
       6 -> 16        -0.02857
       6 -> 19         0.04543
       6 -> 20        -0.05378
       6 -> 21        -0.03272
       6 -> 24        -0.03151
       6 -> 26        -0.01753
       6 -> 28        -0.01299
       6 -> 32        -0.00016
       6 -> 34        -0.00391
       6 -> 36         0.00327
       6 -> 39        -0.00024
       6 -> 41        -0.00141
       6 -> 46         0.00095
       6 -> 48         0.00164
       6 -> 51         0.00060
       7 ->  9         0.66855
       7 -> 13         0.04364
       7 -> 17        -0.02858
       7 -> 23         0.01128
       7 -> 29        -0.00609
       7 -> 37        -0.00024
       7 -> 44        -0.00055
       7 -> 47         0.00051
       7 -> 52         0.00098
       8 -> 12        -0.03099
       8 -> 15         0.19522
       8 -> 18        -0.02566
       8 -> 22        -0.05737
       8 -> 25         0.00595
       8 -> 30        -0.01473
       8 -> 33         0.00736
       8 -> 35        -0.00892
       8 -> 40        -0.00332
       8 -> 42        -0.00044
       8 -> 49         0.00054
       8 -> 50         0.00050
       8 -> 53        -0.00112
       3 <- 10         0.00178
       3 <- 11         0.00655
       3 <- 14         0.00376
       3 <- 16        -0.00022
       3 <- 19        -0.01172
       3 <- 20         0.00570
       3 <- 21         0.00636
       3 <- 24         0.00588
       3 <- 26         0.00716
       3 <- 28         0.00230
       3 <- 32         0.00297
       3 <- 34        -0.00212
       3 <- 36        -0.00201
       3 <- 39         0.00129
       3 <- 41         0.00017
       3 <- 43         0.00088
       3 <- 46         0.00193
       3 <- 48         0.00061
       3 <- 51        -0.00021
       3 <- 54         0.00025
       4 <- 10         0.01033
       4 <- 11        -0.00432
       4 <- 14         0.00670
       4 <- 16        -0.00022
       4 <- 19         0.00589
       4 <- 20         0.00419
       4 <- 21         0.00054
       4 <- 24        -0.00506
       4 <- 26         0.00378
       4 <- 28        -0.00015
       4 <- 32        -0.00187
       4 <- 34         0.00236
       4 <- 36         0.00054
       4 <- 39        -0.00012
       4 <- 41        -0.00023
       4 <- 46        -0.00042
       4 <- 48        -0.00126
       4 <- 51         0.00028
       5 <- 12         0.00912
       5 <- 15         0.01372
       5 <- 18         0.00203
       5 <- 22        -0.00167
       5 <- 25         0.00812
       5 <- 30        -0.00271
       5 <- 33        -0.00170
       5 <- 35         0.00047
       5 <- 40         0.00129
       5 <- 42         0.00064
       5 <- 49         0.00039
       5 <- 50        -0.00032
       5 <- 53        -0.00040
       6 <- 10        -0.00345
       6 <- 11        -0.00466
       6 <- 14        -0.00157
       6 <- 16        -0.00797
       6 <- 19         0.01498
       6 <- 20        -0.02002
       6 <- 21        -0.01416
       6 <- 24        -0.01552
       6 <- 26        -0.00981
       6 <- 28        -0.00756
       6 <- 34        -0.00291
       6 <- 36         0.00223
       6 <- 41        -0.00092
       6 <- 46         0.00045
       6 <- 48         0.00135
       6 <- 51         0.00041
       7 <-  9        -0.07844
       7 <- 13         0.01451
       7 <- 17        -0.01351
       7 <- 23         0.00894
       7 <- 29        -0.00605
       7 <- 31         0.00107
       7 <- 37        -0.00045
       7 <- 52         0.00078
       8 <- 12         0.00107
       8 <- 15         0.02400
       8 <- 18        -0.00413
       8 <- 22        -0.01928
       8 <- 25         0.00168
       8 <- 30        -0.00813
       8 <- 33         0.00459
       8 <- 35        -0.00581
       8 <- 40        -0.00246
       8 <- 42        -0.00035
       8 <- 49         0.00033
       8 <- 50         0.00037
       8 <- 53        -0.00095
 
 Excited State   8:      Singlet-A2     9.5147 eV  130.31 nm  f=0.0000  <S**2>=0.000
       3 -> 27        -0.00093
       3 -> 38        -0.00044
       3 -> 45         0.00067
       4 -> 27        -0.00578
       4 -> 38         0.00055
       4 -> 45        -0.00074
       5 ->  9         0.70460
       5 -> 13        -0.04251
       5 -> 17         0.01383
       5 -> 23        -0.01488
       5 -> 29         0.00299
       5 -> 31        -0.00044
       5 -> 37        -0.00501
       5 -> 44        -0.00193
       5 -> 47        -0.00014
       5 -> 52         0.00043
       6 -> 27        -0.00150
       6 -> 38         0.00174
       6 -> 45         0.00074
       7 -> 12         0.01813
       7 -> 15         0.01481
       7 -> 18         0.00135
       7 -> 22        -0.00557
       7 -> 25         0.00112
       7 -> 30        -0.00122
       7 -> 35        -0.00078
       7 -> 40        -0.00024
       7 -> 42        -0.00023
       7 -> 49        -0.00040
       7 -> 50        -0.00063
       7 -> 53         0.00014
       8 ->  9        -0.02085
       8 -> 13         0.00131
       8 -> 17         0.01889
       8 -> 23         0.00234
       8 -> 29         0.00352
       8 -> 31         0.00029
       8 -> 37         0.00398
       8 -> 44         0.00033
       8 -> 47         0.00016
       8 -> 52         0.00069
       3 <- 27        -0.00141
       3 <- 38        -0.00058
       3 <- 45         0.00089
       4 <- 27        -0.00443
       4 <- 38         0.00058
       4 <- 45        -0.00022
       5 <-  9        -0.00952
       5 <- 13         0.00213
       5 <- 17        -0.00101
       5 <- 23         0.00014
       5 <- 29         0.00051
       5 <- 31        -0.00231
       5 <- 37        -0.00284
       5 <- 44        -0.00033
       5 <- 47        -0.00028
       5 <- 52         0.00015
       6 <- 27        -0.00153
       6 <- 38         0.00118
       6 <- 45         0.00047
       7 <- 12        -0.00161
       7 <- 15        -0.00201
       7 <- 22        -0.00165
       7 <- 25        -0.00236
       7 <- 30         0.00092
       7 <- 33         0.00043
       7 <- 35        -0.00068
       7 <- 40        -0.00055
       7 <- 42        -0.00047
       7 <- 49        -0.00055
       7 <- 50        -0.00070
       7 <- 53         0.00047
       8 <-  9         0.00029
       8 <- 13        -0.00043
       8 <- 17        -0.00157
       8 <- 23         0.00067
       8 <- 29        -0.00229
       8 <- 31         0.00265
       8 <- 37         0.00153
       8 <- 44        -0.00012
       8 <- 47         0.00013
       8 <- 52         0.00013
 
 Excited State   9:      Singlet-B1     9.9229 eV  124.95 nm  f=0.0407  <S**2>=0.000
       3 ->  9         0.00310
       3 -> 13         0.00130
       3 -> 17         0.00046
       3 -> 23        -0.00037
       3 -> 29        -0.00033
       3 -> 31        -0.00036
       3 -> 44        -0.00040
       3 -> 47         0.00020
       3 -> 52        -0.00015
       4 ->  9         0.01475
       4 -> 13        -0.00079
       4 -> 23        -0.00232
       4 -> 31         0.00101
       4 -> 37        -0.00049
       4 -> 44        -0.00012
       4 -> 47        -0.00025
       5 -> 27         0.00147
       5 -> 38         0.00073
       5 -> 45        -0.00031
[...]
  46        4PY        -0.00000  -0.00000  -0.03596  -0.08375  -0.11848
  47        4PZ        -0.00265   0.00000   0.01247   0.01921   0.01026
  48        5S         -0.00135   0.00000   0.00427   0.00732   0.00561
  49        5PX         0.00000   0.00000   0.00000   0.00000   0.00000
  50        5PY        -0.00000  -0.00000  -0.01914  -0.03499  -0.03251
  51        5PZ        -0.00025   0.00000   0.00266   0.00348   0.00054
  52        6D 0        0.00030   0.00000  -0.00081  -0.00139  -0.00113
  53        6D+1        0.00000  -0.00000   0.00000   0.00000   0.00000
  54        6D-1        0.00000  -0.00000  -0.00231  -0.00224   0.00240
  55        6D+2        0.00002   0.00000  -0.00007  -0.00008  -0.00001
  56        6D-2        0.00000   0.00000   0.00000   0.00000   0.00000
                          26        27        28        29        30
  26        4PX         0.00023
  27        4PY         0.00000   0.00111
  28        4PZ         0.00000  -0.00047   0.00044
  29 3   H  1S          0.00000  -0.00218  -0.00217   0.08016
  30        2S          0.00000  -0.00251  -0.00346   0.11629   0.17320
  31        3S          0.00000  -0.00014  -0.00178   0.04702   0.08108
  32        4PX         0.00023   0.00000   0.00000   0.00000   0.00000
  33        4PY         0.00000  -0.00053  -0.00007   0.00786   0.01023
  34        4PZ         0.00000   0.00007  -0.00010   0.00439   0.00605
  35 4   O  1S          0.00000  -0.00020  -0.00086   0.00238   0.00191
  36        2S          0.00000  -0.00050  -0.00097   0.00401   0.00376
  37        2PX         0.00507   0.00000   0.00000   0.00000   0.00000
  38        2PY         0.00000  -0.00350   0.00162   0.02084   0.05436
  39        2PZ         0.00000  -0.00143  -0.00330   0.01214   0.01949
  40        3S          0.00000   0.00221   0.00138  -0.01339  -0.01454
  41        3PX         0.00747   0.00000   0.00000   0.00000   0.00000
  42        3PY         0.00000  -0.00513   0.00241   0.02939   0.07759
  43        3PZ         0.00000  -0.00202  -0.00470   0.01723   0.02765
  44        4S          0.00000   0.00142  -0.00128  -0.00641  -0.00343
  45        4PX         0.00615   0.00000   0.00000   0.00000   0.00000
  46        4PY         0.00000  -0.00386   0.00140   0.03596   0.08375
  47        4PZ         0.00000  -0.00158  -0.00251   0.01247   0.01921
  48        5S          0.00000  -0.00041  -0.00165   0.00427   0.00732
  49        5PX         0.00055   0.00000   0.00000   0.00000   0.00000
  50        5PY         0.00000   0.00002  -0.00058   0.01914   0.03499
  51        5PZ         0.00000  -0.00043   0.00007   0.00266   0.00348
  52        6D 0        0.00000   0.00008   0.00036  -0.00081  -0.00139
  53        6D+1       -0.00050   0.00000   0.00000   0.00000   0.00000
  54        6D-1        0.00000   0.00043  -0.00034   0.00231   0.00224
  55        6D+2        0.00000   0.00001   0.00001  -0.00007  -0.00008
  56        6D-2       -0.00000   0.00000   0.00000   0.00000   0.00000
                          31        32        33        34        35
  31        3S          0.06532
  32        4PX         0.00000   0.00023
  33        4PY         0.00130   0.00000   0.00111
  34        4PZ         0.00147   0.00000   0.00047   0.00044
  35 4   O  1S          0.00081   0.00000   0.00020  -0.00086   0.64001
  36        2S          0.00095   0.00000   0.00050  -0.00097   0.56956
  37        2PX         0.00000   0.00507   0.00000   0.00000   0.00000
  38        2PY         0.08722   0.00000  -0.00350  -0.00162  -0.00000
  39        2PZ         0.01215   0.00000   0.00143  -0.00330  -0.01141
  40        3S         -0.00161   0.00000  -0.00221   0.00138  -0.13668
  41        3PX         0.00000   0.00747   0.00000   0.00000   0.00000
  42        3PY         0.12597   0.00000  -0.00513  -0.00241  -0.00000
  43        3PZ         0.01726   0.00000   0.00202  -0.00470  -0.01391
  44        4S          0.00627   0.00000  -0.00142  -0.00128  -0.13390
  45        4PX         0.00000   0.00615   0.00000   0.00000   0.00000
  46        4PY         0.11848   0.00000  -0.00386  -0.00140  -0.00000
  47        4PZ         0.01026   0.00000   0.00158  -0.00251  -0.01275
  48        5S          0.00561   0.00000   0.00041  -0.00165  -0.00006
  49        5PX         0.00000   0.00055   0.00000   0.00000   0.00000
  50        5PY         0.03251   0.00000   0.00002   0.00058  -0.00000
  51        5PZ         0.00054   0.00000   0.00043   0.00007  -0.00139
  52        6D 0       -0.00113   0.00000  -0.00008   0.00036  -0.00067
  53        6D+1        0.00000  -0.00050   0.00000   0.00000   0.00000
  54        6D-1       -0.00240   0.00000   0.00043   0.00034   0.00000
  55        6D+2       -0.00001   0.00000  -0.00001   0.00001  -0.00073
  56        6D-2        0.00000   0.00000   0.00000   0.00000   0.00000
                          36        37        38        39        40
  36        2S          0.52416
  37        2PX         0.00000   0.11134
  38        2PY        -0.00000   0.00000   0.18392
  39        2PZ        -0.01784  -0.00000  -0.00000   0.13222
  40        3S         -0.23035   0.00000   0.00000   0.05180   0.71240
  41        3PX         0.00000   0.16417   0.00000   0.00000   0.00000
  42        3PY        -0.00000   0.00000   0.26687   0.00000   0.00000
  43        3PZ        -0.02262  -0.00000  -0.00000   0.18735   0.06889
  44        4S         -0.20879   0.00000   0.00000   0.12807   0.59273
  45        4PX         0.00000   0.13519   0.00000   0.00000   0.00000
  46        4PY        -0.00000   0.00000   0.23647   0.00000   0.00000
  47        4PZ        -0.02146  -0.00000  -0.00000   0.11003   0.06709
  48        5S         -0.00389   0.00000   0.00000   0.06252   0.02469
  49        5PX         0.00000   0.01204   0.00000   0.00000   0.00000
  50        5PY        -0.00000   0.00000   0.04870   0.00000   0.00000
  51        5PZ        -0.00219  -0.00000  -0.00000   0.00332   0.00619
  52        6D 0       -0.00127   0.00000   0.00000  -0.01199   0.00428
  53        6D+1       -0.00000  -0.01092   0.00000  -0.00000   0.00000
  54        6D-1       -0.00000   0.00000  -0.01010  -0.00000   0.00000
  55        6D+2       -0.00118   0.00000   0.00000   0.00023   0.00350
  56        6D-2        0.00000  -0.00000  -0.00000   0.00000   0.00000
                          41        42        43        44        45
  41        3PX         0.24207
  42        3PY         0.00000   0.38725
  43        3PZ        -0.00000  -0.00000   0.26550
  44        4S          0.00000   0.00000   0.17788   0.55051
  45        4PX         0.19934   0.00000   0.00000   0.00000   0.16415
  46        4PY         0.00000   0.34296   0.00000   0.00000   0.00000
  47        4PZ        -0.00000  -0.00000   0.15575   0.12492  -0.00000
  48        5S          0.00000   0.00000   0.08862   0.06069   0.00000
  49        5PX         0.01775   0.00000   0.00000   0.00000   0.01462
  50        5PY         0.00000   0.07041   0.00000   0.00000   0.00000
  51        5PZ        -0.00000  -0.00000   0.00466   0.00674  -0.00000
  52        6D 0        0.00000   0.00000  -0.01706  -0.00465   0.00000
  53        6D+1       -0.01611   0.00000  -0.00000   0.00000  -0.01326
  54        6D-1        0.00000  -0.01472  -0.00000  -0.00000   0.00000
  55        6D+2        0.00000   0.00000   0.00031   0.00290   0.00000
  56        6D-2       -0.00000  -0.00000   0.00000   0.00000  -0.00000
                          46        47        48        49        50
  46        4PY         0.30584
  47        4PZ        -0.00000   0.09271
  48        5S          0.00000   0.05192   0.02977
  49        5PX         0.00000   0.00000   0.00000   0.00130
  50        5PY         0.06528   0.00000   0.00000   0.00000   0.01686
  51        5PZ        -0.00000   0.00318   0.00141  -0.00000  -0.00000
  52        6D 0        0.00000  -0.00962  -0.00571   0.00000   0.00000
  53        6D+1        0.00000  -0.00000  -0.00000  -0.00118   0.00000
  54        6D-1       -0.01231  -0.00000  -0.00000   0.00000  -0.00167
  55        6D+2        0.00000   0.00031   0.00011  -0.00000   0.00000
  56        6D-2       -0.00000   0.00000   0.00000  -0.00000   0.00000
                          51        52        53        54        55
  51        5PZ         0.00034
  52        6D 0       -0.00019   0.00122
  53        6D+1       -0.00000  -0.00000   0.00107
  54        6D-1       -0.00000  -0.00000   0.00000   0.00081
  55        6D+2        0.00003   0.00002  -0.00000  -0.00000   0.00002
  56        6D-2        0.00000   0.00000   0.00000   0.00000   0.00000
                          56
  56        6D-2        0.00000
          Condensed to atoms (all electrons):
               1          2          3          4
     1  C    4.855029   0.378170   0.378170   0.383259
     2  H    0.378170   0.647821  -0.092437  -0.059594
     3  H    0.378170  -0.092437   0.647821  -0.059594
     4  O    0.383259  -0.059594  -0.059594   7.993382
 Mulliken charges:
               1
     1  C    0.005372
     2  H    0.126040
     3  H    0.126040
     4  O   -0.257452
 Sum of Mulliken charges =   0.00000
 Mulliken charges with hydrogens summed into heavy atoms:
               1
     1  C    0.257452
     4  O   -0.257452
 Electronic spatial extent (au):  <R**2>=             63.1774
 Charge=              0.0000 electrons
 Dipole moment (field-independent basis, Debye):
    X=             -0.0000    Y=              0.0000    Z=             -2.7359  Tot=              2.7359
 Quadrupole moment (field-independent basis, Debye-Ang):
   XX=            -11.9212   YY=            -11.7304   ZZ=            -12.2860
   XY=              0.0000   XZ=              0.0000   YZ=              0.0000
 Traceless Quadrupole moment (field-independent basis, Debye-Ang):
   XX=              0.0580   YY=              0.2488   ZZ=             -0.3068
   XY=              0.0000   XZ=              0.0000   YZ=              0.0000
 Octapole moment (field-independent basis, Debye-Ang**2):
  XXX=              0.0000  YYY=             -0.0000  ZZZ=             -0.2459  XYY=             -0.0000
  XXY=             -0.0000  XXZ=              0.6268  XZZ=             -0.0000  YZZ=              0.0000
  YYZ=             -0.8773  XYZ=             -0.0000
 Hexadecapole moment (field-independent basis, Debye-Ang**3):
 XXXX=            -11.0961 YYYY=            -18.7410 ZZZZ=            -49.2631 XXXY=             -0.0000
 XXXZ=             -0.0000 YYYX=             -0.0000 YYYZ=             -0.0000 ZZZX=             -0.0000
 ZZZY=              0.0000 XXYY=             -5.3068 XXZZ=            -10.1340 YYZZ=            -10.8910
 XXYZ=             -0.0000 YYXZ=              0.0000 ZZXY=              0.0000
 N-N= 3.025170349663D+01 E-N=-3.294130747679D+02  KE= 1.139319038194D+02
 Symmetry A1   KE= 1.034954573636D+02
 Symmetry A2   KE= 1.231271527196D-35
 Symmetry B1   KE= 3.654140244807D+00
 Symmetry B2   KE= 6.782306211033D+00
 Leave Link  601 at Fri Sep 17 10:52:45 2021, MaxMem=   268435456 cpu:               0.0 elap:               0.1
 (Enter /software/gaussian/g16-a03/l9999.exe)
 Electronic transition elements 
                 1             2             3             4             5 
      1  -0.114404D+03 -0.114283D+03 -0.114255D+03 -0.114246D+03 -0.114227D+03
      2   0.000000D+00  0.000000D+00  0.000000D+00  0.000000D+00  0.000000D+00
      3   0.000000D+00  0.373757D+00  0.379646D+00  0.000000D+00  0.000000D+00
      4   0.000000D+00  0.000000D+00  0.000000D+00 -0.463893D+00  0.000000D+00
      5   0.000000D+00  0.000000D+00  0.000000D+00  0.000000D+00  0.000000D+00
      6   0.000000D+00 -0.965354D-01 -0.111827D+00  0.000000D+00  0.000000D+00
      7   0.000000D+00  0.000000D+00  0.000000D+00  0.132148D+00  0.000000D+00
      8   0.000000D+00 -0.417000D+00  0.675926D+00  0.000000D+00  0.000000D+00
      9   0.000000D+00  0.000000D+00  0.000000D+00  0.000000D+00  0.000000D+00
     10   0.119600D+01  0.000000D+00  0.000000D+00  0.000000D+00 -0.366783D-01
     11   0.000000D+00  0.000000D+00  0.000000D+00 -0.377300D-01  0.000000D+00
     12   0.000000D+00  0.000000D+00  0.000000D+00 -0.291915D+00  0.000000D+00
     13   0.000000D+00  0.000000D+00  0.000000D+00 -0.265091D+00  0.000000D+00
     14  -0.844679D-01  0.000000D+00  0.000000D+00  0.000000D+00 -0.625132D-01
     15   0.000000D+00  0.000000D+00  0.000000D+00  0.000000D+00  0.000000D+00
     16   0.000000D+00  0.477494D+00 -0.181761D-01  0.000000D+00  0.000000D+00
                 6             7             8             9            10 
      1  -0.114227D+03 -0.114215D+03 -0.114187D+03 -0.114172D+03 -0.114158D+03
      2   0.744824D-01  0.000000D+00  0.000000D+00 -0.409235D+00  0.000000D+00
      3   0.000000D+00  0.000000D+00  0.000000D+00  0.000000D+00  0.594974D+00
      4   0.000000D+00  0.827337D+00  0.000000D+00  0.000000D+00  0.000000D+00
      5  -0.362980D-01  0.000000D+00  0.000000D+00  0.153044D+00  0.000000D+00
      6   0.000000D+00  0.000000D+00  0.000000D+00  0.000000D+00 -0.224639D+00
      7   0.000000D+00 -0.254743D+00  0.000000D+00  0.000000D+00  0.000000D+00
      8   0.000000D+00  0.000000D+00  0.000000D+00  0.000000D+00 -0.799919D+00
      9  -0.158110D+01  0.000000D+00  0.000000D+00 -0.564137D-02  0.000000D+00
     10   0.000000D+00  0.000000D+00 -0.721564D+00  0.000000D+00  0.000000D+00
     11   0.000000D+00  0.230030D+00  0.000000D+00  0.000000D+00  0.000000D+00
     12   0.000000D+00 -0.283289D-01  0.000000D+00  0.000000D+00  0.000000D+00
     13   0.000000D+00 -0.203590D+00  0.000000D+00  0.000000D+00  0.000000D+00
     14   0.000000D+00  0.000000D+00  0.213823D+00  0.000000D+00  0.000000D+00
     15  -0.322809D+00  0.000000D+00  0.000000D+00 -0.126677D+00  0.000000D+00
     16   0.000000D+00  0.000000D+00  0.000000D+00  0.000000D+00  0.508349D+00
                11            12            13            14            15 
      1  -0.114141D+03 -0.114136D+03 -0.114115D+03 -0.114112D+03 -0.114110D+03
      2   0.436410D+00  0.000000D+00  0.000000D+00  0.000000D+00  0.000000D+00
      3   0.000000D+00  0.000000D+00 -0.479509D-01  0.000000D+00  0.000000D+00
      4   0.000000D+00  0.000000D+00  0.000000D+00  0.422538D-01 -0.262058D+00
      5  -0.181000D+00  0.000000D+00  0.000000D+00  0.000000D+00  0.000000D+00
      6   0.000000D+00  0.000000D+00 -0.254430D-02  0.000000D+00  0.000000D+00
      7   0.000000D+00  0.000000D+00  0.000000D+00 -0.219437D-01  0.115427D+00
      8   0.000000D+00  0.000000D+00  0.518052D+00  0.000000D+00  0.000000D+00
      9   0.831775D-01  0.000000D+00  0.000000D+00  0.000000D+00  0.000000D+00
     10   0.000000D+00  0.376552D-01  0.000000D+00  0.000000D+00  0.000000D+00
     11   0.000000D+00  0.000000D+00  0.000000D+00 -0.333871D+00  0.644443D+00
     12   0.000000D+00  0.000000D+00  0.000000D+00 -0.888364D-01 -0.128607D+00
     13   0.000000D+00  0.000000D+00  0.000000D+00  0.111325D+00  0.485668D-01
     14   0.000000D+00  0.280713D+00  0.000000D+00  0.000000D+00  0.000000D+00
     15  -0.286578D+00  0.000000D+00  0.000000D+00  0.000000D+00  0.000000D+00
     16   0.000000D+00  0.000000D+00  0.337080D+00  0.000000D+00  0.000000D+00
                16            17            18            19            20 
      1  -0.114089D+03 -0.114084D+03 -0.114079D+03 -0.114073D+03 -0.114071D+03
      2   0.000000D+00  0.000000D+00  0.000000D+00  0.000000D+00  0.000000D+00
      3   0.000000D+00  0.000000D+00  0.000000D+00 -0.382581D+00 -0.583188D+00
      4  -0.638153D+00  0.000000D+00  0.957900D+00  0.000000D+00  0.000000D+00
      5   0.000000D+00  0.000000D+00  0.000000D+00  0.000000D+00  0.000000D+00
      6   0.000000D+00  0.000000D+00  0.000000D+00  0.174918D+00  0.268731D+00
      7   0.278413D+00  0.000000D+00 -0.446014D+00  0.000000D+00  0.000000D+00
      8   0.000000D+00  0.000000D+00  0.000000D+00 -0.196389D+00  0.356165D+00
      9   0.000000D+00  0.000000D+00  0.000000D+00  0.000000D+00  0.000000D+00
     10   0.000000D+00 -0.107390D-01  0.000000D+00  0.000000D+00  0.000000D+00
     11  -0.286494D+00  0.000000D+00 -0.756418D-01  0.000000D+00  0.000000D+00
     12  -0.736452D+00  0.000000D+00  0.222139D+00  0.000000D+00  0.000000D+00
     13  -0.702580D+00  0.000000D+00  0.329577D+00  0.000000D+00  0.000000D+00
     14   0.000000D+00  0.340379D+00  0.000000D+00  0.000000D+00  0.000000D+00
     15   0.000000D+00  0.000000D+00  0.000000D+00  0.000000D+00  0.000000D+00
     16   0.000000D+00  0.000000D+00  0.000000D+00 -0.222676D+00 -0.637801D+00
                21            22            23            24            25 
      1  -0.114058D+03 -0.114057D+03 -0.114054D+03 -0.114044D+03 -0.114037D+03
      2   0.000000D+00  0.250566D+00 -0.206072D+00  0.000000D+00  0.000000D+00
      3   0.000000D+00  0.000000D+00  0.000000D+00 -0.183577D+00  0.300994D+00
      4  -0.500056D+00  0.000000D+00  0.000000D+00  0.000000D+00  0.000000D+00
      5   0.000000D+00 -0.989776D-01  0.953100D-01  0.000000D+00  0.000000D+00
      6   0.000000D+00  0.000000D+00  0.000000D+00  0.953654D-01 -0.151935D+00
      7   0.231815D+00  0.000000D+00  0.000000D+00  0.000000D+00  0.000000D+00
      8   0.000000D+00  0.000000D+00  0.000000D+00 -0.593861D+00 -0.543443D+00
      9   0.000000D+00 -0.154868D+00  0.307962D+00  0.000000D+00  0.000000D+00
     10   0.000000D+00  0.000000D+00  0.000000D+00  0.000000D+00  0.000000D+00
     11   0.200614D+00  0.000000D+00  0.000000D+00  0.000000D+00  0.000000D+00
     12   0.513723D+00  0.000000D+00  0.000000D+00  0.000000D+00  0.000000D+00
     13   0.249042D+00  0.000000D+00  0.000000D+00  0.000000D+00  0.000000D+00
     14   0.000000D+00  0.000000D+00  0.000000D+00  0.000000D+00  0.000000D+00
     15   0.000000D+00  0.473277D-01  0.631940D-02  0.000000D+00  0.000000D+00
     16   0.000000D+00  0.000000D+00  0.000000D+00  0.195364D+00 -0.280438D+00
                26            27            28            29            30 
      1  -0.114023D+03 -0.114019D+03 -0.114015D+03 -0.114004D+03 -0.113993D+03
      2   0.000000D+00  0.000000D+00  0.000000D+00 -0.395341D-01  0.000000D+00
      3   0.000000D+00  0.000000D+00  0.000000D+00  0.000000D+00  0.000000D+00
      4   0.785001D-01  0.000000D+00  0.000000D+00  0.000000D+00  0.262584D+00
      5   0.000000D+00  0.000000D+00  0.000000D+00  0.272710D-01  0.000000D+00
      6   0.000000D+00  0.000000D+00  0.000000D+00  0.000000D+00  0.000000D+00
      7  -0.332179D-01  0.000000D+00  0.000000D+00  0.000000D+00 -0.141724D+00
      8   0.000000D+00  0.000000D+00  0.000000D+00  0.000000D+00  0.000000D+00
      9   0.000000D+00  0.000000D+00  0.000000D+00 -0.182205D+00  0.000000D+00
     10   0.000000D+00 -0.174580D-01  0.354615D-01  0.000000D+00  0.000000D+00
     11   0.332181D+00  0.000000D+00  0.000000D+00  0.000000D+00 -0.179994D+00
     12   0.105863D+01  0.000000D+00  0.000000D+00  0.000000D+00  0.458346D+00
     13   0.249215D+00  0.000000D+00  0.000000D+00  0.000000D+00 -0.145142D+00
     14   0.000000D+00 -0.279922D+00  0.283252D+00  0.000000D+00  0.000000D+00
     15   0.000000D+00  0.000000D+00  0.000000D+00 -0.526266D-02  0.000000D+00
     16   0.000000D+00  0.000000D+00  0.000000D+00  0.000000D+00  0.000000D+00

 Test job not archived.
 1\1\GINC-BHD0013\SP\RB3LYP TD-FC\6-311+G(d,p)\C1H2O1\BWEIGHT\17-Sep-20
 21\0\\#p B3LYP/6-311+G** #p TD=(singlets,nstates=30)IOp(6/8=3) IOp(9/4
 0=4)\\Scan Step 152, Bond Length 1.26\\0,1\C,0,0.,0.,-0.52736\H,0,0.,0
 .93726,-1.11871\H,0,0.,-0.93726,-1.11871\O,0,0.,0.,0.73264\\Version=ES
 64L-G16RevA.03\State=1-A1\HF=-114.5370142\RMSD=4.206e-09\PG=C02V [C2(C
 1O1),SGV(H2)]\\@


 THE MEEK SHALL INHERIT THE EARTH.
 (THE REST OF US WILL ESCAPE TO THE STARS)
 Job cpu time:       0 days  0 hours  0 minutes 26.0 seconds.
 Elapsed time:       0 days  0 hours  0 minutes 27.0 seconds.
 File lengths (MBytes):  RWF=     79 Int=      0 D2E=      0 Chk=     32 Scr=      1
 Normal termination of Gaussian 16 at Fri Sep 17 10:52:45 2021.
