 Entering Gaussian System, Link 0=g16
 Initial command:
 /software/gaussian/g16-c01/sse4/g16/l1.exe "/local_scratch/24657437/Gau-28436.inp" -scrdir="/local_scratch/24657437/"
 Entering Link 1 = /software/gaussian/g16-c01/sse4/g16/l1.exe PID=     28448.
  
 Copyright (c) 1988-2019, Gaussian, Inc.  All Rights Reserved.
  
 This is part of the Gaussian(R) 16 program.  It is based on
 the Gaussian(R) 09 system (copyright 2009, Gaussian, Inc.),
 the Gaussian(R) 03 system (copyright 2003, Gaussian, Inc.),
 the Gaussian(R) 98 system (copyright 1998, Gaussian, Inc.),
 the Gaussian(R) 94 system (copyright 1995, Gaussian, Inc.),
 the Gaussian 92(TM) system (copyright 1992, Gaussian, Inc.),
 the Gaussian 90(TM) system (copyright 1990, Gaussian, Inc.),
 the Gaussian 88(TM) system (copyright 1988, Gaussian, Inc.),
 the Gaussian 86(TM) system (copyright 1986, Carnegie Mellon
 University), and the Gaussian 82(TM) system (copyright 1983,
 Carnegie Mellon University). Gaussian is a federally registered
 trademark of Gaussian, Inc.
  
 This software contains proprietary and confidential information,
 including trade secrets, belonging to Gaussian, Inc.
  
 This software is provided under written license and may be
 used, copied, transmitted, or stored only in accord with that
 written license.
  
 The following legend is applicable only to US Government
 contracts under FAR:
  
                    RESTRICTED RIGHTS LEGEND
  
 Use, reproduction and disclosure by the US Government is
 subject to restrictions as set forth in subparagraphs (a)
 and (c) of the Commercial Computer Software - Restricted
 Rights clause in FAR 52.227-19.
  
 Gaussian, Inc.
 340 Quinnipiac St., Bldg. 40, Wallingford CT 06492
  
  
 ---------------------------------------------------------------
 Warning -- This program may not be used in any manner that
 competes with the business of Gaussian, Inc. or will provide
 assistance to any competitor of Gaussian, Inc.  The licensee
 of this program is prohibited from giving any competitor of
 Gaussian, Inc. access to this program.  By using this program,
 the user acknowledges that Gaussian, Inc. is engaged in the
 business of creating and licensing software in the field of
 computational chemistry and represents and warrants to the
 licensee that it is not a competitor of Gaussian, Inc. and that
 it will not use this program in any manner prohibited above.
 ---------------------------------------------------------------
  

 Cite this work as:
 Gaussian 16, Revision C.01,
 M. J. Frisch, G. W. Trucks, H. B. Schlegel, G. E. Scuseria, 
 M. A. Robb, J. R. Cheeseman, G. Scalmani, V. Barone, 
 G. A. Petersson, H. Nakatsuji, X. Li, M. Caricato, A. V. Marenich, 
 J. Bloino, B. G. Janesko, R. Gomperts, B. Mennucci, H. P. Hratchian, 
 J. V. Ortiz, A. F. Izmaylov, J. L. Sonnenberg, D. Williams-Young, 
 F. Ding, F. Lipparini, F. Egidi, J. Goings, B. Peng, A. Petrone, 
 T. Henderson, D. Ranasinghe, V. G. Zakrzewski, J. Gao, N. Rega, 
 G. Zheng, W. Liang, M. Hada, M. Ehara, K. Toyota, R. Fukuda, 
 J. Hasegawa, M. Ishida, T. Nakajima, Y. Honda, O. Kitao, H. Nakai, 
 T. Vreven, K. Throssell, J. A. Montgomery, Jr., J. E. Peralta, 
 F. Ogliaro, M. J. Bearpark, J. J. Heyd, E. N. Brothers, K. N. Kudin, 
 V. N. Staroverov, T. A. Keith, R. Kobayashi, J. Normand, 
 K. Raghavachari, A. P. Rendell, J. C. Burant, S. S. Iyengar, 
 J. Tomasi, M. Cossi, J. M. Millam, M. Klene, C. Adamo, R. Cammi, 
 J. W. Ochterski, R. L. Martin, K. Morokuma, O. Farkas, 
 J. B. Foresman, and D. J. Fox, Gaussian, Inc., Wallingford CT, 2019.
 
 ******************************************
 Gaussian 16:  ES64L-G16RevC.01  3-Jul-2019
                 1-May-2024 
 ******************************************
 %chk=geometry.chk
 %mem=9GB
 %nprocshared=12
 Will use up to   12 processors via shared memory.
 ---------------------------------------
 #P wB97XD/6-311+G* NoSymm #P Field=X-38
 ---------------------------------------
 1/38=1,172=1/1;
 2/12=2,15=1,17=6,18=5,40=1/2;
 3/5=4,6=6,7=11,11=2,14=1,15=-38,25=1,30=1,74=-58/1,2,3;
 4//1;
 5/5=2,38=5/2;
 6/7=2,8=2,9=2,10=2,28=1/1;
 99/5=1,9=1/99;
 Leave Link    1 at Wed May  1 14:27:44 2024, MaxMem=  1207959552 cpu:               1.6 elap:               1.6
 (Enter /software/gaussian/g16-c01/sse4/g16/l101.exe)
 -------
 TitleMe
 -------
 Symbolic Z-matrix:
 Charge =  1 Multiplicity = 1
 C                     0.0295    1.3397    0.0682 
 C                     1.4348    1.2867    0.0064 
 C                     2.1118    0.0511   -0.0054 
 C                     1.4451   -1.1372    0.0312 
 C                    -0.6879    0.1682    0.11 
 H                    -0.4713    2.2984    0.0781 
 H                     2.0273    2.1965   -0.0322 
 H                     1.9897   -2.0764    0.0232 
 H                    -1.7716    0.1804    0.1582 
 N                     3.5864    0.051    -0.0675 
 O                     4.1471   -1.0597   -0.0881 
 O                     4.145     1.1639   -0.0901 
 C                    -0.0236   -1.1458    0.0835 
 H                    -0.4367   -1.8725    0.7889 
 Br                   -0.5359   -1.8697   -1.7408 
 
 ITRead=  0  0  0  0  0  0  0  0  0  0  0  0  0  0  0
 MicOpt= -1 -1 -1 -1 -1 -1 -1 -1 -1 -1 -1 -1 -1 -1 -1
 NAtoms=     15 NQM=       15 NQMF=       0 NMMI=      0 NMMIF=      0
                NMic=       0 NMicF=      0.
                    Isotopes and Nuclear Properties:
 (Nuclear quadrupole moments (NQMom) in fm**2, nuclear magnetic moments (NMagM)
  in nuclear magnetons)

  Atom         1           2           3           4           5           6           7           8           9          10
 IAtWgt=          12          12          12          12          12           1           1           1           1          14
 AtmWgt=  12.0000000  12.0000000  12.0000000  12.0000000  12.0000000   1.0078250   1.0078250   1.0078250   1.0078250  14.0030740
 NucSpn=           0           0           0           0           0           1           1           1           1           2
 AtZEff=  -0.0000000  -0.0000000  -0.0000000  -0.0000000  -0.0000000  -0.0000000  -0.0000000  -0.0000000  -0.0000000  -0.0000000
 NQMom=    0.0000000   0.0000000   0.0000000   0.0000000   0.0000000   0.0000000   0.0000000   0.0000000   0.0000000   2.0440000
 NMagM=    0.0000000   0.0000000   0.0000000   0.0000000   0.0000000   2.7928460   2.7928460   2.7928460   2.7928460   0.4037610
 AtZNuc=   6.0000000   6.0000000   6.0000000   6.0000000   6.0000000   1.0000000   1.0000000   1.0000000   1.0000000   7.0000000

  Atom        11          12          13          14          15
 IAtWgt=          16          16          12           1          79
 AtmWgt=  15.9949146  15.9949146  12.0000000   1.0078250  78.9183361
 NucSpn=           0           0           0           1           3
 AtZEff=  -0.0000000  -0.0000000  -0.0000000  -0.0000000  -0.0000000
 NQMom=    0.0000000   0.0000000   0.0000000   0.0000000  31.3000000
 NMagM=    0.0000000   0.0000000   0.0000000   2.7928460   2.1063990
 AtZNuc=   8.0000000   8.0000000   6.0000000   1.0000000  35.0000000
 Leave Link  101 at Wed May  1 14:27:45 2024, MaxMem=  1207959552 cpu:               1.4 elap:               1.4
 (Enter /software/gaussian/g16-c01/sse4/g16/l202.exe)
                          Input orientation:                          
 ---------------------------------------------------------------------
 Center     Atomic      Atomic             Coordinates (Angstroms)
 Number     Number       Type             X           Y           Z
 ---------------------------------------------------------------------
      1          6           0        0.029500    1.339700    0.068200
      2          6           0        1.434800    1.286700    0.006400
      3          6           0        2.111800    0.051100   -0.005400
      4          6           0        1.445100   -1.137200    0.031200
      5          6           0       -0.687900    0.168200    0.110000
      6          1           0       -0.471300    2.298400    0.078100
      7          1           0        2.027300    2.196500   -0.032200
      8          1           0        1.989700   -2.076400    0.023200
      9          1           0       -1.771600    0.180400    0.158200
     10          7           0        3.586400    0.051000   -0.067500
     11          8           0        4.147100   -1.059700   -0.088100
     12          8           0        4.145000    1.163900   -0.090100
     13          6           0       -0.023600   -1.145800    0.083500
     14          1           0       -0.436700   -1.872500    0.788900
     15         35           0       -0.535900   -1.869700   -1.740800
 ---------------------------------------------------------------------
                    Distance matrix (angstroms):
                    1          2          3          4          5
     1  C    0.000000
     2  C    1.407656   0.000000
     3  C    2.449874   1.408963   0.000000
     4  C    2.853126   2.424049   1.363043   0.000000
     5  C    1.374344   2.401589   2.804523   2.501993   0.000000
     6  H    1.081667   2.159142   3.424870   3.934226   2.141421
     7  H    2.176095   1.086408   2.147231   3.384750   3.392128
     8  H    3.938800   3.408612   2.131193   1.085702   3.495040
     9  H    2.143837   3.395283   3.888995   3.478413   1.084840
    10  N    3.785591   2.482297   1.475907   2.450862   4.279589
    11  O    4.768247   3.587631   2.320164   2.705743   4.992415
    12  O    4.122294   2.714696   2.319353   3.549540   4.938459
    13  C    2.486114   2.837240   2.449573   1.469656   1.472614
    14  H    3.324903   3.754379   3.290289   2.157764   2.165286
    15  Br   3.727252   4.110867   3.702891   2.756973   2.757100
                    6          7          8          9         10
     6  H    0.000000
     7  H    2.503108   0.000000
     8  H    5.019802   4.273425   0.000000
     9  H    2.486588   4.304945   4.388479   0.000000
    10  N    4.640790   2.652397   2.661486   5.364313   0.000000
    11  O    5.712624   3.885809   2.387560   6.052233   1.244373
    12  O    4.756638   2.356750   3.893289   6.002923   1.245428
    13  C    3.473180   3.923079   2.218790   2.195425   3.806210
    14  H    4.231175   4.827242   2.552506   2.528663   4.540772
    15  Br   4.548146   5.101303   3.087568   3.055498   4.845862
                   11         12         13         14         15
    11  O    0.000000
    12  O    2.223602   0.000000
    13  C    4.175117   4.768865   0.000000
    14  H    4.737193   5.566358   1.093770   0.000000
    15  Br   5.031700   5.817075   2.028436   2.531646   0.000000
 Symmetry turned off by external request.
 Stoichiometry    C6H5BrNO2(1+)
 Framework group  C1[X(C6H5BrNO2)]
 Deg. of freedom    39
 Full point group                 C1      NOp   1
 Rotational constants (GHZ):           1.8252210           0.5518633           0.4576002
 Leave Link  202 at Wed May  1 14:27:47 2024, MaxMem=  1207959552 cpu:               1.2 elap:               1.2
 (Enter /software/gaussian/g16-c01/sse4/g16/l301.exe)
 Standard basis: 6-311+G(d) (5D, 7F)
 Ernie: Thresh=  0.10000D-02 Tol=  0.10000D-05 Strict=F.
 The following finite field(s) will be applied:
 An electric field of             -0.0038  0.0000  0.0000
   261 basis functions,   443 primitive gaussians,   273 cartesian basis functions
    49 alpha electrons       49 beta electrons
       nuclear repulsion energy       739.2122215416 Hartrees.
 IExCor= 4639 DFT=T Ex+Corr=wB97XD ExCW=0 ScaHFX=  1.000000
 ScaDFX=  1.000000  1.000000  1.000000  1.000000 ScalE2=  1.000000  1.000000
 IRadAn=      5 IRanWt=     -1 IRanGd=            0 ICorTp=0 IEmpDi=121
 HFx  wShort=  0.000000 wLong=  0.200000 cFull=  0.222036 cShort=  0.000000 cLong=  0.777964
 DFx  wShort=  0.000000 wLong=  0.200000 cFull=  0.000000 cShort=  0.000000 cLong=  1.000000
 NAtoms=   15 NActive=   15 NUniq=   15 SFac= 1.00D+00 NAtFMM=   60 NAOKFM=F Big=F
 Integral buffers will be    131072 words long.
 Raffenetti 2 integral format.
 Two-electron integral symmetry is turned off.
 R6Disp:  Grimme-D2 Dispersion energy=       -0.0077368520 Hartrees.
 Nuclear repulsion after empirical dispersion term =      739.2044846896 Hartrees.
 Leave Link  301 at Wed May  1 14:27:48 2024, MaxMem=  1207959552 cpu:               0.9 elap:               0.9
 (Enter /software/gaussian/g16-c01/sse4/g16/l302.exe)
 NPDir=0 NMtPBC=     1 NCelOv=     1 NCel=       1 NClECP=     1 NCelD=      1
         NCelK=      1 NCelE2=     1 NClLst=     1 CellRange=     0.0.
 One-electron integrals computed using PRISM.
 NBasis=   261 RedAO= T EigKep=  2.35D-06  NBF=   261
 NBsUse=   261 1.00D-06 EigRej= -1.00D+00 NBFU=   261
 Precomputing XC quadrature grid using
 IXCGrd= 4 IRadAn=           5 IRanWt=          -1 IRanGd=           0 AccXCQ= 0.00D+00.
 Generated NRdTot=       0 NPtTot=           0 NUsed=           0 NTot=          32
 NSgBfM=   273   273   273   273   273 MxSgAt=    15 MxSgA2=    15.
 Leave Link  302 at Wed May  1 14:28:09 2024, MaxMem=  1207959552 cpu:              21.1 elap:              21.1
 (Enter /software/gaussian/g16-c01/sse4/g16/l303.exe)
 DipDrv:  MaxL=1.
 The nuclear repulsion energy is now       738.4872454507 hartrees.
 Leave Link  303 at Wed May  1 14:28:12 2024, MaxMem=  1207959552 cpu:               3.2 elap:               3.2
 (Enter /software/gaussian/g16-c01/sse4/g16/l401.exe)
 ExpMin= 3.50D-02 ExpMax= 4.40D+05 ExpMxC= 1.51D+04 IAcc=3 IRadAn=         5 AccDes= 0.00D+00
 Harris functional with IExCor= 4639 and IRadAn=       5 diagonalized for initial guess.
 HarFok:  IExCor= 4639 AccDes= 0.00D+00 IRadAn=         5 IDoV= 1 UseB2=F ITyADJ=14
 ICtDFT=  3500011 ScaDFX=  1.000000  1.000000  1.000000  1.000000
 FoFCou: FMM=F IPFlag=           0 FMFlag=      100000 FMFlg1=           0
         NFxFlg=           0 DoJE=T BraDBF=F KetDBF=T FulRan=T
         wScrn=  0.000000 ICntrl=       500 IOpCl=  0 I1Cent=   200000004 NGrid=           0
         NMat0=    1 NMatS0=      1 NMatT0=    0 NMatD0=    1 NMtDS0=    0 NMtDT0=    0
 Symmetry not used in FoFCou.
 Harris En= -2970.59934292006    
 JPrj=0 DoOrth=F DoCkMO=F.
 Leave Link  401 at Wed May  1 14:28:42 2024, MaxMem=  1207959552 cpu:              29.4 elap:              29.4
 (Enter /software/gaussian/g16-c01/sse4/g16/l502.exe)
 Two-electron integral symmetry not used.
 Closed shell SCF:
 Using DIIS extrapolation, IDIIS=  1040.
 NGot=  1207959552 LenX=  1207804877 LenY=  1207729907
 Requested convergence on RMS density matrix=1.00D-08 within 128 cycles.
 Requested convergence on MAX density matrix=1.00D-06.
 Requested convergence on             energy=1.00D-06.
 No special actions if energy rises.
 Fock matrices will be formed incrementally for  20 cycles.

 Cycle   1  Pass 1  IDiag  1:
 FoFJK:  IHMeth= 1 ICntrl=       0 DoSepK=T KAlg= 0 I1Cent=           0 FoldK=F
 IRaf=         1 NMat=       1 IRICut=       1 DoRegI=T DoRafI=F ISym2E= 0 IDoP0=0 IntGTp=1.
 FoFCou: FMM=F IPFlag=           0 FMFlag=      100000 FMFlg1=           0
         NFxFlg=           0 DoJE=T BraDBF=F KetDBF=F FulRan=T
         wScrn=  0.000000 ICntrl=       500 IOpCl=  0 I1Cent=           0 NGrid=           0
         NMat0=    1 NMatS0=      1 NMatT0=    0 NMatD0=    1 NMtDS0=    0 NMtDT0=    0
 Symmetry not used in FoFCou.
 E= -3009.69569483171    
 DIIS: error= 3.20D-01 at cycle   1 NSaved=   1.
 NSaved= 1 IEnMin= 1 EnMin= -3009.69569483171     IErMin= 1 ErrMin= 3.20D-01
 ErrMax= 3.20D-01  0.00D+00 EMaxC= 1.00D-01 BMatC= 1.19D+01 BMatP= 1.19D+01
 IDIUse=3 WtCom= 0.00D+00 WtEn= 1.00D+00
 Coeff-Com:  0.100D+01
 Coeff-En:   0.100D+01
 Coeff:      0.100D+01
 Gap=     0.356 Goal=   None    Shift=    0.000
 GapD=    0.356 DampG=1.000 DampE=0.250 DampFc=0.2500 IDamp=-1.
 Damping current iteration by 2.50D-01
 RMSDP=4.14D-02 MaxDP=4.32D+00              OVMax= 2.48D-01

 Cycle   2  Pass 1  IDiag  1:
 RMSU=  3.96D-03    CP:  8.95D-01
 E= -3009.98751525712     Delta-E=       -0.291820425402 Rises=F Damp=T
 DIIS: error= 2.25D-01 at cycle   2 NSaved=   2.
 NSaved= 2 IEnMin= 2 EnMin= -3009.98751525712     IErMin= 2 ErrMin= 2.25D-01
 ErrMax= 2.25D-01  0.00D+00 EMaxC= 1.00D-01 BMatC= 5.46D+00 BMatP= 1.19D+01
 IDIUse=3 WtCom= 0.00D+00 WtEn= 1.00D+00
 Coeff-Com: -0.184D+01 0.284D+01
 Coeff-En:   0.000D+00 0.100D+01
 Coeff:      0.000D+00 0.100D+01
 Gap=     0.279 Goal=   None    Shift=    0.000
 RMSDP=3.23D-02 MaxDP=3.30D+00 DE=-2.92D-01 OVMax= 7.15D-02

 Cycle   3  Pass 1  IDiag  1:
 RMSU=  4.26D-03    CP:  5.62D-01  3.00D+00
 E= -3010.38029579663     Delta-E=       -0.392780539514 Rises=F Damp=F
 DIIS: error= 6.53D-02 at cycle   3 NSaved=   3.
 NSaved= 3 IEnMin= 3 EnMin= -3010.38029579663     IErMin= 3 ErrMin= 6.53D-02
 ErrMax= 6.53D-02  0.00D+00 EMaxC= 1.00D-01 BMatC= 7.30D-01 BMatP= 5.46D+00
 IDIUse=3 WtCom= 3.47D-01 WtEn= 6.53D-01
 Coeff-Com:  0.280D+01-0.368D+01 0.189D+01
 Coeff-En:   0.204D-01 0.000D+00 0.980D+00
 Coeff:      0.985D+00-0.128D+01 0.129D+01
 Gap=     0.265 Goal=   None    Shift=    0.000
 RMSDP=8.18D-03 MaxDP=5.08D-01 DE=-3.93D-01 OVMax= 5.97D-02

 Cycle   4  Pass 1  IDiag  1:
 RMSU=  5.32D-03    CP:  5.89D-01  2.38D+00  1.94D+00
 E= -3010.48753774154     Delta-E=       -0.107241944912 Rises=F Damp=F
 DIIS: error= 3.82D-02 at cycle   4 NSaved=   4.
 NSaved= 4 IEnMin= 4 EnMin= -3010.48753774154     IErMin= 4 ErrMin= 3.82D-02
 ErrMax= 3.82D-02  0.00D+00 EMaxC= 1.00D-01 BMatC= 2.30D-01 BMatP= 7.30D-01
 IDIUse=3 WtCom= 6.18D-01 WtEn= 3.82D-01
 Coeff-Com: -0.204D+00 0.285D+00 0.261D+00 0.659D+00
 Coeff-En:   0.000D+00 0.000D+00 0.187D+00 0.813D+00
 Coeff:     -0.126D+00 0.176D+00 0.233D+00 0.718D+00
 Gap=     0.249 Goal=   None    Shift=    0.000
 RMSDP=4.01D-03 MaxDP=3.72D-01 DE=-1.07D-01 OVMax= 2.93D-02

 Cycle   5  Pass 1  IDiag  1:
 RMSU=  1.09D-03    CP:  5.53D-01  2.81D+00  1.73D+00  8.70D-01
 E= -3010.53308955934     Delta-E=       -0.045551817802 Rises=F Damp=F
 DIIS: error= 7.14D-03 at cycle   5 NSaved=   5.
 NSaved= 5 IEnMin= 5 EnMin= -3010.53308955934     IErMin= 5 ErrMin= 7.14D-03
 ErrMax= 7.14D-03  0.00D+00 EMaxC= 1.00D-01 BMatC= 7.89D-03 BMatP= 2.30D-01
 IDIUse=3 WtCom= 9.29D-01 WtEn= 7.14D-02
 Coeff-Com: -0.148D+00 0.201D+00 0.277D-01 0.315D+00 0.605D+00
 Coeff-En:   0.000D+00 0.000D+00 0.000D+00 0.000D+00 0.100D+01
 Coeff:     -0.138D+00 0.186D+00 0.257D-01 0.293D+00 0.633D+00
 Gap=     0.245 Goal=   None    Shift=    0.000
 RMSDP=5.51D-04 MaxDP=2.87D-02 DE=-4.56D-02 OVMax= 1.04D-02

 Cycle   6  Pass 1  IDiag  1:
 RMSU=  4.99D-04    CP:  5.53D-01  2.77D+00  1.74D+00  8.65D-01  8.43D-01
 E= -3010.53478852805     Delta-E=       -0.001698968711 Rises=F Damp=F
 DIIS: error= 4.88D-04 at cycle   6 NSaved=   6.
 NSaved= 6 IEnMin= 6 EnMin= -3010.53478852805     IErMin= 6 ErrMin= 4.88D-04
 ErrMax= 4.88D-04  0.00D+00 EMaxC= 1.00D-01 BMatC= 6.94D-05 BMatP= 7.89D-03
 IDIUse=3 WtCom= 9.95D-01 WtEn= 4.88D-03
 Coeff-Com: -0.702D-01 0.938D-01-0.209D-01 0.785D-01 0.241D+00 0.677D+00
 Coeff-En:   0.000D+00 0.000D+00 0.000D+00 0.000D+00 0.000D+00 0.100D+01
 Coeff:     -0.699D-01 0.934D-01-0.208D-01 0.782D-01 0.240D+00 0.679D+00
 Gap=     0.245 Goal=   None    Shift=    0.000
 RMSDP=2.16D-04 MaxDP=1.79D-02 DE=-1.70D-03 OVMax= 7.18D-03

 Cycle   7  Pass 1  IDiag  1:
 RMSU=  1.12D-04    CP:  5.52D-01  2.76D+00  1.76D+00  8.78D-01  9.73D-01
                    CP:  9.35D-01
 E= -3010.53489720944     Delta-E=       -0.000108681390 Rises=F Damp=F
 DIIS: error= 3.50D-04 at cycle   7 NSaved=   7.
 NSaved= 7 IEnMin= 7 EnMin= -3010.53489720944     IErMin= 7 ErrMin= 3.50D-04
 ErrMax= 3.50D-04  0.00D+00 EMaxC= 1.00D-01 BMatC= 1.41D-05 BMatP= 6.94D-05
 IDIUse=3 WtCom= 9.96D-01 WtEn= 3.50D-03
 Coeff-Com: -0.179D-01 0.235D-01-0.149D-01-0.235D-04 0.308D-01 0.296D+00
 Coeff-Com:  0.682D+00
 Coeff-En:   0.000D+00 0.000D+00 0.000D+00 0.000D+00 0.000D+00 0.000D+00
 Coeff-En:   0.100D+01
 Coeff:     -0.178D-01 0.234D-01-0.148D-01-0.235D-04 0.307D-01 0.295D+00
 Coeff:      0.683D+00
 Gap=     0.245 Goal=   None    Shift=    0.000
 RMSDP=9.79D-05 MaxDP=9.39D-03 DE=-1.09D-04 OVMax= 5.38D-03

 Cycle   8  Pass 1  IDiag  1:
 RMSU=  6.25D-05    CP:  5.53D-01  2.76D+00  1.76D+00  8.80D-01  9.99D-01
                    CP:  1.05D+00  1.25D+00
 E= -3010.53492984417     Delta-E=       -0.000032634724 Rises=F Damp=F
 DIIS: error= 2.56D-04 at cycle   8 NSaved=   8.
 NSaved= 8 IEnMin= 8 EnMin= -3010.53492984417     IErMin= 8 ErrMin= 2.56D-04
 ErrMax= 2.56D-04  0.00D+00 EMaxC= 1.00D-01 BMatC= 7.03D-06 BMatP= 1.41D-05
 IDIUse=3 WtCom= 9.97D-01 WtEn= 2.56D-03
 Coeff-Com:  0.132D-01-0.179D-01-0.299D-02-0.295D-01-0.739D-01-0.667D-01
 Coeff-Com:  0.504D+00 0.674D+00
 Coeff-En:   0.000D+00 0.000D+00 0.000D+00 0.000D+00 0.000D+00 0.000D+00
 Coeff-En:   0.000D+00 0.100D+01
 Coeff:      0.132D-01-0.179D-01-0.298D-02-0.294D-01-0.737D-01-0.666D-01
 Coeff:      0.503D+00 0.675D+00
 Gap=     0.245 Goal=   None    Shift=    0.000
 RMSDP=7.58D-05 MaxDP=5.64D-03 DE=-3.26D-05 OVMax= 4.66D-03

 Cycle   9  Pass 1  IDiag  1:
 RMSU=  2.94D-05    CP:  5.53D-01  2.75D+00  1.76D+00  8.81D-01  1.02D+00
                    CP:  1.14D+00  1.62D+00  1.12D+00
 E= -3010.53494744716     Delta-E=       -0.000017602995 Rises=F Damp=F
 DIIS: error= 8.98D-05 at cycle   9 NSaved=   9.
 NSaved= 9 IEnMin= 9 EnMin= -3010.53494744716     IErMin= 9 ErrMin= 8.98D-05
 ErrMax= 8.98D-05  0.00D+00 EMaxC= 1.00D-01 BMatC= 8.95D-07 BMatP= 7.03D-06
 IDIUse=1 WtCom= 1.00D+00 WtEn= 0.00D+00
 Coeff-Com:  0.703D-02-0.938D-02 0.184D-02-0.978D-02-0.321D-01-0.102D+00
 Coeff-Com:  0.207D-01 0.283D+00 0.841D+00
 Coeff:      0.703D-02-0.938D-02 0.184D-02-0.978D-02-0.321D-01-0.102D+00
 Coeff:      0.207D-01 0.283D+00 0.841D+00
 Gap=     0.245 Goal=   None    Shift=    0.000
 RMSDP=2.94D-05 MaxDP=2.38D-03 DE=-1.76D-05 OVMax= 2.47D-03

 Cycle  10  Pass 1  IDiag  1:
 RMSU=  1.28D-05    CP:  5.53D-01  2.75D+00  1.76D+00  8.80D-01  1.03D+00
                    CP:  1.17D+00  1.72D+00  1.30D+00  1.18D+00
 E= -3010.53495075231     Delta-E=       -0.000003305145 Rises=F Damp=F
 DIIS: error= 2.48D-05 at cycle  10 NSaved=  10.
 NSaved=10 IEnMin=10 EnMin= -3010.53495075231     IErMin=10 ErrMin= 2.48D-05
 ErrMax= 2.48D-05  0.00D+00 EMaxC= 1.00D-01 BMatC= 1.15D-07 BMatP= 8.95D-07
 IDIUse=1 WtCom= 1.00D+00 WtEn= 0.00D+00
 Coeff-Com: -0.737D-03 0.104D-02 0.622D-03 0.168D-02 0.260D-02-0.201D-01
 Coeff-Com: -0.661D-01-0.144D-01 0.253D+00 0.843D+00
 Coeff:     -0.737D-03 0.104D-02 0.622D-03 0.168D-02 0.260D-02-0.201D-01
 Coeff:     -0.661D-01-0.144D-01 0.253D+00 0.843D+00
 Gap=     0.245 Goal=   None    Shift=    0.000
 RMSDP=1.43D-05 MaxDP=9.11D-04 DE=-3.31D-06 OVMax= 7.28D-04

 Cycle  11  Pass 1  IDiag  1:
 RMSU=  6.82D-06    CP:  5.53D-01  2.75D+00  1.76D+00  8.79D-01  1.03D+00
                    CP:  1.18D+00  1.72D+00  1.36D+00  1.36D+00  1.31D+00
 E= -3010.53495108931     Delta-E=       -0.000000337001 Rises=F Damp=F
 DIIS: error= 1.01D-05 at cycle  11 NSaved=  11.
 NSaved=11 IEnMin=11 EnMin= -3010.53495108931     IErMin=11 ErrMin= 1.01D-05
 ErrMax= 1.01D-05  0.00D+00 EMaxC= 1.00D-01 BMatC= 8.03D-09 BMatP= 1.15D-07
 IDIUse=1 WtCom= 1.00D+00 WtEn= 0.00D+00
 Coeff-Com: -0.354D-03 0.470D-03 0.122D-04 0.111D-02 0.399D-02 0.121D-01
 Coeff-Com: -0.326D-02-0.397D-01-0.112D+00 0.389D-01 0.110D+01
 Coeff:     -0.354D-03 0.470D-03 0.122D-04 0.111D-02 0.399D-02 0.121D-01
 Coeff:     -0.326D-02-0.397D-01-0.112D+00 0.389D-01 0.110D+01
 Gap=     0.244 Goal=   None    Shift=    0.000
 RMSDP=5.47D-06 MaxDP=2.85D-04 DE=-3.37D-07 OVMax= 2.94D-04

 Cycle  12  Pass 1  IDiag  1:
 RMSU=  1.68D-06    CP:  5.53D-01  2.75D+00  1.76D+00  8.79D-01  1.03D+00
                    CP:  1.18D+00  1.72D+00  1.37D+00  1.43D+00  1.54D+00
                    CP:  1.28D+00
 E= -3010.53495113106     Delta-E=       -0.000000041749 Rises=F Damp=F
 DIIS: error= 2.17D-06 at cycle  12 NSaved=  12.
 NSaved=12 IEnMin=12 EnMin= -3010.53495113106     IErMin=12 ErrMin= 2.17D-06
 ErrMax= 2.17D-06  0.00D+00 EMaxC= 1.00D-01 BMatC= 1.27D-09 BMatP= 8.03D-09
 IDIUse=1 WtCom= 1.00D+00 WtEn= 0.00D+00
 Coeff-Com: -0.835D-04 0.108D-03-0.245D-04 0.233D-03 0.685D-03 0.416D-02
 Coeff-Com:  0.349D-02-0.105D-01-0.476D-01-0.427D-01 0.360D+00 0.732D+00
 Coeff:     -0.835D-04 0.108D-03-0.245D-04 0.233D-03 0.685D-03 0.416D-02
 Coeff:      0.349D-02-0.105D-01-0.476D-01-0.427D-01 0.360D+00 0.732D+00
 Gap=     0.244 Goal=   None    Shift=    0.000
 RMSDP=1.28D-06 MaxDP=7.19D-05 DE=-4.17D-08 OVMax= 3.63D-05

 Cycle  13  Pass 1  IDiag  1:
 RMSU=  5.76D-07    CP:  5.53D-01  2.75D+00  1.76D+00  8.79D-01  1.03D+00
                    CP:  1.18D+00  1.72D+00  1.37D+00  1.43D+00  1.57D+00
                    CP:  1.38D+00  9.32D-01
 E= -3010.53495113365     Delta-E=       -0.000000002589 Rises=F Damp=F
 DIIS: error= 1.12D-06 at cycle  13 NSaved=  13.
 NSaved=13 IEnMin=13 EnMin= -3010.53495113365     IErMin=13 ErrMin= 1.12D-06
 ErrMax= 1.12D-06  0.00D+00 EMaxC= 1.00D-01 BMatC= 2.58D-10 BMatP= 1.27D-09
 IDIUse=1 WtCom= 1.00D+00 WtEn= 0.00D+00
 Coeff-Com:  0.801D-05-0.105D-04-0.117D-04-0.128D-03-0.685D-03-0.143D-02
 Coeff-Com:  0.167D-02 0.484D-02 0.852D-02-0.199D-01-0.113D+00 0.257D+00
 Coeff-Com:  0.863D+00
 Coeff:      0.801D-05-0.105D-04-0.117D-04-0.128D-03-0.685D-03-0.143D-02
 Coeff:      0.167D-02 0.484D-02 0.852D-02-0.199D-01-0.113D+00 0.257D+00
 Coeff:      0.863D+00
 Gap=     0.244 Goal=   None    Shift=    0.000
 RMSDP=5.81D-07 MaxDP=2.71D-05 DE=-2.59D-09 OVMax= 1.24D-05

 Cycle  14  Pass 1  IDiag  1:
 RMSU=  2.31D-07    CP:  5.53D-01  2.75D+00  1.76D+00  8.79D-01  1.03D+00
                    CP:  1.18D+00  1.72D+00  1.37D+00  1.43D+00  1.58D+00
                    CP:  1.40D+00  1.19D+00  1.10D+00
 E= -3010.53495113435     Delta-E=       -0.000000000698 Rises=F Damp=F
 DIIS: error= 3.45D-07 at cycle  14 NSaved=  14.
 NSaved=14 IEnMin=14 EnMin= -3010.53495113435     IErMin=14 ErrMin= 3.45D-07
 ErrMax= 3.45D-07  0.00D+00 EMaxC= 1.00D-01 BMatC= 2.43D-11 BMatP= 2.58D-10
 IDIUse=1 WtCom= 1.00D+00 WtEn= 0.00D+00
 Coeff-Com:  0.104D-04-0.137D-04-0.170D-05-0.445D-04-0.140D-03-0.598D-03
 Coeff-Com:  0.119D-03 0.190D-02 0.601D-02 0.162D-02-0.649D-01-0.694D-02
 Coeff-Com:  0.751D-01 0.988D+00
 Coeff:      0.104D-04-0.137D-04-0.170D-05-0.445D-04-0.140D-03-0.598D-03
 Coeff:      0.119D-03 0.190D-02 0.601D-02 0.162D-02-0.649D-01-0.694D-02
 Coeff:      0.751D-01 0.988D+00
 Gap=     0.244 Goal=   None    Shift=    0.000
 RMSDP=1.87D-07 MaxDP=9.25D-06 DE=-6.98D-10 OVMax= 9.46D-06

 Cycle  15  Pass 1  IDiag  1:
 RMSU=  8.51D-08    CP:  5.53D-01  2.75D+00  1.76D+00  8.79D-01  1.03D+00
                    CP:  1.18D+00  1.72D+00  1.37D+00  1.43D+00  1.58D+00
                    CP:  1.40D+00  1.25D+00  1.19D+00  1.39D+00
 E= -3010.53495113445     Delta-E=       -0.000000000105 Rises=F Damp=F
 DIIS: error= 1.33D-07 at cycle  15 NSaved=  15.
 NSaved=15 IEnMin=15 EnMin= -3010.53495113445     IErMin=15 ErrMin= 1.33D-07
 ErrMax= 1.33D-07  0.00D+00 EMaxC= 1.00D-01 BMatC= 9.52D-12 BMatP= 2.43D-11
 IDIUse=1 WtCom= 1.00D+00 WtEn= 0.00D+00
 Coeff-Com:  0.574D-05-0.770D-05 0.252D-05 0.110D-04 0.102D-03 0.113D-03
 Coeff-Com: -0.317D-03-0.515D-03-0.314D-03 0.529D-02 0.440D-02-0.327D-01
 Coeff-Com: -0.199D+00 0.318D+00 0.905D+00
 Coeff:      0.574D-05-0.770D-05 0.252D-05 0.110D-04 0.102D-03 0.113D-03
 Coeff:     -0.317D-03-0.515D-03-0.314D-03 0.529D-02 0.440D-02-0.327D-01
 Coeff:     -0.199D+00 0.318D+00 0.905D+00
 Gap=     0.244 Goal=   None    Shift=    0.000
 RMSDP=1.34D-07 MaxDP=9.55D-06 DE=-1.05D-10 OVMax= 5.22D-06

 Cycle  16  Pass 1  IDiag  1:
 RMSU=  2.75D-08    CP:  5.53D-01  2.75D+00  1.76D+00  8.79D-01  1.03D+00
                    CP:  1.18D+00  1.72D+00  1.37D+00  1.43D+00  1.58D+00
                    CP:  1.40D+00  1.30D+00  1.19D+00  1.68D+00  1.58D+00
 E= -3010.53495113452     Delta-E=       -0.000000000066 Rises=F Damp=F
 DIIS: error= 6.71D-08 at cycle  16 NSaved=  16.
 NSaved=16 IEnMin=16 EnMin= -3010.53495113452     IErMin=16 ErrMin= 6.71D-08
 ErrMax= 6.71D-08  0.00D+00 EMaxC= 1.00D-01 BMatC= 1.45D-12 BMatP= 9.52D-12
 IDIUse=1 WtCom= 1.00D+00 WtEn= 0.00D+00
 Coeff-Com: -0.114D-05 0.148D-05 0.104D-05 0.116D-04 0.466D-04 0.131D-03
 Coeff-Com: -0.938D-04-0.457D-03-0.126D-02 0.110D-02 0.135D-01 0.141D-02
 Coeff-Com: -0.821D-01-0.129D+00 0.101D+00 0.110D+01
 Coeff:     -0.114D-05 0.148D-05 0.104D-05 0.116D-04 0.466D-04 0.131D-03
 Coeff:     -0.938D-04-0.457D-03-0.126D-02 0.110D-02 0.135D-01 0.141D-02
 Coeff:     -0.821D-01-0.129D+00 0.101D+00 0.110D+01
 Gap=     0.244 Goal=   None    Shift=    0.000
 RMSDP=8.68D-08 MaxDP=6.87D-06 DE=-6.64D-11 OVMax= 3.62D-06

 Cycle  17  Pass 1  IDiag  1:
 RMSU=  1.38D-08    CP:  5.53D-01  2.75D+00  1.76D+00  8.79D-01  1.03D+00
                    CP:  1.18D+00  1.72D+00  1.37D+00  1.43D+00  1.58D+00
                    CP:  1.40D+00  1.33D+00  1.18D+00  1.86D+00  1.99D+00
                    CP:  1.56D+00
 E= -3010.53495113452     Delta-E=       -0.000000000004 Rises=F Damp=F
 DIIS: error= 2.36D-08 at cycle  17 NSaved=  17.
 NSaved=17 IEnMin=17 EnMin= -3010.53495113452     IErMin=17 ErrMin= 2.36D-08
 ErrMax= 2.36D-08  0.00D+00 EMaxC= 1.00D-01 BMatC= 2.93D-13 BMatP= 1.45D-12
 IDIUse=1 WtCom= 1.00D+00 WtEn= 0.00D+00
 Coeff-Com:  0.313D-06-0.425D-06 0.322D-07-0.152D-05-0.123D-04 0.293D-07
 Coeff-Com:  0.522D-04 0.357D-04-0.207D-03-0.775D-03 0.147D-02 0.818D-02
 Coeff-Com:  0.126D-01-0.741D-01-0.173D+00 0.308D+00 0.918D+00
 Coeff:      0.313D-06-0.425D-06 0.322D-07-0.152D-05-0.123D-04 0.293D-07
 Coeff:      0.522D-04 0.357D-04-0.207D-03-0.775D-03 0.147D-02 0.818D-02
 Coeff:      0.126D-01-0.741D-01-0.173D+00 0.308D+00 0.918D+00
 Gap=     0.244 Goal=   None    Shift=    0.000
 RMSDP=2.93D-08 MaxDP=1.92D-06 DE=-3.64D-12 OVMax= 1.28D-06

 Cycle  18  Pass 1  IDiag  1:
 RMSU=  7.38D-09    CP:  5.53D-01  2.75D+00  1.76D+00  8.79D-01  1.03D+00
                    CP:  1.18D+00  1.72D+00  1.37D+00  1.43D+00  1.58D+00
                    CP:  1.40D+00  1.34D+00  1.19D+00  1.91D+00  2.12D+00
                    CP:  1.83D+00  1.44D+00
 E= -3010.53495113453     Delta-E=       -0.000000000005 Rises=F Damp=F
 DIIS: error= 1.16D-08 at cycle  18 NSaved=  18.
 NSaved=18 IEnMin=18 EnMin= -3010.53495113453     IErMin=18 ErrMin= 1.16D-08
 ErrMax= 1.16D-08  0.00D+00 EMaxC= 1.00D-01 BMatC= 6.62D-14 BMatP= 2.93D-13
 IDIUse=1 WtCom= 1.00D+00 WtEn= 0.00D+00
 Coeff-Com:  0.280D-06-0.373D-06-0.183D-06-0.247D-05-0.122D-04-0.150D-04
 Coeff-Com:  0.372D-04 0.846D-04 0.700D-04-0.547D-03-0.147D-02 0.437D-02
 Coeff-Com:  0.210D-01-0.105D-01-0.107D+00-0.434D-01 0.425D+00 0.713D+00
 Coeff:      0.280D-06-0.373D-06-0.183D-06-0.247D-05-0.122D-04-0.150D-04
 Coeff:      0.372D-04 0.846D-04 0.700D-04-0.547D-03-0.147D-02 0.437D-02
 Coeff:      0.210D-01-0.105D-01-0.107D+00-0.434D-01 0.425D+00 0.713D+00
 Gap=     0.244 Goal=   None    Shift=    0.000
 RMSDP=8.56D-09 MaxDP=5.14D-07 DE=-5.46D-12 OVMax= 3.41D-07

 SCF Done:  E(RwB97XD) =  -3010.53495113     A.U. after   18 cycles
            NFock= 18  Conv=0.86D-08     -V/T= 2.0016
 KE= 3.005856435729D+03 PE=-8.631458248590D+03 EE= 1.876579616275D+03
 Leave Link  502 at Wed May  1 14:45:39 2024, MaxMem=  1207959552 cpu:            1016.2 elap:            1016.5
 (Enter /software/gaussian/g16-c01/sse4/g16/l601.exe)
 Copying SCF densities to generalized density rwf, IOpCl= 0 IROHF=0.

 **********************************************************************

            Population analysis using the SCF Density.

 **********************************************************************

 Alpha  occ. eigenvalues -- -483.30846 -62.85878 -56.65562 -56.65002 -56.65000
 Alpha  occ. eigenvalues --  -19.43717 -19.43646 -14.83267 -10.57799 -10.56651
 Alpha  occ. eigenvalues --  -10.56135 -10.56060 -10.55988 -10.52383  -9.01690
 Alpha  occ. eigenvalues --   -6.84342  -6.82509  -6.82495  -2.94252  -2.93765
 Alpha  occ. eigenvalues --   -2.93753  -2.92286  -2.92286  -1.47488  -1.30439
 Alpha  occ. eigenvalues --   -1.21813  -1.13193  -1.10952  -1.03833  -0.99777
 Alpha  occ. eigenvalues --   -0.94684  -0.89992  -0.84077  -0.79694  -0.79170
 Alpha  occ. eigenvalues --   -0.78207  -0.77352  -0.75176  -0.74001  -0.71518
 Alpha  occ. eigenvalues --   -0.68662  -0.66768  -0.62885  -0.59465  -0.56185
 Alpha  occ. eigenvalues --   -0.54999  -0.54607  -0.53807  -0.53376
 Alpha virt. eigenvalues --   -0.28928  -0.19746  -0.15072  -0.12231  -0.08867
 Alpha virt. eigenvalues --   -0.06212  -0.05431  -0.04634  -0.03994  -0.02474
 Alpha virt. eigenvalues --   -0.01939  -0.01615  -0.01279  -0.00702   0.00455
 Alpha virt. eigenvalues --    0.01425   0.02073   0.02399   0.03217   0.03273
 Alpha virt. eigenvalues --    0.04968   0.05669   0.06201   0.06679   0.07500
 Alpha virt. eigenvalues --    0.07623   0.08276   0.08452   0.09670   0.09940
 Alpha virt. eigenvalues --    0.11102   0.12039   0.12485   0.12583   0.13377
 Alpha virt. eigenvalues --    0.13597   0.14847   0.15265   0.16345   0.17084
 Alpha virt. eigenvalues --    0.17384   0.18003   0.19141   0.19624   0.20055
 Alpha virt. eigenvalues --    0.20276   0.22410   0.23273   0.23686   0.25994
 Alpha virt. eigenvalues --    0.27758   0.29142   0.29795   0.30295   0.31522
 Alpha virt. eigenvalues --    0.33599   0.34505   0.35923   0.36845   0.37292
 Alpha virt. eigenvalues --    0.37626   0.39561   0.40045   0.41164   0.42268
 Alpha virt. eigenvalues --    0.43295   0.44615   0.45505   0.47140   0.48316
 Alpha virt. eigenvalues --    0.49170   0.50710   0.51830   0.52489   0.54571
 Alpha virt. eigenvalues --    0.55695   0.55896   0.57283   0.57791   0.60326
 Alpha virt. eigenvalues --    0.61596   0.63141   0.64564   0.67220   0.69207
 Alpha virt. eigenvalues --    0.70812   0.72755   0.73345   0.74013   0.74985
 Alpha virt. eigenvalues --    0.75396   0.80771   0.80985   0.83804   0.86034
 Alpha virt. eigenvalues --    0.87122   0.89619   0.92915   0.94054   1.00100
 Alpha virt. eigenvalues --    1.01667   1.02276   1.05645   1.06462   1.07502
 Alpha virt. eigenvalues --    1.10371   1.12475   1.13974   1.14491   1.16491
 Alpha virt. eigenvalues --    1.24192   1.25820   1.28089   1.33705   1.37300
 Alpha virt. eigenvalues --    1.37653   1.38744   1.45840   1.55337   1.58074
 Alpha virt. eigenvalues --    1.59772   1.59931   1.61767   1.63736   1.67007
 Alpha virt. eigenvalues --    1.70415   1.70471   1.74207   1.77070   1.79870
 Alpha virt. eigenvalues --    1.81659   1.86402   1.88432   1.93794   1.95978
 Alpha virt. eigenvalues --    1.98875   2.04043   2.05059   2.07412   2.08754
 Alpha virt. eigenvalues --    2.10394   2.15477   2.21206   2.23972   2.29981
 Alpha virt. eigenvalues --    2.38747   2.42439   2.43473   2.44543   2.53241
 Alpha virt. eigenvalues --    2.57372   2.63891   2.66934   2.69109   2.73622
 Alpha virt. eigenvalues --    2.75083   2.78325   2.78752   2.82235   2.83396
 Alpha virt. eigenvalues --    2.94164   2.97105   3.02698   3.06252   3.09933
 Alpha virt. eigenvalues --    3.13890   3.15834   3.19860   3.24977   3.25713
 Alpha virt. eigenvalues --    3.29545   3.40505   3.48297   3.52508   3.55872
 Alpha virt. eigenvalues --    3.58476   3.71966   3.76220   3.82939   3.87970
 Alpha virt. eigenvalues --    4.09215   4.09451   4.16996   4.22191   4.43030
 Alpha virt. eigenvalues --    4.46554   4.58200   4.61722   4.95428   4.98114
 Alpha virt. eigenvalues --    5.06753   5.10920   5.64954   6.17977   6.64936
 Alpha virt. eigenvalues --    7.47887   7.49464   7.59269  23.22009  23.62024
 Alpha virt. eigenvalues --   23.70078  23.80225  23.96717  24.02243  35.34686
 Alpha virt. eigenvalues --   47.91549  49.87717  49.96528 289.80885 289.82554
 Alpha virt. eigenvalues --  289.950011020.91981
          Condensed to atoms (all electrons):
               1          2          3          4          5          6
     1  C    9.074401  -2.424416   0.177963  -1.682402  -0.622947   0.310066
     2  C   -2.424416  12.867238  -1.759820  -2.430342   0.627356  -0.010640
     3  C    0.177963  -1.759820  13.244314  -3.401162  -1.241362   0.024966
     4  C   -1.682402  -2.430342  -3.401162  15.267070   1.244760   0.010484
     5  C   -0.622947   0.627356  -1.241362   1.244760   7.480063   0.009020
     6  H    0.310066  -0.010640   0.024966   0.010484   0.009020   0.343465
     7  H    0.074959   0.222084   0.075958  -0.033560  -0.019059  -0.001797
     8  H    0.005359  -0.012015   0.078413   0.233116  -0.023104   0.000001
     9  H    0.037537  -0.019469   0.006048  -0.008406   0.299937  -0.002554
    10  N   -0.167184   0.358984  -0.923386   0.345408   0.009778  -0.000654
    11  O    0.010166  -0.087505  -0.262984  -0.001519  -0.059113  -0.000025
    12  O    0.351320  -0.035686  -0.278252  -0.110505  -0.043091   0.000032
    13  C    1.401795  -1.811150   0.926396  -3.701598  -1.697482  -0.007898
    14  H   -0.015378   0.002472   0.000991  -0.070585  -0.000966  -0.000048
    15  Br   0.035573   0.011449   0.035586   0.037187   0.042867  -0.000379
               7          8          9         10         11         12
     1  C    0.074959   0.005359   0.037537  -0.167184   0.010166   0.351320
     2  C    0.222084  -0.012015  -0.019469   0.358984  -0.087505  -0.035686
     3  C    0.075958   0.078413   0.006048  -0.923386  -0.262984  -0.278252
     4  C   -0.033560   0.233116  -0.008406   0.345408  -0.001519  -0.110505
     5  C   -0.019059  -0.023104   0.299937   0.009778  -0.059113  -0.043091
     6  H   -0.001797   0.000001  -0.002554  -0.000654  -0.000025   0.000032
     7  H    0.295221  -0.000004   0.000016  -0.025773  -0.001501   0.024491
     8  H   -0.000004   0.288399   0.000099  -0.023954   0.024608  -0.000852
     9  H    0.000016   0.000099   0.343177   0.000362   0.000008   0.000007
    10  N   -0.025773  -0.023954   0.000362   7.423112   0.160713   0.125330
    11  O   -0.001501   0.024608   0.000008   0.160713   7.836195   0.005642
    12  O    0.024491  -0.000852   0.000007   0.125330   0.005642   7.873446
    13  C    0.015974   0.050668   0.014615  -0.179484   0.327291   0.040960
    14  H   -0.000020  -0.003786  -0.005932   0.000187  -0.000311  -0.000073
    15  Br  -0.000034   0.003749   0.001056   0.005439   0.000108   0.002053
              13         14         15
     1  C    1.401795  -0.015378   0.035573
     2  C   -1.811150   0.002472   0.011449
     3  C    0.926396   0.000991   0.035586
     4  C   -3.701598  -0.070585   0.037187
     5  C   -1.697482  -0.000966   0.042867
     6  H   -0.007898  -0.000048  -0.000379
     7  H    0.015974  -0.000020  -0.000034
     8  H    0.050668  -0.003786   0.003749
     9  H    0.014615  -0.005932   0.001056
    10  N   -0.179484   0.000187   0.005439
    11  O    0.327291  -0.000311   0.000108
    12  O    0.040960  -0.000073   0.002053
    13  C   10.705330   0.389850  -0.000044
    14  H    0.389850   0.348705  -0.042843
    15  Br  -0.000044  -0.042843  34.713459
 Mulliken charges:
               1
     1  C   -0.566814
     2  C    0.501459
     3  C   -0.703668
     4  C    0.302054
     5  C   -0.006659
     6  H    0.325962
     7  H    0.373046
     8  H    0.379304
     9  H    0.333500
    10  N   -0.108880
    11  O    0.048228
    12  O    0.045179
    13  C   -0.475223
    14  H    0.397737
    15  Br   0.154776
 Sum of Mulliken charges =   1.00000
 Mulliken charges with hydrogens summed into heavy atoms:
               1
     1  C   -0.240852
     2  C    0.874505
     3  C   -0.703668
     4  C    0.681357
     5  C    0.326841
    10  N   -0.108880
    11  O    0.048228
    12  O    0.045179
    13  C   -0.077485
    15  Br   0.154776
 Electronic spatial extent (au):  <R**2>=           2796.7248
 Charge=              1.0000 electrons
 Dipole moment (field-independent basis, Debye):
    X=              0.3044    Y=             -0.4594    Z=              0.0719  Tot=              0.5558
 Quadrupole moment (field-independent basis, Debye-Ang):
   XX=            -68.6231   YY=            -52.1142   ZZ=            -62.8999
   XY=              1.1139   XZ=              0.8198   YZ=              1.4012
 Traceless Quadrupole moment (field-independent basis, Debye-Ang):
   XX=             -7.4107   YY=              9.0982   ZZ=             -1.6875
   XY=              1.1139   XZ=              0.8198   YZ=              1.4012
 Octapole moment (field-independent basis, Debye-Ang**2):
  XXX=           -284.0382  YYY=             88.5173  ZZZ=             78.0113  XYY=            -73.4596
  XXY=             30.5628  XXZ=             32.3248  XZZ=            -76.9009  YZZ=             16.8560
  YYZ=             25.9380  XYZ=             -2.8474
 Hexadecapole moment (field-independent basis, Debye-Ang**3):
 XXXX=          -2213.4756 YYYY=           -678.6800 ZZZZ=           -349.6231 XXXY=            -68.5498
 XXXZ=            -23.4660 YYYX=            -60.8968 YYYZ=           -156.9670 ZZZX=            -19.6889
 ZZZY=           -136.9351 XXYY=           -451.2127 XXZZ=           -369.4594 YYZZ=           -164.5849
 XXYZ=            -55.2538 YYXZ=             -3.3227 ZZXY=             -9.6062
 N-N= 7.384872454507D+02 E-N=-8.631458249556D+03  KE= 3.005856435729D+03
 No NMR shielding tensors so no spin-rotation constants.
 Leave Link  601 at Wed May  1 14:45:47 2024, MaxMem=  1207959552 cpu:               7.7 elap:               7.8
 (Enter /software/gaussian/g16-c01/sse4/g16/l9999.exe)
 Unable to Open any file for archive entry.
 1\1\GINC-BHX0014\SP\RwB97XD\6-311+G(d)\C6H5Br1N1O2(1+)\BWEIGHT\01-May-
 2024\0\\#P wB97XD/6-311+G* NoSymm #P Field=X-38\\TitleMe\\1,1\C,0,0.02
 95,1.3397,0.0682\C,0,1.4348,1.2867,0.0064\C,0,2.1118,0.0511,-0.0054\C,
 0,1.4451,-1.1372,0.0312\C,0,-0.6879,0.1682,0.11\H,0,-0.4713,2.2984,0.0
 781\H,0,2.0273,2.1965,-0.0322\H,0,1.9897,-2.0764,0.0232\H,0,-1.7716,0.
 1804,0.1582\N,0,3.5864,0.051,-0.0675\O,0,4.1471,-1.0597,-0.0881\O,0,4.
 145,1.1639,-0.0901\C,0,-0.0236,-1.1458,0.0835\H,0,-0.4367,-1.8725,0.78
 89\Br,0,-0.5359,-1.8697,-1.7408\\Version=ES64L-G16RevC.01\HF=-3010.534
 9511\RMSD=8.564e-09\Dipole=-1.7867644,0.9673353,1.1744585\Quadrupole=-
 5.5096885,6.7643182,-1.2546297,0.828177,0.6095375,1.0417657\PG=C01 [X(
 C6H5Br1N1O2)]\\@
 The archive entry for this job was punched.


 IF GOD HAD MEANT MAN TO SEE THE SUN RISE, HE
 WOULD HAVE SCHEDULED IT FOR A LATER HOUR.
 Job cpu time:       0 days  0 hours 18 minutes  3.6 seconds.
 Elapsed time:       0 days  0 hours 18 minutes  3.9 seconds.
 File lengths (MBytes):  RWF=     40 Int=      0 D2E=      0 Chk=     32 Scr=      1
 Normal termination of Gaussian 16 at Wed May  1 14:45:48 2024.
