 Entering Gaussian System, Link 0=g16
 Initial command:
 /software/gaussian/g16-c01/sse4/g16/l1.exe "/local_scratch/24657424/Gau-26931.inp" -scrdir="/local_scratch/24657424/"
 Entering Link 1 = /software/gaussian/g16-c01/sse4/g16/l1.exe PID=     26932.
  
 Copyright (c) 1988-2019, Gaussian, Inc.  All Rights Reserved.
  
 This is part of the Gaussian(R) 16 program.  It is based on
 the Gaussian(R) 09 system (copyright 2009, Gaussian, Inc.),
 the Gaussian(R) 03 system (copyright 2003, Gaussian, Inc.),
 the Gaussian(R) 98 system (copyright 1998, Gaussian, Inc.),
 the Gaussian(R) 94 system (copyright 1995, Gaussian, Inc.),
 the Gaussian 92(TM) system (copyright 1992, Gaussian, Inc.),
 the Gaussian 90(TM) system (copyright 1990, Gaussian, Inc.),
 the Gaussian 88(TM) system (copyright 1988, Gaussian, Inc.),
 the Gaussian 86(TM) system (copyright 1986, Carnegie Mellon
 University), and the Gaussian 82(TM) system (copyright 1983,
 Carnegie Mellon University). Gaussian is a federally registered
 trademark of Gaussian, Inc.
  
 This software contains proprietary and confidential information,
 including trade secrets, belonging to Gaussian, Inc.
  
 This software is provided under written license and may be
 used, copied, transmitted, or stored only in accord with that
 written license.
  
 The following legend is applicable only to US Government
 contracts under FAR:
  
                    RESTRICTED RIGHTS LEGEND
  
 Use, reproduction and disclosure by the US Government is
 subject to restrictions as set forth in subparagraphs (a)
 and (c) of the Commercial Computer Software - Restricted
 Rights clause in FAR 52.227-19.
  
 Gaussian, Inc.
 340 Quinnipiac St., Bldg. 40, Wallingford CT 06492
  
  
 ---------------------------------------------------------------
 Warning -- This program may not be used in any manner that
 competes with the business of Gaussian, Inc. or will provide
 assistance to any competitor of Gaussian, Inc.  The licensee
 of this program is prohibited from giving any competitor of
 Gaussian, Inc. access to this program.  By using this program,
 the user acknowledges that Gaussian, Inc. is engaged in the
 business of creating and licensing software in the field of
 computational chemistry and represents and warrants to the
 licensee that it is not a competitor of Gaussian, Inc. and that
 it will not use this program in any manner prohibited above.
 ---------------------------------------------------------------
  

 Cite this work as:
 Gaussian 16, Revision C.01,
 M. J. Frisch, G. W. Trucks, H. B. Schlegel, G. E. Scuseria, 
 M. A. Robb, J. R. Cheeseman, G. Scalmani, V. Barone, 
 G. A. Petersson, H. Nakatsuji, X. Li, M. Caricato, A. V. Marenich, 
 J. Bloino, B. G. Janesko, R. Gomperts, B. Mennucci, H. P. Hratchian, 
 J. V. Ortiz, A. F. Izmaylov, J. L. Sonnenberg, D. Williams-Young, 
 F. Ding, F. Lipparini, F. Egidi, J. Goings, B. Peng, A. Petrone, 
 T. Henderson, D. Ranasinghe, V. G. Zakrzewski, J. Gao, N. Rega, 
 G. Zheng, W. Liang, M. Hada, M. Ehara, K. Toyota, R. Fukuda, 
 J. Hasegawa, M. Ishida, T. Nakajima, Y. Honda, O. Kitao, H. Nakai, 
 T. Vreven, K. Throssell, J. A. Montgomery, Jr., J. E. Peralta, 
 F. Ogliaro, M. J. Bearpark, J. J. Heyd, E. N. Brothers, K. N. Kudin, 
 V. N. Staroverov, T. A. Keith, R. Kobayashi, J. Normand, 
 K. Raghavachari, A. P. Rendell, J. C. Burant, S. S. Iyengar, 
 J. Tomasi, M. Cossi, J. M. Millam, M. Klene, C. Adamo, R. Cammi, 
 J. W. Ochterski, R. L. Martin, K. Morokuma, O. Farkas, 
 J. B. Foresman, and D. J. Fox, Gaussian, Inc., Wallingford CT, 2019.
 
 ******************************************
 Gaussian 16:  ES64L-G16RevC.01  3-Jul-2019
                 1-May-2024 
 ******************************************
 %chk=geometry.chk
 %mem=9GB
 %nprocshared=12
 Will use up to   12 processors via shared memory.
 ----------------------------------------
 #P wB97XD/6-311+G* NoSymm #P Field=X-165
 ----------------------------------------
 1/38=1,172=1/1;
 2/12=2,15=1,17=6,18=5,40=1/2;
 3/5=4,6=6,7=11,11=2,14=1,15=-165,25=1,30=1,74=-58/1,2,3;
 4//1;
 5/5=2,38=5/2;
 6/7=2,8=2,9=2,10=2,28=1/1;
 99/5=1,9=1/99;
 Leave Link    1 at Wed May  1 14:27:44 2024, MaxMem=  1207959552 cpu:               1.5 elap:               1.5
 (Enter /software/gaussian/g16-c01/sse4/g16/l101.exe)
 -------
 TitleMe
 -------
 Symbolic Z-matrix:
 Charge =  1 Multiplicity = 1
 C                     0.0295    1.3397    0.0682 
 C                     1.4348    1.2867    0.0064 
 C                     2.1118    0.0511   -0.0054 
 C                     1.4451   -1.1372    0.0312 
 C                    -0.6879    0.1682    0.11 
 H                    -0.4713    2.2984    0.0781 
 H                     2.0273    2.1965   -0.0322 
 H                     1.9897   -2.0764    0.0232 
 H                    -1.7716    0.1804    0.1582 
 N                     3.5864    0.051    -0.0675 
 O                     4.1471   -1.0597   -0.0881 
 O                     4.145     1.1639   -0.0901 
 C                    -0.0236   -1.1458    0.0835 
 H                    -0.4367   -1.8725    0.7889 
 Br                   -0.5359   -1.8697   -1.7408 
 
 ITRead=  0  0  0  0  0  0  0  0  0  0  0  0  0  0  0
 MicOpt= -1 -1 -1 -1 -1 -1 -1 -1 -1 -1 -1 -1 -1 -1 -1
 NAtoms=     15 NQM=       15 NQMF=       0 NMMI=      0 NMMIF=      0
                NMic=       0 NMicF=      0.
                    Isotopes and Nuclear Properties:
 (Nuclear quadrupole moments (NQMom) in fm**2, nuclear magnetic moments (NMagM)
  in nuclear magnetons)

  Atom         1           2           3           4           5           6           7           8           9          10
 IAtWgt=          12          12          12          12          12           1           1           1           1          14
 AtmWgt=  12.0000000  12.0000000  12.0000000  12.0000000  12.0000000   1.0078250   1.0078250   1.0078250   1.0078250  14.0030740
 NucSpn=           0           0           0           0           0           1           1           1           1           2
 AtZEff=  -0.0000000  -0.0000000  -0.0000000  -0.0000000  -0.0000000  -0.0000000  -0.0000000  -0.0000000  -0.0000000  -0.0000000
 NQMom=    0.0000000   0.0000000   0.0000000   0.0000000   0.0000000   0.0000000   0.0000000   0.0000000   0.0000000   2.0440000
 NMagM=    0.0000000   0.0000000   0.0000000   0.0000000   0.0000000   2.7928460   2.7928460   2.7928460   2.7928460   0.4037610
 AtZNuc=   6.0000000   6.0000000   6.0000000   6.0000000   6.0000000   1.0000000   1.0000000   1.0000000   1.0000000   7.0000000

  Atom        11          12          13          14          15
 IAtWgt=          16          16          12           1          79
 AtmWgt=  15.9949146  15.9949146  12.0000000   1.0078250  78.9183361
 NucSpn=           0           0           0           1           3
 AtZEff=  -0.0000000  -0.0000000  -0.0000000  -0.0000000  -0.0000000
 NQMom=    0.0000000   0.0000000   0.0000000   0.0000000  31.3000000
 NMagM=    0.0000000   0.0000000   0.0000000   2.7928460   2.1063990
 AtZNuc=   8.0000000   8.0000000   6.0000000   1.0000000  35.0000000
 Leave Link  101 at Wed May  1 14:27:45 2024, MaxMem=  1207959552 cpu:               1.4 elap:               1.4
 (Enter /software/gaussian/g16-c01/sse4/g16/l202.exe)
                          Input orientation:                          
 ---------------------------------------------------------------------
 Center     Atomic      Atomic             Coordinates (Angstroms)
 Number     Number       Type             X           Y           Z
 ---------------------------------------------------------------------
      1          6           0        0.029500    1.339700    0.068200
      2          6           0        1.434800    1.286700    0.006400
      3          6           0        2.111800    0.051100   -0.005400
      4          6           0        1.445100   -1.137200    0.031200
      5          6           0       -0.687900    0.168200    0.110000
      6          1           0       -0.471300    2.298400    0.078100
      7          1           0        2.027300    2.196500   -0.032200
      8          1           0        1.989700   -2.076400    0.023200
      9          1           0       -1.771600    0.180400    0.158200
     10          7           0        3.586400    0.051000   -0.067500
     11          8           0        4.147100   -1.059700   -0.088100
     12          8           0        4.145000    1.163900   -0.090100
     13          6           0       -0.023600   -1.145800    0.083500
     14          1           0       -0.436700   -1.872500    0.788900
     15         35           0       -0.535900   -1.869700   -1.740800
 ---------------------------------------------------------------------
                    Distance matrix (angstroms):
                    1          2          3          4          5
     1  C    0.000000
     2  C    1.407656   0.000000
     3  C    2.449874   1.408963   0.000000
     4  C    2.853126   2.424049   1.363043   0.000000
     5  C    1.374344   2.401589   2.804523   2.501993   0.000000
     6  H    1.081667   2.159142   3.424870   3.934226   2.141421
     7  H    2.176095   1.086408   2.147231   3.384750   3.392128
     8  H    3.938800   3.408612   2.131193   1.085702   3.495040
     9  H    2.143837   3.395283   3.888995   3.478413   1.084840
    10  N    3.785591   2.482297   1.475907   2.450862   4.279589
    11  O    4.768247   3.587631   2.320164   2.705743   4.992415
    12  O    4.122294   2.714696   2.319353   3.549540   4.938459
    13  C    2.486114   2.837240   2.449573   1.469656   1.472614
    14  H    3.324903   3.754379   3.290289   2.157764   2.165286
    15  Br   3.727252   4.110867   3.702891   2.756973   2.757100
                    6          7          8          9         10
     6  H    0.000000
     7  H    2.503108   0.000000
     8  H    5.019802   4.273425   0.000000
     9  H    2.486588   4.304945   4.388479   0.000000
    10  N    4.640790   2.652397   2.661486   5.364313   0.000000
    11  O    5.712624   3.885809   2.387560   6.052233   1.244373
    12  O    4.756638   2.356750   3.893289   6.002923   1.245428
    13  C    3.473180   3.923079   2.218790   2.195425   3.806210
    14  H    4.231175   4.827242   2.552506   2.528663   4.540772
    15  Br   4.548146   5.101303   3.087568   3.055498   4.845862
                   11         12         13         14         15
    11  O    0.000000
    12  O    2.223602   0.000000
    13  C    4.175117   4.768865   0.000000
    14  H    4.737193   5.566358   1.093770   0.000000
    15  Br   5.031700   5.817075   2.028436   2.531646   0.000000
 Symmetry turned off by external request.
 Stoichiometry    C6H5BrNO2(1+)
 Framework group  C1[X(C6H5BrNO2)]
 Deg. of freedom    39
 Full point group                 C1      NOp   1
 Rotational constants (GHZ):           1.8252210           0.5518633           0.4576002
 Leave Link  202 at Wed May  1 14:27:47 2024, MaxMem=  1207959552 cpu:               1.2 elap:               1.2
 (Enter /software/gaussian/g16-c01/sse4/g16/l301.exe)
 Standard basis: 6-311+G(d) (5D, 7F)
 Ernie: Thresh=  0.10000D-02 Tol=  0.10000D-05 Strict=F.
 The following finite field(s) will be applied:
 An electric field of             -0.0165  0.0000  0.0000
   261 basis functions,   443 primitive gaussians,   273 cartesian basis functions
    49 alpha electrons       49 beta electrons
       nuclear repulsion energy       739.2122215416 Hartrees.
 IExCor= 4639 DFT=T Ex+Corr=wB97XD ExCW=0 ScaHFX=  1.000000
 ScaDFX=  1.000000  1.000000  1.000000  1.000000 ScalE2=  1.000000  1.000000
 IRadAn=      5 IRanWt=     -1 IRanGd=            0 ICorTp=0 IEmpDi=121
 HFx  wShort=  0.000000 wLong=  0.200000 cFull=  0.222036 cShort=  0.000000 cLong=  0.777964
 DFx  wShort=  0.000000 wLong=  0.200000 cFull=  0.000000 cShort=  0.000000 cLong=  1.000000
 NAtoms=   15 NActive=   15 NUniq=   15 SFac= 1.00D+00 NAtFMM=   60 NAOKFM=F Big=F
 Integral buffers will be    131072 words long.
 Raffenetti 2 integral format.
 Two-electron integral symmetry is turned off.
 R6Disp:  Grimme-D2 Dispersion energy=       -0.0077368520 Hartrees.
 Nuclear repulsion after empirical dispersion term =      739.2044846896 Hartrees.
 Leave Link  301 at Wed May  1 14:27:48 2024, MaxMem=  1207959552 cpu:               1.0 elap:               1.2
 (Enter /software/gaussian/g16-c01/sse4/g16/l302.exe)
 NPDir=0 NMtPBC=     1 NCelOv=     1 NCel=       1 NClECP=     1 NCelD=      1
         NCelK=      1 NCelE2=     1 NClLst=     1 CellRange=     0.0.
 One-electron integrals computed using PRISM.
 NBasis=   261 RedAO= T EigKep=  2.35D-06  NBF=   261
 NBsUse=   261 1.00D-06 EigRej= -1.00D+00 NBFU=   261
 Precomputing XC quadrature grid using
 IXCGrd= 4 IRadAn=           5 IRanWt=          -1 IRanGd=           0 AccXCQ= 0.00D+00.
 Generated NRdTot=       0 NPtTot=           0 NUsed=           0 NTot=          32
 NSgBfM=   273   273   273   273   273 MxSgAt=    15 MxSgA2=    15.
 Leave Link  302 at Wed May  1 14:28:09 2024, MaxMem=  1207959552 cpu:              20.9 elap:              20.9
 (Enter /software/gaussian/g16-c01/sse4/g16/l303.exe)
 DipDrv:  MaxL=1.
 The nuclear repulsion energy is now       736.0901564154 hartrees.
 Leave Link  303 at Wed May  1 14:28:12 2024, MaxMem=  1207959552 cpu:               3.2 elap:               3.2
 (Enter /software/gaussian/g16-c01/sse4/g16/l401.exe)
 ExpMin= 3.50D-02 ExpMax= 4.40D+05 ExpMxC= 1.51D+04 IAcc=3 IRadAn=         5 AccDes= 0.00D+00
 Harris functional with IExCor= 4639 and IRadAn=       5 diagonalized for initial guess.
 HarFok:  IExCor= 4639 AccDes= 0.00D+00 IRadAn=         5 IDoV= 1 UseB2=F ITyADJ=14
 ICtDFT=  3500011 ScaDFX=  1.000000  1.000000  1.000000  1.000000
 FoFCou: FMM=F IPFlag=           0 FMFlag=      100000 FMFlg1=           0
         NFxFlg=           0 DoJE=T BraDBF=F KetDBF=T FulRan=T
         wScrn=  0.000000 ICntrl=       500 IOpCl=  0 I1Cent=   200000004 NGrid=           0
         NMat0=    1 NMatS0=      1 NMatT0=    0 NMatD0=    1 NMtDS0=    0 NMtDT0=    0
 Symmetry not used in FoFCou.
 Harris En= -2970.87612399477    
 JPrj=0 DoOrth=F DoCkMO=F.
 Leave Link  401 at Wed May  1 14:28:43 2024, MaxMem=  1207959552 cpu:              30.2 elap:              30.2
 (Enter /software/gaussian/g16-c01/sse4/g16/l502.exe)
 Two-electron integral symmetry not used.
 Closed shell SCF:
 Using DIIS extrapolation, IDIIS=  1040.
 NGot=  1207959552 LenX=  1207804877 LenY=  1207729907
 Requested convergence on RMS density matrix=1.00D-08 within 128 cycles.
 Requested convergence on MAX density matrix=1.00D-06.
 Requested convergence on             energy=1.00D-06.
 No special actions if energy rises.
 Fock matrices will be formed incrementally for  20 cycles.

 Cycle   1  Pass 1  IDiag  1:
 FoFJK:  IHMeth= 1 ICntrl=       0 DoSepK=T KAlg= 0 I1Cent=           0 FoldK=F
 IRaf=         1 NMat=       1 IRICut=       1 DoRegI=T DoRafI=F ISym2E= 0 IDoP0=0 IntGTp=1.
 FoFCou: FMM=F IPFlag=           0 FMFlag=      100000 FMFlg1=           0
         NFxFlg=           0 DoJE=T BraDBF=F KetDBF=F FulRan=T
         wScrn=  0.000000 ICntrl=       500 IOpCl=  0 I1Cent=           0 NGrid=           0
         NMat0=    1 NMatS0=      1 NMatT0=    0 NMatD0=    1 NMtDS0=    0 NMtDT0=    0
 Symmetry not used in FoFCou.
 E= -3003.80093031859    
 DIIS: error= 3.23D-01 at cycle   1 NSaved=   1.
 NSaved= 1 IEnMin= 1 EnMin= -3003.80093031859     IErMin= 1 ErrMin= 3.23D-01
 ErrMax= 3.23D-01  0.00D+00 EMaxC= 1.00D-01 BMatC= 1.48D+01 BMatP= 1.48D+01
 IDIUse=3 WtCom= 0.00D+00 WtEn= 1.00D+00
 Coeff-Com:  0.100D+01
 Coeff-En:   0.100D+01
 Coeff:      0.100D+01
 Gap=    -0.418 Goal=   None    Shift=    0.000
 GapD=   -0.418 DampG=0.250 DampE=0.250 DampFc=0.2500 IDamp=-1.
 Damping current iteration by 2.50D-01
 RMSDP=5.56D+00 MaxDP=3.34D+02              OVMax= 9.88D-01

 Cycle   2  Pass 1  IDiag  1:
 RMSU=  1.87D-01    CP:  7.64D-01
 E= -3003.79862891677     Delta-E=        0.002301401827 Rises=F Damp=T
 DIIS: error= 2.25D-01 at cycle   2 NSaved=   2.
 NSaved= 2 IEnMin= 1 EnMin= -3003.80093031859     IErMin= 2 ErrMin= 2.25D-01
 ErrMax= 2.25D-01  0.00D+00 EMaxC= 1.00D-01 BMatC= 6.17D+00 BMatP= 1.48D+01
 IDIUse=3 WtCom= 0.00D+00 WtEn= 1.00D+00
 Coeff-Com: -0.333D+00 0.133D+01
 Coeff-En:   0.500D+00 0.500D+00
 Coeff:      0.500D+00 0.500D+00
 Gap=    -0.399 Goal=   None    Shift=    0.000
 RMSDP=4.42D+00 MaxDP=2.58D+02 DE= 2.30D-03 OVMax= 9.71D-01

 Cycle   3  Pass 1  IDiag  1:
 RMSU=  6.58D-02    CP:  7.26D-03  2.02D-01
 E= -2999.76674258019     Delta-E=        4.031886336580 Rises=F Damp=F
 DIIS: error= 1.38D-01 at cycle   3 NSaved=   3.
 NSaved= 3 IEnMin= 1 EnMin= -3003.80093031859     IErMin= 3 ErrMin= 1.38D-01
 ErrMax= 1.38D-01  0.00D+00 EMaxC= 1.00D-01 BMatC= 7.62D+00 BMatP= 6.17D+00
 IDIUse=2 WtCom= 0.00D+00 WtEn= 1.00D+00
 EnCoef did   100 forward-backward iterations
 Coeff-En:   0.581D+00 0.740D-02 0.412D+00
 Coeff:      0.581D+00 0.740D-02 0.412D+00
 Gap=    -0.201 Goal=   None    Shift=    0.000
 RMSDP=2.79D-02 MaxDP=1.90D+00 DE= 4.03D+00 OVMax= 6.83D-01

 Cycle   4  Pass 1  IDiag  1:
 RMSU=  2.37D-02    CP:  7.35D-03  1.50D-01  8.33D-01
 E= -3009.82624746165     Delta-E=      -10.059504881469 Rises=F Damp=F
 DIIS: error= 6.09D-02 at cycle   4 NSaved=   4.
 NSaved= 4 IEnMin= 4 EnMin= -3009.82624746165     IErMin= 4 ErrMin= 6.09D-02
 ErrMax= 6.09D-02  0.00D+00 EMaxC= 1.00D-01 BMatC= 1.12D+00 BMatP= 6.17D+00
 IDIUse=3 WtCom= 3.91D-01 WtEn= 6.09D-01
 Coeff-Com:  0.108D+00 0.946D-01 0.477D-01 0.750D+00
 Coeff-En:   0.451D-01 0.000D+00 0.000D+00 0.955D+00
 Coeff:      0.696D-01 0.370D-01 0.186D-01 0.875D+00
 Gap=     0.380 Goal=   None    Shift=    0.000
 RMSDP=3.91D-02 MaxDP=3.01D+00 DE=-1.01D+01 OVMax= 6.11D-01

 Cycle   5  Pass 1  IDiag  1:
 RMSU=  3.34D-02    CP:  9.79D-03  1.50D-01  6.25D-01  8.00D-01
 E= -3008.93933978527     Delta-E=        0.886907676387 Rises=F Damp=F
 DIIS: error= 7.24D-02 at cycle   5 NSaved=   5.
 NSaved= 5 IEnMin= 4 EnMin= -3009.82624746165     IErMin= 4 ErrMin= 6.09D-02
 ErrMax= 7.24D-02  0.00D+00 EMaxC= 1.00D-01 BMatC= 1.75D+00 BMatP= 1.12D+00
 IDIUse=2 WtCom= 0.00D+00 WtEn= 1.00D+00
 Coeff-En:   0.000D+00 0.000D+00 0.000D+00 0.679D+00 0.321D+00
 Coeff:      0.000D+00 0.000D+00 0.000D+00 0.679D+00 0.321D+00
 Gap=     0.018 Goal=   None    Shift=    0.000
 RMSDP=3.07D-02 MaxDP=2.79D+00 DE= 8.87D-01 OVMax= 5.91D-01

 Cycle   6  Pass 1  IDiag  1:
 RMSU=  1.37D-02    CP:  6.76D-03  1.26D-01  5.82D-01  8.47D-01  3.94D-01
 E= -3010.40949155482     Delta-E=       -1.470151769553 Rises=F Damp=F
 DIIS: error= 3.75D-02 at cycle   6 NSaved=   6.
 NSaved= 6 IEnMin= 6 EnMin= -3010.40949155482     IErMin= 6 ErrMin= 3.75D-02
 ErrMax= 3.75D-02  0.00D+00 EMaxC= 1.00D-01 BMatC= 2.55D-01 BMatP= 1.12D+00
 IDIUse=3 WtCom= 6.25D-01 WtEn= 3.75D-01
 Coeff-Com:  0.452D-04 0.112D-01-0.460D-02 0.361D+00 0.193D+00 0.439D+00
 Coeff-En:   0.000D+00 0.000D+00 0.000D+00 0.000D+00 0.000D+00 0.100D+01
 Coeff:      0.282D-04 0.699D-02-0.287D-02 0.226D+00 0.121D+00 0.649D+00
 Gap=     0.220 Goal=   None    Shift=    0.000
 RMSDP=1.03D-02 MaxDP=9.76D-01 DE=-1.47D+00 OVMax= 2.30D-01

 Cycle   7  Pass 1  IDiag  1:
 RMSU=  8.25D-03    CP:  6.11D-03  1.20D-01  5.33D-01  8.22D-01  3.05D-01
                    CP:  8.99D-01
 E= -3010.46443547986     Delta-E=       -0.054943925036 Rises=F Damp=F
 DIIS: error= 3.68D-02 at cycle   7 NSaved=   7.
 NSaved= 7 IEnMin= 7 EnMin= -3010.46443547986     IErMin= 7 ErrMin= 3.68D-02
 ErrMax= 3.68D-02  0.00D+00 EMaxC= 1.00D-01 BMatC= 1.24D-01 BMatP= 2.55D-01
 IDIUse=3 WtCom= 6.32D-01 WtEn= 3.68D-01
 Coeff-Com:  0.648D-02-0.143D-01-0.102D-01 0.970D-01 0.151D-01 0.427D+00
 Coeff-Com:  0.479D+00
 Coeff-En:   0.000D+00 0.000D+00 0.000D+00 0.000D+00 0.000D+00 0.381D+00
 Coeff-En:   0.619D+00
 Coeff:      0.410D-02-0.905D-02-0.646D-02 0.613D-01 0.957D-02 0.410D+00
 Coeff:      0.530D+00
 Gap=     0.190 Goal=   None    Shift=    0.000
 RMSDP=3.99D-03 MaxDP=2.19D-01 DE=-5.49D-02 OVMax= 1.51D-01

 Cycle   8  Pass 1  IDiag  1:
 RMSU=  3.25D-03    CP:  6.26D-03  1.21D-01  5.19D-01  8.10D-01  3.20D-01
                    CP:  9.26D-01  7.82D-01
 E= -3010.53563005585     Delta-E=       -0.071194575999 Rises=F Damp=F
 DIIS: error= 1.22D-02 at cycle   8 NSaved=   8.
 NSaved= 8 IEnMin= 8 EnMin= -3010.53563005585     IErMin= 8 ErrMin= 1.22D-02
 ErrMax= 1.22D-02  0.00D+00 EMaxC= 1.00D-01 BMatC= 1.21D-02 BMatP= 1.24D-01
 IDIUse=3 WtCom= 8.78D-01 WtEn= 1.22D-01
 Coeff-Com:  0.260D-02-0.322D-02-0.375D-02-0.594D-02-0.133D-01 0.154D+00
 Coeff-Com:  0.322D+00 0.548D+00
 Coeff-En:   0.000D+00 0.000D+00 0.000D+00 0.000D+00 0.000D+00 0.000D+00
 Coeff-En:   0.851D-01 0.915D+00
 Coeff:      0.228D-02-0.283D-02-0.330D-02-0.521D-02-0.117D-01 0.135D+00
 Coeff:      0.293D+00 0.592D+00
 Gap=     0.200 Goal=   None    Shift=    0.000
 RMSDP=1.52D-03 MaxDP=1.10D-01 DE=-7.12D-02 OVMax= 4.78D-02

 Cycle   9  Pass 1  IDiag  1:
 RMSU=  8.20D-04    CP:  6.14D-03  1.21D-01  5.16D-01  7.96D-01  3.10D-01
                    CP:  9.18D-01  8.53D-01  7.82D-01
 E= -3010.54420595597     Delta-E=       -0.008575900119 Rises=F Damp=F
 DIIS: error= 3.33D-03 at cycle   9 NSaved=   9.
 NSaved= 9 IEnMin= 9 EnMin= -3010.54420595597     IErMin= 9 ErrMin= 3.33D-03
 ErrMax= 3.33D-03  0.00D+00 EMaxC= 1.00D-01 BMatC= 1.06D-03 BMatP= 1.21D-02
 IDIUse=3 WtCom= 9.67D-01 WtEn= 3.33D-02
 Coeff-Com: -0.110D-02 0.166D-02-0.128D-02-0.519D-02-0.491D-02-0.147D-01
 Coeff-Com: -0.307D-01 0.185D+00 0.871D+00
 Coeff-En:   0.000D+00 0.000D+00 0.000D+00 0.000D+00 0.000D+00 0.000D+00
 Coeff-En:   0.000D+00 0.000D+00 0.100D+01
 Coeff:     -0.106D-02 0.160D-02-0.124D-02-0.502D-02-0.474D-02-0.142D-01
 Coeff:     -0.297D-01 0.179D+00 0.875D+00
 Gap=     0.192 Goal=   None    Shift=    0.000
 RMSDP=7.02D-04 MaxDP=4.05D-02 DE=-8.58D-03 OVMax= 1.90D-02

 Cycle  10  Pass 1  IDiag  1:
 RMSU=  4.49D-04    CP:  6.17D-03  1.21D-01  5.16D-01  8.01D-01  3.08D-01
                    CP:  9.16D-01  8.31D-01  9.00D-01  1.28D+00
 E= -3010.54560580229     Delta-E=       -0.001399846314 Rises=F Damp=F
 DIIS: error= 5.96D-04 at cycle  10 NSaved=  10.
 NSaved=10 IEnMin=10 EnMin= -3010.54560580229     IErMin=10 ErrMin= 5.96D-04
 ErrMax= 5.96D-04  0.00D+00 EMaxC= 1.00D-01 BMatC= 8.06D-05 BMatP= 1.06D-03
 IDIUse=3 WtCom= 9.94D-01 WtEn= 5.96D-03
 Coeff-Com: -0.973D-04 0.196D-03 0.650D-03 0.818D-04-0.264D-02-0.142D-01
 Coeff-Com: -0.405D-01-0.231D-01 0.247D+00 0.833D+00
 Coeff-En:   0.000D+00 0.000D+00 0.000D+00 0.000D+00 0.000D+00 0.000D+00
 Coeff-En:   0.000D+00 0.000D+00 0.000D+00 0.100D+01
 Coeff:     -0.967D-04 0.195D-03 0.646D-03 0.813D-04-0.262D-02-0.141D-01
 Coeff:     -0.402D-01-0.230D-01 0.245D+00 0.834D+00
 Gap=     0.192 Goal=   None    Shift=    0.000
 RMSDP=3.49D-04 MaxDP=1.43D-02 DE=-1.40D-03 OVMax= 1.07D-02

 Cycle  11  Pass 1  IDiag  1:
 RMSU=  1.61D-04    CP:  6.15D-03  1.21D-01  5.16D-01  8.01D-01  3.04D-01
                    CP:  9.09D-01  8.28D-01  9.09D-01  1.52D+00  1.33D+00
 E= -3010.54587893238     Delta-E=       -0.000273130096 Rises=F Damp=F
 DIIS: error= 2.56D-04 at cycle  11 NSaved=  11.
 NSaved=11 IEnMin=11 EnMin= -3010.54587893238     IErMin=11 ErrMin= 2.56D-04
 ErrMax= 2.56D-04  0.00D+00 EMaxC= 1.00D-01 BMatC= 2.36D-05 BMatP= 8.06D-05
 IDIUse=3 WtCom= 9.97D-01 WtEn= 2.56D-03
 Coeff-Com: -0.410D-03 0.549D-03 0.617D-03 0.167D-02-0.706D-03 0.421D-02
 Coeff-Com: -0.808D-03-0.506D-01-0.155D+00 0.192D+00 0.101D+01
 Coeff-En:   0.000D+00 0.000D+00 0.000D+00 0.000D+00 0.000D+00 0.000D+00
 Coeff-En:   0.000D+00 0.000D+00 0.000D+00 0.000D+00 0.100D+01
 Coeff:     -0.409D-03 0.548D-03 0.615D-03 0.167D-02-0.704D-03 0.420D-02
 Coeff:     -0.806D-03-0.505D-01-0.155D+00 0.191D+00 0.101D+01
 Gap=     0.193 Goal=   None    Shift=    0.000
 RMSDP=3.08D-04 MaxDP=1.37D-02 DE=-2.73D-04 OVMax= 9.80D-03

 Cycle  12  Pass 1  IDiag  1:
 RMSU=  9.01D-05    CP:  6.15D-03  1.21D-01  5.18D-01  8.04D-01  3.01D-01
                    CP:  9.04D-01  8.19D-01  9.04D-01  1.68D+00  1.72D+00
                    CP:  1.50D+00
 E= -3010.54600016036     Delta-E=       -0.000121227973 Rises=F Damp=F
 DIIS: error= 1.96D-04 at cycle  12 NSaved=  12.
 NSaved=12 IEnMin=12 EnMin= -3010.54600016036     IErMin=12 ErrMin= 1.96D-04
 ErrMax= 1.96D-04  0.00D+00 EMaxC= 1.00D-01 BMatC= 8.33D-06 BMatP= 2.36D-05
 IDIUse=3 WtCom= 9.98D-01 WtEn= 1.96D-03
 Coeff-Com: -0.414D-03 0.608D-03 0.641D-04 0.800D-03-0.374D-03 0.667D-02
 Coeff-Com:  0.650D-02-0.956D-02-0.677D-01-0.146D+00 0.179D+00 0.103D+01
 Coeff-En:   0.000D+00 0.000D+00 0.000D+00 0.000D+00 0.000D+00 0.000D+00
 Coeff-En:   0.000D+00 0.000D+00 0.000D+00 0.000D+00 0.000D+00 0.100D+01
 Coeff:     -0.414D-03 0.607D-03 0.640D-04 0.798D-03-0.374D-03 0.665D-02
 Coeff:      0.649D-02-0.954D-02-0.676D-01-0.145D+00 0.179D+00 0.103D+01
 Gap=     0.194 Goal=   None    Shift=    0.000
 RMSDP=1.60D-04 MaxDP=1.02D-02 DE=-1.21D-04 OVMax= 6.53D-03

 Cycle  13  Pass 1  IDiag  1:
 RMSU=  4.41D-05    CP:  6.15D-03  1.21D-01  5.18D-01  8.05D-01  3.00D-01
                    CP:  9.02D-01  8.16D-01  9.02D-01  1.76D+00  1.92D+00
                    CP:  1.94D+00  1.49D+00
 E= -3010.54603676289     Delta-E=       -0.000036602533 Rises=F Damp=F
 DIIS: error= 8.29D-05 at cycle  13 NSaved=  13.
 NSaved=13 IEnMin=13 EnMin= -3010.54603676289     IErMin=13 ErrMin= 8.29D-05
 ErrMax= 8.29D-05  0.00D+00 EMaxC= 1.00D-01 BMatC= 2.15D-06 BMatP= 8.33D-06
 IDIUse=1 WtCom= 1.00D+00 WtEn= 0.00D+00
 Coeff-Com: -0.128D-04-0.457D-06-0.441D-04 0.177D-03-0.303D-03 0.206D-02
 Coeff-Com:  0.417D-03 0.896D-02 0.351D-01-0.809D-01-0.269D+00 0.336D+00
 Coeff-Com:  0.968D+00
 Coeff:     -0.128D-04-0.457D-06-0.441D-04 0.177D-03-0.303D-03 0.206D-02
 Coeff:      0.417D-03 0.896D-02 0.351D-01-0.809D-01-0.269D+00 0.336D+00
 Coeff:      0.968D+00
 Gap=     0.194 Goal=   None    Shift=    0.000
 RMSDP=1.01D-04 MaxDP=4.61D-03 DE=-3.66D-05 OVMax= 3.98D-03

 Cycle  14  Pass 1  IDiag  1:
 RMSU=  2.07D-05    CP:  6.15D-03  1.21D-01  5.19D-01  8.06D-01  3.00D-01
                    CP:  9.00D-01  8.11D-01  8.97D-01  1.80D+00  2.02D+00
                    CP:  2.11D+00  1.94D+00  1.23D+00
 E= -3010.54604614756     Delta-E=       -0.000009384669 Rises=F Damp=F
 DIIS: error= 2.84D-05 at cycle  14 NSaved=  14.
 NSaved=14 IEnMin=14 EnMin= -3010.54604614756     IErMin=14 ErrMin= 2.84D-05
 ErrMax= 2.84D-05  0.00D+00 EMaxC= 1.00D-01 BMatC= 1.72D-07 BMatP= 2.15D-06
 IDIUse=1 WtCom= 1.00D+00 WtEn= 0.00D+00
 Coeff-Com:  0.340D-04-0.572D-04-0.201D-04 0.202D-04-0.984D-04-0.268D-03
 Coeff-Com: -0.112D-02 0.376D-02 0.214D-01-0.169D-02-0.114D+00 0.861D-02
 Coeff-Com:  0.287D+00 0.796D+00
 Coeff:      0.340D-04-0.572D-04-0.201D-04 0.202D-04-0.984D-04-0.268D-03
 Coeff:     -0.112D-02 0.376D-02 0.214D-01-0.169D-02-0.114D+00 0.861D-02
 Coeff:      0.287D+00 0.796D+00
 Gap=     0.194 Goal=   None    Shift=    0.000
 RMSDP=2.10D-05 MaxDP=1.01D-03 DE=-9.38D-06 OVMax= 1.18D-03

 Cycle  15  Pass 1  IDiag  1:
 RMSU=  1.01D-05    CP:  6.15D-03  1.21D-01  5.19D-01  8.06D-01  3.00D-01
                    CP:  9.00D-01  8.12D-01  8.97D-01  1.81D+00  2.04D+00
                    CP:  2.14D+00  2.04D+00  1.42D+00  1.12D+00
 E= -3010.54604731746     Delta-E=       -0.000001169906 Rises=F Damp=F
 DIIS: error= 2.16D-05 at cycle  15 NSaved=  15.
 NSaved=15 IEnMin=15 EnMin= -3010.54604731746     IErMin=15 ErrMin= 2.16D-05
 ErrMax= 2.16D-05  0.00D+00 EMaxC= 1.00D-01 BMatC= 5.61D-08 BMatP= 1.72D-07
 IDIUse=1 WtCom= 1.00D+00 WtEn= 0.00D+00
 Coeff-Com:  0.223D-04-0.286D-04-0.180D-04-0.115D-03 0.335D-05-0.660D-03
 Coeff-Com: -0.412D-03 0.686D-04 0.976D-03 0.107D-01 0.500D-02-0.486D-01
 Coeff-Com: -0.108D+00 0.204D+00 0.938D+00
 Coeff:      0.223D-04-0.286D-04-0.180D-04-0.115D-03 0.335D-05-0.660D-03
 Coeff:     -0.412D-03 0.686D-04 0.976D-03 0.107D-01 0.500D-02-0.486D-01
 Coeff:     -0.108D+00 0.204D+00 0.938D+00
 Gap=     0.194 Goal=   None    Shift=    0.000
 RMSDP=2.42D-05 MaxDP=1.34D-03 DE=-1.17D-06 OVMax= 1.09D-03

 Cycle  16  Pass 1  IDiag  1:
 RMSU=  5.72D-06    CP:  6.15D-03  1.21D-01  5.19D-01  8.06D-01  3.00D-01
                    CP:  9.00D-01  8.12D-01  8.97D-01  1.82D+00  2.07D+00
                    CP:  2.17D+00  2.15D+00  1.60D+00  1.33D+00  1.53D+00
 E= -3010.54604793287     Delta-E=       -0.000000615409 Rises=F Damp=F
 DIIS: error= 1.04D-05 at cycle  16 NSaved=  16.
 NSaved=16 IEnMin=16 EnMin= -3010.54604793287     IErMin=16 ErrMin= 1.04D-05
 ErrMax= 1.04D-05  0.00D+00 EMaxC= 1.00D-01 BMatC= 1.89D-08 BMatP= 5.61D-08
 IDIUse=1 WtCom= 1.00D+00 WtEn= 0.00D+00
 Coeff-Com:  0.891D-05-0.126D-04-0.646D-05-0.959D-04-0.114D-04-0.120D-04
 Coeff-Com:  0.406D-03-0.442D-03-0.474D-02-0.229D-02 0.262D-01 0.475D-02
 Coeff-Com: -0.677D-01-0.290D+00 0.828D-01 0.125D+01
 Coeff:      0.891D-05-0.126D-04-0.646D-05-0.959D-04-0.114D-04-0.120D-04
 Coeff:      0.406D-03-0.442D-03-0.474D-02-0.229D-02 0.262D-01 0.475D-02
 Coeff:     -0.677D-01-0.290D+00 0.828D-01 0.125D+01
 Gap=     0.194 Goal=   None    Shift=    0.000
 RMSDP=1.85D-05 MaxDP=1.17D-03 DE=-6.15D-07 OVMax= 8.82D-04

 Cycle  17  Pass 1  IDiag  1:
 RMSU=  3.74D-06    CP:  6.15D-03  1.21D-01  5.19D-01  8.06D-01  3.00D-01
                    CP:  9.00D-01  8.12D-01  8.97D-01  1.83D+00  2.09D+00
                    CP:  2.19D+00  2.22D+00  1.75D+00  1.44D+00  2.07D+00
                    CP:  1.55D+00
 E= -3010.54604817930     Delta-E=       -0.000000246423 Rises=F Damp=F
 DIIS: error= 4.75D-06 at cycle  17 NSaved=  17.
 NSaved=17 IEnMin=17 EnMin= -3010.54604817930     IErMin=17 ErrMin= 4.75D-06
 ErrMax= 4.75D-06  0.00D+00 EMaxC= 1.00D-01 BMatC= 4.49D-09 BMatP= 1.89D-08
 IDIUse=1 WtCom= 1.00D+00 WtEn= 0.00D+00
 Coeff-Com:  0.337D-05-0.565D-05 0.203D-05-0.114D-05-0.108D-04 0.157D-03
 Coeff-Com:  0.189D-03-0.693D-04-0.161D-02-0.406D-02 0.714D-02 0.151D-01
 Coeff-Com:  0.114D-01-0.167D+00-0.184D+00 0.439D+00 0.885D+00
 Coeff:      0.337D-05-0.565D-05 0.203D-05-0.114D-05-0.108D-04 0.157D-03
 Coeff:      0.189D-03-0.693D-04-0.161D-02-0.406D-02 0.714D-02 0.151D-01
 Coeff:      0.114D-01-0.167D+00-0.184D+00 0.439D+00 0.885D+00
 Gap=     0.194 Goal=   None    Shift=    0.000
 RMSDP=7.67D-06 MaxDP=5.54D-04 DE=-2.46D-07 OVMax= 3.48D-04

 Cycle  18  Pass 1  IDiag  1:
 RMSU=  9.28D-07    CP:  6.15D-03  1.21D-01  5.19D-01  8.06D-01  3.00D-01
                    CP:  9.00D-01  8.12D-01  8.97D-01  1.83D+00  2.10D+00
                    CP:  2.20D+00  2.24D+00  1.81D+00  1.49D+00  2.29D+00
                    CP:  1.81D+00  1.39D+00
 E= -3010.54604821943     Delta-E=       -0.000000040131 Rises=F Damp=F
 DIIS: error= 1.82D-06 at cycle  18 NSaved=  18.
 NSaved=18 IEnMin=18 EnMin= -3010.54604821943     IErMin=18 ErrMin= 1.82D-06
 ErrMax= 1.82D-06  0.00D+00 EMaxC= 1.00D-01 BMatC= 8.07D-10 BMatP= 4.49D-09
 IDIUse=1 WtCom= 1.00D+00 WtEn= 0.00D+00
 Coeff-Com:  0.195D-07 0.156D-06 0.834D-06 0.221D-04-0.430D-05 0.297D-04
 Coeff-Com: -0.658D-04 0.111D-03 0.720D-03-0.448D-03-0.420D-02-0.149D-02
 Coeff-Com:  0.181D-01 0.148D-01-0.238D-01-0.157D+00 0.132D+00 0.102D+01
 Coeff:      0.195D-07 0.156D-06 0.834D-06 0.221D-04-0.430D-05 0.297D-04
 Coeff:     -0.658D-04 0.111D-03 0.720D-03-0.448D-03-0.420D-02-0.149D-02
 Coeff:      0.181D-01 0.148D-01-0.238D-01-0.157D+00 0.132D+00 0.102D+01
 Gap=     0.194 Goal=   None    Shift=    0.000
 RMSDP=3.23D-06 MaxDP=2.37D-04 DE=-4.01D-08 OVMax= 1.53D-04

 Cycle  19  Pass 1  IDiag  1:
 RMSU=  4.58D-07    CP:  6.15D-03  1.21D-01  5.19D-01  8.06D-01  3.00D-01
                    CP:  9.00D-01  8.11D-01  8.97D-01  1.83D+00  2.11D+00
                    CP:  2.20D+00  2.25D+00  1.83D+00  1.50D+00  2.35D+00
                    CP:  1.89D+00  1.57D+00  1.48D+00
 E= -3010.54604822660     Delta-E=       -0.000000007171 Rises=F Damp=F
 DIIS: error= 6.44D-07 at cycle  19 NSaved=  19.
 NSaved=19 IEnMin=19 EnMin= -3010.54604822660     IErMin=19 ErrMin= 6.44D-07
 ErrMax= 6.44D-07  0.00D+00 EMaxC= 1.00D-01 BMatC= 1.47D-10 BMatP= 8.07D-10
 IDIUse=1 WtCom= 1.00D+00 WtEn= 0.00D+00
 Coeff-Com: -0.350D-06 0.605D-06 0.646D-06 0.270D-05-0.222D-05-0.121D-04
 Coeff-Com: -0.335D-04 0.102D-04 0.367D-03 0.685D-03-0.423D-03-0.334D-02
 Coeff-Com: -0.311D-03 0.212D-01 0.334D-01-0.820D-01-0.154D+00 0.400D-01
 Coeff-Com:  0.114D+01
 Coeff:     -0.350D-06 0.605D-06 0.646D-06 0.270D-05-0.222D-05-0.121D-04
 Coeff:     -0.335D-04 0.102D-04 0.367D-03 0.685D-03-0.423D-03-0.334D-02
 Coeff:     -0.311D-03 0.212D-01 0.334D-01-0.820D-01-0.154D+00 0.400D-01
 Coeff:      0.114D+01
 Gap=     0.194 Goal=   None    Shift=    0.000
 RMSDP=1.16D-06 MaxDP=7.58D-05 DE=-7.17D-09 OVMax= 5.87D-05

 Cycle  20  Pass 1  IDiag  1:
 RMSU=  2.01D-07    CP:  6.15D-03  1.21D-01  5.19D-01  8.06D-01  3.00D-01
                    CP:  9.00D-01  8.11D-01  8.97D-01  1.83D+00  2.11D+00
                    CP:  2.20D+00  2.25D+00  1.84D+00  1.50D+00  2.38D+00
                    CP:  1.89D+00  1.70D+00  1.81D+00  1.42D+00
 E= -3010.54604822787     Delta-E=       -0.000000001275 Rises=F Damp=F
 DIIS: error= 2.98D-07 at cycle  20 NSaved=  20.
 NSaved=20 IEnMin=20 EnMin= -3010.54604822787     IErMin=20 ErrMin= 2.98D-07
 ErrMax= 2.98D-07  0.00D+00 EMaxC= 1.00D-01 BMatC= 3.71D-11 BMatP= 1.47D-10
 IDIUse=1 WtCom= 1.00D+00 WtEn= 0.00D+00
 Coeff-Com: -0.147D-06 0.168D-06-0.135D-07-0.347D-05-0.187D-06-0.839D-05
 Coeff-Com:  0.234D-05-0.166D-04-0.193D-04 0.277D-03 0.476D-03-0.134D-02
 Coeff-Com: -0.334D-02 0.479D-02 0.195D-01-0.924D-03-0.875D-01-0.178D+00
 Coeff-Com:  0.501D+00 0.745D+00
 Coeff:     -0.147D-06 0.168D-06-0.135D-07-0.347D-05-0.187D-06-0.839D-05
 Coeff:      0.234D-05-0.166D-04-0.193D-04 0.277D-03 0.476D-03-0.134D-02
 Coeff:     -0.334D-02 0.479D-02 0.195D-01-0.924D-03-0.875D-01-0.178D+00
 Coeff:      0.501D+00 0.745D+00
 Gap=     0.194 Goal=   None    Shift=    0.000
 RMSDP=4.23D-07 MaxDP=2.19D-05 DE=-1.27D-09 OVMax= 2.11D-05

 Cycle  21  Pass 1  IDiag  1:
 Restarting incremental Fock formation.
 E= -3010.54604822799     Delta-E=       -0.000000000118 Rises=F Damp=F
 DIIS: error= 1.49D-07 at cycle  21 NSaved=  20.
 NSaved=20 IEnMin=20 EnMin= -3010.54604822799     IErMin=20 ErrMin= 1.49D-07
 ErrMax= 1.49D-07  0.00D+00 EMaxC= 1.00D-01 BMatC= 4.38D-12 BMatP= 3.71D-11
 IDIUse=1 WtCom= 1.00D+00 WtEn= 0.00D+00
 Coeff-Com:  0.220D-07-0.203D-07-0.110D-05 0.150D-06-0.702D-06 0.345D-05
 Coeff-Com: -0.612D-05-0.732D-04 0.148D-04 0.284D-03 0.436D-03-0.886D-03
 Coeff-Com: -0.244D-02-0.304D-02 0.117D-01 0.139D-01-0.369D-01-0.130D+00
 Coeff-Com:  0.119D+00 0.103D+01
 Coeff:      0.220D-07-0.203D-07-0.110D-05 0.150D-06-0.702D-06 0.345D-05
 Coeff:     -0.612D-05-0.732D-04 0.148D-04 0.284D-03 0.436D-03-0.886D-03
 Coeff:     -0.244D-02-0.304D-02 0.117D-01 0.139D-01-0.369D-01-0.130D+00
 Coeff:      0.119D+00 0.103D+01
 Gap=     0.194 Goal=   None    Shift=    0.000
 RMSDP=1.29D-07 MaxDP=5.63D-06 DE=-1.18D-10 OVMax= 5.88D-06

 Cycle  22  Pass 1  IDiag  1:
 RMSU=  1.29D-07    CP:  1.00D+00
 E= -3010.54604822805     Delta-E=       -0.000000000062 Rises=F Damp=F
 DIIS: error= 7.85D-08 at cycle  22 NSaved=  20.
 NSaved=20 IEnMin=20 EnMin= -3010.54604822805     IErMin=20 ErrMin= 7.85D-08
 ErrMax= 7.85D-08  0.00D+00 EMaxC= 1.00D-01 BMatC= 7.72D-13 BMatP= 4.38D-12
 IDIUse=1 WtCom= 1.00D+00 WtEn= 0.00D+00
 Coeff-Com:  0.145D-07 0.212D-06 0.152D-06 0.878D-06 0.606D-06-0.348D-05
 Coeff-Com: -0.297D-04-0.385D-04 0.248D-04 0.340D-03 0.116D-03-0.967D-03
 Coeff-Com: -0.344D-02 0.262D-02 0.164D-01 0.166D-01-0.915D-01-0.948D-01
 Coeff-Com:  0.175D+00 0.980D+00
 Coeff:      0.145D-07 0.212D-06 0.152D-06 0.878D-06 0.606D-06-0.348D-05
 Coeff:     -0.297D-04-0.385D-04 0.248D-04 0.340D-03 0.116D-03-0.967D-03
 Coeff:     -0.344D-02 0.262D-02 0.164D-01 0.166D-01-0.915D-01-0.948D-01
 Coeff:      0.175D+00 0.980D+00
 Gap=     0.194 Goal=   None    Shift=    0.000
 RMSDP=4.64D-08 MaxDP=2.48D-06 DE=-6.23D-11 OVMax= 2.76D-06

 Cycle  23  Pass 1  IDiag  1:
 RMSU=  3.26D-08    CP:  1.00D+00  1.23D+00
 E= -3010.54604822809     Delta-E=       -0.000000000037 Rises=F Damp=F
 DIIS: error= 5.15D-08 at cycle  23 NSaved=  20.
 NSaved=20 IEnMin=20 EnMin= -3010.54604822809     IErMin=20 ErrMin= 5.15D-08
 ErrMax= 5.15D-08  0.00D+00 EMaxC= 1.00D-01 BMatC= 1.86D-13 BMatP= 7.72D-13
 IDIUse=1 WtCom= 1.00D+00 WtEn= 0.00D+00
 Coeff-Com:  0.264D-06 0.255D-07 0.482D-06-0.410D-07-0.171D-06 0.696D-05
 Coeff-Com: -0.596D-05-0.470D-04 0.647D-05 0.129D-03 0.403D-03-0.343D-03
 Coeff-Com: -0.142D-02 0.129D-02 0.823D-02 0.693D-02-0.488D-01-0.157D+00
 Coeff-Com:  0.234D+00 0.956D+00
 Coeff:      0.264D-06 0.255D-07 0.482D-06-0.410D-07-0.171D-06 0.696D-05
 Coeff:     -0.596D-05-0.470D-04 0.647D-05 0.129D-03 0.403D-03-0.343D-03
 Coeff:     -0.142D-02 0.129D-02 0.823D-02 0.693D-02-0.488D-01-0.157D+00
 Coeff:      0.234D+00 0.956D+00
 Gap=     0.194 Goal=   None    Shift=    0.000
 RMSDP=2.73D-08 MaxDP=1.29D-06 DE=-3.73D-11 OVMax= 1.74D-06

 Cycle  24  Pass 1  IDiag  1:
 RMSU=  1.45D-08    CP:  1.00D+00  1.34D+00  1.46D+00
 E= -3010.54604822810     Delta-E=       -0.000000000010 Rises=F Damp=F
 DIIS: error= 2.39D-08 at cycle  24 NSaved=  20.
 NSaved=20 IEnMin=20 EnMin= -3010.54604822810     IErMin=20 ErrMin= 2.39D-08
 ErrMax= 2.39D-08  0.00D+00 EMaxC= 1.00D-01 BMatC= 4.28D-14 BMatP= 1.86D-13
 IDIUse=1 WtCom= 1.00D+00 WtEn= 0.00D+00
 Coeff-Com: -0.578D-07-0.105D-06 0.343D-06 0.570D-06 0.554D-05 0.654D-05
 Coeff-Com: -0.592D-05-0.706D-04-0.627D-04 0.188D-03 0.651D-03-0.808D-04
 Coeff-Com: -0.334D-02-0.435D-02 0.216D-01 0.135D-01-0.575D-01-0.192D+00
 Coeff-Com:  0.165D+00 0.106D+01
 Coeff:     -0.578D-07-0.105D-06 0.343D-06 0.570D-06 0.554D-05 0.654D-05
 Coeff:     -0.592D-05-0.706D-04-0.627D-04 0.188D-03 0.651D-03-0.808D-04
 Coeff:     -0.334D-02-0.435D-02 0.216D-01 0.135D-01-0.575D-01-0.192D+00
 Coeff:      0.165D+00 0.106D+01
 Gap=     0.194 Goal=   None    Shift=    0.000
 RMSDP=2.12D-08 MaxDP=1.13D-06 DE=-1.00D-11 OVMax= 1.01D-06

 Cycle  25  Pass 1  IDiag  1:
 RMSU=  9.22D-09    CP:  1.00D+00  1.39D+00  1.71D+00  1.66D+00
 E= -3010.54604822812     Delta-E=       -0.000000000020 Rises=F Damp=F
 DIIS: error= 1.19D-08 at cycle  25 NSaved=  20.
 NSaved=20 IEnMin=20 EnMin= -3010.54604822812     IErMin=20 ErrMin= 1.19D-08
 ErrMax= 1.19D-08  0.00D+00 EMaxC= 1.00D-01 BMatC= 6.53D-15 BMatP= 4.28D-14
 IDIUse=1 WtCom= 1.00D+00 WtEn= 0.00D+00
 Large coefficients: NSaved= 20 BigCof=    0.00 CofMax=   10.00 Det=-8.40D-15
 Inversion failed.  Reducing to 19 matrices.
 Large coefficients: NSaved= 19 BigCof=    0.00 CofMax=   10.00 Det=-8.40D-15
 Inversion failed.  Reducing to 18 matrices.
 Large coefficients: NSaved= 18 BigCof=    0.00 CofMax=   10.00 Det=-9.70D-15
 Inversion failed.  Reducing to 17 matrices.
 Coeff-Com: -0.201D-05-0.751D-06 0.856D-05 0.115D-04 0.303D-05-0.883D-04
 Coeff-Com: -0.222D-04 0.107D-03 0.219D-03 0.135D-03-0.513D-02 0.409D-02
 Coeff-Com:  0.370D-01 0.164D-02-0.217D+00-0.250D+00 0.143D+01
 Coeff:     -0.201D-05-0.751D-06 0.856D-05 0.115D-04 0.303D-05-0.883D-04
 Coeff:     -0.222D-04 0.107D-03 0.219D-03 0.135D-03-0.513D-02 0.409D-02
 Coeff:      0.370D-01 0.164D-02-0.217D+00-0.250D+00 0.143D+01
 Gap=     0.194 Goal=   None    Shift=    0.000
 RMSDP=1.19D-08 MaxDP=7.48D-07 DE=-2.00D-11 OVMax= 6.49D-07

 Cycle  26  Pass 1  IDiag  1:
 RMSU=  4.74D-09    CP:  1.00D+00  1.40D+00  1.89D+00  2.02D+00  1.46D+00
 E= -3010.54604822807     Delta-E=        0.000000000045 Rises=F Damp=F
 DIIS: error= 2.92D-09 at cycle  26 NSaved=  18.
 NSaved=18 IEnMin=17 EnMin= -3010.54604822812     IErMin=18 ErrMin= 2.92D-09
 ErrMax= 2.92D-09  0.00D+00 EMaxC= 1.00D-01 BMatC= 9.86D-16 BMatP= 6.53D-15
 IDIUse=1 WtCom= 1.00D+00 WtEn= 0.00D+00
 Large coefficients: NSaved= 18 BigCof=    0.00 CofMax=   10.00 Det=-1.15D-15
 Inversion failed.  Reducing to 17 matrices.
 Large coefficients: NSaved= 17 BigCof=    0.00 CofMax=   10.00 Det=-1.47D-15
 Inversion failed.  Reducing to 16 matrices.
 Large coefficients: NSaved= 16 BigCof=    0.00 CofMax=   10.00 Det=-1.55D-15
 Inversion failed.  Reducing to 15 matrices.
 Coeff-Com: -0.540D-06 0.106D-05-0.643D-05 0.153D-04-0.245D-05-0.691D-04
 Coeff-Com: -0.225D-03-0.292D-04 0.445D-03 0.190D-02 0.862D-02-0.365D-02
 Coeff-Com: -0.741D-01-0.130D+00 0.120D+01
 Coeff:     -0.540D-06 0.106D-05-0.643D-05 0.153D-04-0.245D-05-0.691D-04
 Coeff:     -0.225D-03-0.292D-04 0.445D-03 0.190D-02 0.862D-02-0.365D-02
 Coeff:     -0.741D-01-0.130D+00 0.120D+01
 Gap=     0.194 Goal=   None    Shift=    0.000
 RMSDP=4.24D-09 MaxDP=2.57D-07 DE= 4.55D-11 OVMax= 1.72D-07

 SCF Done:  E(RwB97XD) =  -3010.54604823     A.U. after   26 cycles
            NFock= 26  Conv=0.42D-08     -V/T= 2.0016
 KE= 3.005858222307D+03 PE=-8.629111880897D+03 EE= 1.876617453947D+03
 Leave Link  502 at Wed May  1 14:53:05 2024, MaxMem=  1207959552 cpu:            1462.1 elap:            1462.4
 (Enter /software/gaussian/g16-c01/sse4/g16/l601.exe)
 Copying SCF densities to generalized density rwf, IOpCl= 0 IROHF=0.

 **********************************************************************

            Population analysis using the SCF Density.

 **********************************************************************

 Alpha  occ. eigenvalues -- -483.30185 -62.85232 -56.64892 -56.64366 -56.64363
 Alpha  occ. eigenvalues --  -19.37473 -19.37406 -14.77073 -10.56871 -10.54888
 Alpha  occ. eigenvalues --  -10.54390 -10.53502 -10.52954 -10.51360  -9.01054
 Alpha  occ. eigenvalues --   -6.83641  -6.81911  -6.81895  -2.93567  -2.93106
 Alpha  occ. eigenvalues --   -2.93092  -2.91708  -2.91708  -1.41202  -1.24080
 Alpha  occ. eigenvalues --   -1.19982  -1.11310  -1.08961  -1.02690  -0.96483
 Alpha  occ. eigenvalues --   -0.92863  -0.87561  -0.81769  -0.77575  -0.76372
 Alpha  occ. eigenvalues --   -0.73986  -0.73732  -0.71995  -0.69694  -0.67736
 Alpha  occ. eigenvalues --   -0.66861  -0.64540  -0.61119  -0.58022  -0.55756
 Alpha  occ. eigenvalues --   -0.53506  -0.48353  -0.46950  -0.46812
 Alpha virt. eigenvalues --   -0.27382  -0.16233  -0.14421  -0.12880  -0.09347
 Alpha virt. eigenvalues --   -0.08652  -0.07623  -0.06499  -0.03521  -0.02875
 Alpha virt. eigenvalues --   -0.02055  -0.00842  -0.00431  -0.00072   0.00746
 Alpha virt. eigenvalues --    0.02274   0.02810   0.03314   0.03961   0.04516
 Alpha virt. eigenvalues --    0.04888   0.06955   0.07766   0.08317   0.08992
 Alpha virt. eigenvalues --    0.09153   0.10238   0.10778   0.11560   0.12263
 Alpha virt. eigenvalues --    0.13090   0.14137   0.14870   0.15518   0.16012
 Alpha virt. eigenvalues --    0.17362   0.17680   0.18769   0.20143   0.21168
 Alpha virt. eigenvalues --    0.21561   0.22601   0.23275   0.24072   0.25598
 Alpha virt. eigenvalues --    0.26152   0.28785   0.29218   0.29598   0.30353
 Alpha virt. eigenvalues --    0.30993   0.31664   0.33347   0.34991   0.35761
 Alpha virt. eigenvalues --    0.36315   0.37649   0.38621   0.39299   0.40930
 Alpha virt. eigenvalues --    0.42041   0.42960   0.43633   0.44597   0.45629
 Alpha virt. eigenvalues --    0.46309   0.48167   0.48737   0.49637   0.51392
 Alpha virt. eigenvalues --    0.52203   0.52718   0.53215   0.55253   0.56479
 Alpha virt. eigenvalues --    0.58430   0.58730   0.60024   0.61930   0.62699
 Alpha virt. eigenvalues --    0.63410   0.65683   0.66079   0.68315   0.69871
 Alpha virt. eigenvalues --    0.72659   0.73319   0.75214   0.75896   0.77234
 Alpha virt. eigenvalues --    0.79747   0.83347   0.85036   0.86884   0.88178
 Alpha virt. eigenvalues --    0.89158   0.93243   0.96280   0.98145   1.04273
 Alpha virt. eigenvalues --    1.04817   1.07418   1.08231   1.10203   1.10675
 Alpha virt. eigenvalues --    1.13980   1.16986   1.20307   1.21187   1.23773
 Alpha virt. eigenvalues --    1.29297   1.30665   1.32599   1.35875   1.39477
 Alpha virt. eigenvalues --    1.39997   1.40650   1.47723   1.57887   1.60612
 Alpha virt. eigenvalues --    1.62127   1.62330   1.65851   1.67959   1.69029
 Alpha virt. eigenvalues --    1.72801   1.74925   1.75933   1.81158   1.82271
 Alpha virt. eigenvalues --    1.83479   1.89829   1.91339   1.94480   1.96967
 Alpha virt. eigenvalues --    2.02003   2.06451   2.07870   2.09962   2.10954
 Alpha virt. eigenvalues --    2.12717   2.17492   2.23244   2.27553   2.31896
 Alpha virt. eigenvalues --    2.41028   2.45903   2.46864   2.48317   2.55161
 Alpha virt. eigenvalues --    2.59287   2.66175   2.69146   2.71467   2.77698
 Alpha virt. eigenvalues --    2.80592   2.82685   2.84056   2.85184   2.89676
 Alpha virt. eigenvalues --    2.95889   2.99275   3.07641   3.09257   3.12600
 Alpha virt. eigenvalues --    3.15892   3.18408   3.22294   3.27225   3.31565
 Alpha virt. eigenvalues --    3.36088   3.44141   3.50117   3.55921   3.59606
 Alpha virt. eigenvalues --    3.64117   3.78038   3.82525   3.85066   3.90245
 Alpha virt. eigenvalues --    4.09731   4.09972   4.17681   4.22818   4.43710
 Alpha virt. eigenvalues --    4.53134   4.60130   4.67310   5.02066   5.04817
 Alpha virt. eigenvalues --    5.13433   5.17595   5.71272   6.24557   6.65484
 Alpha virt. eigenvalues --    7.48399   7.49977   7.59871  23.23839  23.63941
 Alpha virt. eigenvalues --   23.71252  23.82346  23.98319  24.04676  35.40868
 Alpha virt. eigenvalues --   47.92181  49.93998  50.02811 289.81533 289.83201
 Alpha virt. eigenvalues --  289.956681020.92638
          Condensed to atoms (all electrons):
               1          2          3          4          5          6
     1  C   10.354783  -3.338563   0.236313  -2.201459  -0.919549   0.304079
     2  C   -3.338563  14.362935  -2.282846  -1.668432   0.463230   0.014810
     3  C    0.236313  -2.282846  14.306596  -4.408628  -1.312430   0.028539
     4  C   -2.201459  -1.668432  -4.408628  17.705272   1.114756   0.013088
     5  C   -0.919549   0.463230  -1.312430   1.114756   8.712734  -0.015136
     6  H    0.304079   0.014810   0.028539   0.013088  -0.015136   0.370608
     7  H    0.106233   0.182213   0.073981  -0.038715  -0.016753  -0.001727
     8  H    0.011620  -0.024224   0.099057   0.171484  -0.035259  -0.000002
     9  H    0.069129  -0.049488   0.018681  -0.020081   0.243944  -0.003486
    10  N   -0.262718   0.445797  -0.979740   0.439678  -0.008130  -0.000707
    11  O   -0.002799  -0.148974  -0.258246   0.036436  -0.074691  -0.000029
    12  O    0.446625  -0.035825  -0.259104  -0.199877  -0.044960   0.000096
    13  C    1.738936  -2.416106   1.413304  -5.224235  -2.118911  -0.008932
    14  H   -0.034351   0.020608  -0.013013  -0.089458   0.080285  -0.000029
    15  Br   0.019262   0.042889  -0.019115   0.040877  -0.036824  -0.000263
               7          8          9         10         11         12
     1  C    0.106233   0.011620   0.069129  -0.262718  -0.002799   0.446625
     2  C    0.182213  -0.024224  -0.049488   0.445797  -0.148974  -0.035825
     3  C    0.073981   0.099057   0.018681  -0.979740  -0.258246  -0.259104
     4  C   -0.038715   0.171484  -0.020081   0.439678   0.036436  -0.199877
     5  C   -0.016753  -0.035259   0.243944  -0.008130  -0.074691  -0.044960
     6  H   -0.001727  -0.000002  -0.003486  -0.000707  -0.000029   0.000096
     7  H    0.277242   0.000008   0.000037  -0.028166  -0.001598   0.032468
     8  H    0.000008   0.270888   0.000102  -0.025698   0.031164  -0.000675
     9  H    0.000037   0.000102   0.409030   0.000235   0.000016   0.000012
    10  N   -0.028166  -0.025698   0.000235   7.719775   0.047653   0.015052
    11  O   -0.001598   0.031164   0.000016   0.047653   7.844215   0.018481
    12  O    0.032468  -0.000675   0.000012   0.015052   0.018481   7.879962
    13  C    0.020210   0.098951   0.065233  -0.256617   0.399829   0.038706
    14  H   -0.000026  -0.002788  -0.007657   0.001349  -0.000456  -0.000085
    15  Br   0.000105   0.007850   0.002024   0.009817  -0.000249   0.002182
              13         14         15
     1  C    1.738936  -0.034351   0.019262
     2  C   -2.416106   0.020608   0.042889
     3  C    1.413304  -0.013013  -0.019115
     4  C   -5.224235  -0.089458   0.040877
     5  C   -2.118911   0.080285  -0.036824
     6  H   -0.008932  -0.000029  -0.000263
     7  H    0.020210  -0.000026   0.000105
     8  H    0.098951  -0.002788   0.007850
     9  H    0.065233  -0.007657   0.002024
    10  N   -0.256617   0.001349   0.009817
    11  O    0.399829  -0.000456  -0.000249
    12  O    0.038706  -0.000085   0.002182
    13  C   12.302478   0.347535   0.084693
    14  H    0.347535   0.371535  -0.050537
    15  Br   0.084693  -0.050537  34.809356
 Mulliken charges:
               1
     1  C   -0.527543
     2  C    0.431975
     3  C   -0.643349
     4  C    0.329295
     5  C   -0.032305
     6  H    0.299091
     7  H    0.394488
     8  H    0.397523
     9  H    0.272267
    10  N   -0.117579
    11  O    0.109247
    12  O    0.106941
    13  C   -0.485075
    14  H    0.377088
    15  Br   0.087934
 Sum of Mulliken charges =   1.00000
 Mulliken charges with hydrogens summed into heavy atoms:
               1
     1  C   -0.228452
     2  C    0.826463
     3  C   -0.643349
     4  C    0.726818
     5  C    0.239962
    10  N   -0.117579
    11  O    0.109247
    12  O    0.106941
    13  C   -0.107987
    15  Br   0.087934
 Electronic spatial extent (au):  <R**2>=           2791.2506
 Charge=              1.0000 electrons
 Dipole moment (field-independent basis, Debye):
    X=              4.1820    Y=             -0.0386    Z=              0.3751  Tot=              4.1989
 Quadrupole moment (field-independent basis, Debye-Ang):
   XX=            -59.7522   YY=            -52.6075   ZZ=            -63.9146
   XY=              0.4245   XZ=             -0.1860   YZ=              0.5312
 Traceless Quadrupole moment (field-independent basis, Debye-Ang):
   XX=             -0.9941   YY=              6.1505   ZZ=             -5.1565
   XY=              0.4245   XZ=             -0.1860   YZ=              0.5312
 Octapole moment (field-independent basis, Debye-Ang**2):
  XXX=           -230.8789  YYY=             91.7524  ZZZ=             80.5074  XYY=            -64.4652
  XXY=             32.4478  XXZ=             32.7440  XZZ=            -72.6587  YZZ=             19.0832
  YYZ=             27.9434  XYZ=             -0.9902
 Hexadecapole moment (field-independent basis, Debye-Ang**3):
 XXXX=          -1992.4143 YYYY=           -687.1287 ZZZZ=           -357.6949 XXXY=            -69.4365
 XXXZ=            -30.2394 YYYX=            -65.7252 YYYZ=           -162.9681 ZZZX=            -25.0249
 ZZZY=           -142.5819 XXYY=           -435.3240 XXZZ=           -367.3193 YYZZ=           -169.9656
 XXYZ=            -57.9124 YYXZ=             -7.8319 ZZXY=            -13.5456
 N-N= 7.360901564154D+02 E-N=-8.629111880855D+03  KE= 3.005858222307D+03
 No NMR shielding tensors so no spin-rotation constants.
 Leave Link  601 at Wed May  1 14:53:13 2024, MaxMem=  1207959552 cpu:               7.5 elap:               7.5
 (Enter /software/gaussian/g16-c01/sse4/g16/l9999.exe)
 Unable to Open any file for archive entry.
 1\1\GINC-BHX0007\SP\RwB97XD\6-311+G(d)\C6H5Br1N1O2(1+)\BWEIGHT\01-May-
 2024\0\\#P wB97XD/6-311+G* NoSymm #P Field=X-165\\TitleMe\\1,1\C,0,0.0
 295,1.3397,0.0682\C,0,1.4348,1.2867,0.0064\C,0,2.1118,0.0511,-0.0054\C
 ,0,1.4451,-1.1372,0.0312\C,0,-0.6879,0.1682,0.11\H,0,-0.4713,2.2984,0.
 0781\H,0,2.0273,2.1965,-0.0322\H,0,1.9897,-2.0764,0.0232\H,0,-1.7716,0
 .1804,0.1582\N,0,3.5864,0.051,-0.0675\O,0,4.1471,-1.0597,-0.0881\O,0,4
 .145,1.1639,-0.0901\C,0,-0.0236,-1.1458,0.0835\H,0,-0.4367,-1.8725,0.7
 889\Br,0,-0.5359,-1.8697,-1.7408\\Version=ES64L-G16RevC.01\HF=-3010.54
 60482\RMSD=4.242e-09\Dipole=-0.261221,1.1328988,1.293745\Quadrupole=-0
 .7390738,4.5727767,-3.8337029,0.3155731,-0.138272,0.3949438\PG=C01 [X(
 C6H5Br1N1O2)]\\@
 The archive entry for this job was punched.


 MAN IS A SINGULAR CREATURE.  HE HAS A SET OF GIFTS
 WHICH MAKE HIM UNIQUE AMONG THE ANIMALS: SO THAT, 
 UNLIKE THEM, HE IS NOT A FIGURE IN THE LANDSCAPE --
 HE IS A SHAPER OF THE LANDSCAPE.

                       -- JACOB BRONOWSKI
 Job cpu time:       0 days  0 hours 25 minutes 29.9 seconds.
 Elapsed time:       0 days  0 hours 25 minutes 30.3 seconds.
 File lengths (MBytes):  RWF=     40 Int=      0 D2E=      0 Chk=     32 Scr=      1
 Normal termination of Gaussian 16 at Wed May  1 14:53:13 2024.
