 Entering Gaussian System, Link 0=g16
 Initial command:
 /software/gaussian/g16-c01/sse4/g16/l1.exe "/local_scratch/24657517/Gau-8433.inp" -scrdir="/local_scratch/24657517/"
 Entering Link 1 = /software/gaussian/g16-c01/sse4/g16/l1.exe PID=      8453.
  
 Copyright (c) 1988-2019, Gaussian, Inc.  All Rights Reserved.
  
 This is part of the Gaussian(R) 16 program.  It is based on
 the Gaussian(R) 09 system (copyright 2009, Gaussian, Inc.),
 the Gaussian(R) 03 system (copyright 2003, Gaussian, Inc.),
 the Gaussian(R) 98 system (copyright 1998, Gaussian, Inc.),
 the Gaussian(R) 94 system (copyright 1995, Gaussian, Inc.),
 the Gaussian 92(TM) system (copyright 1992, Gaussian, Inc.),
 the Gaussian 90(TM) system (copyright 1990, Gaussian, Inc.),
 the Gaussian 88(TM) system (copyright 1988, Gaussian, Inc.),
 the Gaussian 86(TM) system (copyright 1986, Carnegie Mellon
 University), and the Gaussian 82(TM) system (copyright 1983,
 Carnegie Mellon University). Gaussian is a federally registered
 trademark of Gaussian, Inc.
  
 This software contains proprietary and confidential information,
 including trade secrets, belonging to Gaussian, Inc.
  
 This software is provided under written license and may be
 used, copied, transmitted, or stored only in accord with that
 written license.
  
 The following legend is applicable only to US Government
 contracts under FAR:
  
                    RESTRICTED RIGHTS LEGEND
  
 Use, reproduction and disclosure by the US Government is
 subject to restrictions as set forth in subparagraphs (a)
 and (c) of the Commercial Computer Software - Restricted
 Rights clause in FAR 52.227-19.
  
 Gaussian, Inc.
 340 Quinnipiac St., Bldg. 40, Wallingford CT 06492
  
  
 ---------------------------------------------------------------
 Warning -- This program may not be used in any manner that
 competes with the business of Gaussian, Inc. or will provide
 assistance to any competitor of Gaussian, Inc.  The licensee
 of this program is prohibited from giving any competitor of
 Gaussian, Inc. access to this program.  By using this program,
 the user acknowledges that Gaussian, Inc. is engaged in the
 business of creating and licensing software in the field of
 computational chemistry and represents and warrants to the
 licensee that it is not a competitor of Gaussian, Inc. and that
 it will not use this program in any manner prohibited above.
 ---------------------------------------------------------------
  

 Cite this work as:
 Gaussian 16, Revision C.01,
 M. J. Frisch, G. W. Trucks, H. B. Schlegel, G. E. Scuseria, 
 M. A. Robb, J. R. Cheeseman, G. Scalmani, V. Barone, 
 G. A. Petersson, H. Nakatsuji, X. Li, M. Caricato, A. V. Marenich, 
 J. Bloino, B. G. Janesko, R. Gomperts, B. Mennucci, H. P. Hratchian, 
 J. V. Ortiz, A. F. Izmaylov, J. L. Sonnenberg, D. Williams-Young, 
 F. Ding, F. Lipparini, F. Egidi, J. Goings, B. Peng, A. Petrone, 
 T. Henderson, D. Ranasinghe, V. G. Zakrzewski, J. Gao, N. Rega, 
 G. Zheng, W. Liang, M. Hada, M. Ehara, K. Toyota, R. Fukuda, 
 J. Hasegawa, M. Ishida, T. Nakajima, Y. Honda, O. Kitao, H. Nakai, 
 T. Vreven, K. Throssell, J. A. Montgomery, Jr., J. E. Peralta, 
 F. Ogliaro, M. J. Bearpark, J. J. Heyd, E. N. Brothers, K. N. Kudin, 
 V. N. Staroverov, T. A. Keith, R. Kobayashi, J. Normand, 
 K. Raghavachari, A. P. Rendell, J. C. Burant, S. S. Iyengar, 
 J. Tomasi, M. Cossi, J. M. Millam, M. Klene, C. Adamo, R. Cammi, 
 J. W. Ochterski, R. L. Martin, K. Morokuma, O. Farkas, 
 J. B. Foresman, and D. J. Fox, Gaussian, Inc., Wallingford CT, 2019.
 
 ******************************************
 Gaussian 16:  ES64L-G16RevC.01  3-Jul-2019
                 1-May-2024 
 ******************************************
 %chk=geometry.chk
 %mem=9GB
 %nprocshared=12
 Will use up to   12 processors via shared memory.
 ----------------------------------------
 #P wB97XD/6-311+G* NoSymm #P Field=Y+155
 ----------------------------------------
 1/38=1,172=1/1;
 2/12=2,15=1,17=6,18=5,40=1/2;
 3/5=4,6=6,7=11,11=2,14=2,15=155,25=1,30=1,74=-58/1,2,3;
 4//1;
 5/5=2,38=5/2;
 6/7=2,8=2,9=2,10=2,28=1/1;
 99/5=1,9=1/99;
 Leave Link    1 at Wed May  1 14:49:56 2024, MaxMem=  1207959552 cpu:               3.2 elap:               3.2
 (Enter /software/gaussian/g16-c01/sse4/g16/l101.exe)
 -------
 TitleMe
 -------
 Symbolic Z-matrix:
 Charge =  1 Multiplicity = 1
 C                     0.0295    1.3397    0.0682 
 C                     1.4348    1.2867    0.0064 
 C                     2.1118    0.0511   -0.0054 
 C                     1.4451   -1.1372    0.0312 
 C                    -0.6879    0.1682    0.11 
 H                    -0.4713    2.2984    0.0781 
 H                     2.0273    2.1965   -0.0322 
 H                     1.9897   -2.0764    0.0232 
 H                    -1.7716    0.1804    0.1582 
 N                     3.5864    0.051    -0.0675 
 O                     4.1471   -1.0597   -0.0881 
 O                     4.145     1.1639   -0.0901 
 C                    -0.0236   -1.1458    0.0835 
 H                    -0.4367   -1.8725    0.7889 
 Br                   -0.5359   -1.8697   -1.7408 
 
 ITRead=  0  0  0  0  0  0  0  0  0  0  0  0  0  0  0
 MicOpt= -1 -1 -1 -1 -1 -1 -1 -1 -1 -1 -1 -1 -1 -1 -1
 NAtoms=     15 NQM=       15 NQMF=       0 NMMI=      0 NMMIF=      0
                NMic=       0 NMicF=      0.
                    Isotopes and Nuclear Properties:
 (Nuclear quadrupole moments (NQMom) in fm**2, nuclear magnetic moments (NMagM)
  in nuclear magnetons)

  Atom         1           2           3           4           5           6           7           8           9          10
 IAtWgt=          12          12          12          12          12           1           1           1           1          14
 AtmWgt=  12.0000000  12.0000000  12.0000000  12.0000000  12.0000000   1.0078250   1.0078250   1.0078250   1.0078250  14.0030740
 NucSpn=           0           0           0           0           0           1           1           1           1           2
 AtZEff=  -0.0000000  -0.0000000  -0.0000000  -0.0000000  -0.0000000  -0.0000000  -0.0000000  -0.0000000  -0.0000000  -0.0000000
 NQMom=    0.0000000   0.0000000   0.0000000   0.0000000   0.0000000   0.0000000   0.0000000   0.0000000   0.0000000   2.0440000
 NMagM=    0.0000000   0.0000000   0.0000000   0.0000000   0.0000000   2.7928460   2.7928460   2.7928460   2.7928460   0.4037610
 AtZNuc=   6.0000000   6.0000000   6.0000000   6.0000000   6.0000000   1.0000000   1.0000000   1.0000000   1.0000000   7.0000000

  Atom        11          12          13          14          15
 IAtWgt=          16          16          12           1          79
 AtmWgt=  15.9949146  15.9949146  12.0000000   1.0078250  78.9183361
 NucSpn=           0           0           0           1           3
 AtZEff=  -0.0000000  -0.0000000  -0.0000000  -0.0000000  -0.0000000
 NQMom=    0.0000000   0.0000000   0.0000000   0.0000000  31.3000000
 NMagM=    0.0000000   0.0000000   0.0000000   2.7928460   2.1063990
 AtZNuc=   8.0000000   8.0000000   6.0000000   1.0000000  35.0000000
 Leave Link  101 at Wed May  1 14:49:57 2024, MaxMem=  1207959552 cpu:               1.5 elap:               1.5
 (Enter /software/gaussian/g16-c01/sse4/g16/l202.exe)
                          Input orientation:                          
 ---------------------------------------------------------------------
 Center     Atomic      Atomic             Coordinates (Angstroms)
 Number     Number       Type             X           Y           Z
 ---------------------------------------------------------------------
      1          6           0        0.029500    1.339700    0.068200
      2          6           0        1.434800    1.286700    0.006400
      3          6           0        2.111800    0.051100   -0.005400
      4          6           0        1.445100   -1.137200    0.031200
      5          6           0       -0.687900    0.168200    0.110000
      6          1           0       -0.471300    2.298400    0.078100
      7          1           0        2.027300    2.196500   -0.032200
      8          1           0        1.989700   -2.076400    0.023200
      9          1           0       -1.771600    0.180400    0.158200
     10          7           0        3.586400    0.051000   -0.067500
     11          8           0        4.147100   -1.059700   -0.088100
     12          8           0        4.145000    1.163900   -0.090100
     13          6           0       -0.023600   -1.145800    0.083500
     14          1           0       -0.436700   -1.872500    0.788900
     15         35           0       -0.535900   -1.869700   -1.740800
 ---------------------------------------------------------------------
                    Distance matrix (angstroms):
                    1          2          3          4          5
     1  C    0.000000
     2  C    1.407656   0.000000
     3  C    2.449874   1.408963   0.000000
     4  C    2.853126   2.424049   1.363043   0.000000
     5  C    1.374344   2.401589   2.804523   2.501993   0.000000
     6  H    1.081667   2.159142   3.424870   3.934226   2.141421
     7  H    2.176095   1.086408   2.147231   3.384750   3.392128
     8  H    3.938800   3.408612   2.131193   1.085702   3.495040
     9  H    2.143837   3.395283   3.888995   3.478413   1.084840
    10  N    3.785591   2.482297   1.475907   2.450862   4.279589
    11  O    4.768247   3.587631   2.320164   2.705743   4.992415
    12  O    4.122294   2.714696   2.319353   3.549540   4.938459
    13  C    2.486114   2.837240   2.449573   1.469656   1.472614
    14  H    3.324903   3.754379   3.290289   2.157764   2.165286
    15  Br   3.727252   4.110867   3.702891   2.756973   2.757100
                    6          7          8          9         10
     6  H    0.000000
     7  H    2.503108   0.000000
     8  H    5.019802   4.273425   0.000000
     9  H    2.486588   4.304945   4.388479   0.000000
    10  N    4.640790   2.652397   2.661486   5.364313   0.000000
    11  O    5.712624   3.885809   2.387560   6.052233   1.244373
    12  O    4.756638   2.356750   3.893289   6.002923   1.245428
    13  C    3.473180   3.923079   2.218790   2.195425   3.806210
    14  H    4.231175   4.827242   2.552506   2.528663   4.540772
    15  Br   4.548146   5.101303   3.087568   3.055498   4.845862
                   11         12         13         14         15
    11  O    0.000000
    12  O    2.223602   0.000000
    13  C    4.175117   4.768865   0.000000
    14  H    4.737193   5.566358   1.093770   0.000000
    15  Br   5.031700   5.817075   2.028436   2.531646   0.000000
 Symmetry turned off by external request.
 Stoichiometry    C6H5BrNO2(1+)
 Framework group  C1[X(C6H5BrNO2)]
 Deg. of freedom    39
 Full point group                 C1      NOp   1
 Rotational constants (GHZ):           1.8252210           0.5518633           0.4576002
 Leave Link  202 at Wed May  1 14:49:58 2024, MaxMem=  1207959552 cpu:               1.1 elap:               1.2
 (Enter /software/gaussian/g16-c01/sse4/g16/l301.exe)
 Standard basis: 6-311+G(d) (5D, 7F)
 Ernie: Thresh=  0.10000D-02 Tol=  0.10000D-05 Strict=F.
 The following finite field(s) will be applied:
 An electric field of              0.0000  0.0155  0.0000
   261 basis functions,   443 primitive gaussians,   273 cartesian basis functions
    49 alpha electrons       49 beta electrons
       nuclear repulsion energy       739.2122215416 Hartrees.
 IExCor= 4639 DFT=T Ex+Corr=wB97XD ExCW=0 ScaHFX=  1.000000
 ScaDFX=  1.000000  1.000000  1.000000  1.000000 ScalE2=  1.000000  1.000000
 IRadAn=      5 IRanWt=     -1 IRanGd=            0 ICorTp=0 IEmpDi=121
 HFx  wShort=  0.000000 wLong=  0.200000 cFull=  0.222036 cShort=  0.000000 cLong=  0.777964
 DFx  wShort=  0.000000 wLong=  0.200000 cFull=  0.000000 cShort=  0.000000 cLong=  1.000000
 NAtoms=   15 NActive=   15 NUniq=   15 SFac= 1.00D+00 NAtFMM=   60 NAOKFM=F Big=F
 Integral buffers will be    131072 words long.
 Raffenetti 2 integral format.
 Two-electron integral symmetry is turned off.
 R6Disp:  Grimme-D2 Dispersion energy=       -0.0077368520 Hartrees.
 Nuclear repulsion after empirical dispersion term =      739.2044846896 Hartrees.
 Leave Link  301 at Wed May  1 14:50:00 2024, MaxMem=  1207959552 cpu:               1.0 elap:               1.0
 (Enter /software/gaussian/g16-c01/sse4/g16/l302.exe)
 NPDir=0 NMtPBC=     1 NCelOv=     1 NCel=       1 NClECP=     1 NCelD=      1
         NCelK=      1 NCelE2=     1 NClLst=     1 CellRange=     0.0.
 One-electron integrals computed using PRISM.
 NBasis=   261 RedAO= T EigKep=  2.35D-06  NBF=   261
 NBsUse=   261 1.00D-06 EigRej= -1.00D+00 NBFU=   261
 Precomputing XC quadrature grid using
 IXCGrd= 4 IRadAn=           5 IRanWt=          -1 IRanGd=           0 AccXCQ= 0.00D+00.
 Generated NRdTot=       0 NPtTot=           0 NUsed=           0 NTot=          32
 NSgBfM=   273   273   273   273   273 MxSgAt=    15 MxSgA2=    15.
 Leave Link  302 at Wed May  1 14:50:22 2024, MaxMem=  1207959552 cpu:              22.1 elap:              22.1
 (Enter /software/gaussian/g16-c01/sse4/g16/l303.exe)
 DipDrv:  MaxL=1.
 The nuclear repulsion energy is now       737.4427541563 hartrees.
 Leave Link  303 at Wed May  1 14:50:25 2024, MaxMem=  1207959552 cpu:               3.4 elap:               3.4
 (Enter /software/gaussian/g16-c01/sse4/g16/l401.exe)
 ExpMin= 3.50D-02 ExpMax= 4.40D+05 ExpMxC= 1.51D+04 IAcc=3 IRadAn=         5 AccDes= 0.00D+00
 Harris functional with IExCor= 4639 and IRadAn=       5 diagonalized for initial guess.
 HarFok:  IExCor= 4639 AccDes= 0.00D+00 IRadAn=         5 IDoV= 1 UseB2=F ITyADJ=14
 ICtDFT=  3500011 ScaDFX=  1.000000  1.000000  1.000000  1.000000
 FoFCou: FMM=F IPFlag=           0 FMFlag=      100000 FMFlg1=           0
         NFxFlg=           0 DoJE=T BraDBF=F KetDBF=T FulRan=T
         wScrn=  0.000000 ICntrl=       500 IOpCl=  0 I1Cent=   200000004 NGrid=           0
         NMat0=    1 NMatS0=      1 NMatT0=    0 NMatD0=    1 NMtDS0=    0 NMtDT0=    0
 Symmetry not used in FoFCou.
 Harris En= -2970.63837634240    
 JPrj=0 DoOrth=F DoCkMO=F.
 Leave Link  401 at Wed May  1 14:50:56 2024, MaxMem=  1207959552 cpu:              30.7 elap:              30.7
 (Enter /software/gaussian/g16-c01/sse4/g16/l502.exe)
 Two-electron integral symmetry not used.
 Closed shell SCF:
 Using DIIS extrapolation, IDIIS=  1040.
 NGot=  1207959552 LenX=  1207804877 LenY=  1207729907
 Requested convergence on RMS density matrix=1.00D-08 within 128 cycles.
 Requested convergence on MAX density matrix=1.00D-06.
 Requested convergence on             energy=1.00D-06.
 No special actions if energy rises.
 Fock matrices will be formed incrementally for  20 cycles.

 Cycle   1  Pass 1  IDiag  1:
 FoFJK:  IHMeth= 1 ICntrl=       0 DoSepK=T KAlg= 0 I1Cent=           0 FoldK=F
 IRaf=         1 NMat=       1 IRICut=       1 DoRegI=T DoRafI=F ISym2E= 0 IDoP0=0 IntGTp=1.
 FoFCou: FMM=F IPFlag=           0 FMFlag=      100000 FMFlg1=           0
         NFxFlg=           0 DoJE=T BraDBF=F KetDBF=F FulRan=T
         wScrn=  0.000000 ICntrl=       500 IOpCl=  0 I1Cent=           0 NGrid=           0
         NMat0=    1 NMatS0=      1 NMatT0=    0 NMatD0=    1 NMtDS0=    0 NMtDT0=    0
 Symmetry not used in FoFCou.
 E= -3009.63961508940    
 DIIS: error= 3.20D-01 at cycle   1 NSaved=   1.
 NSaved= 1 IEnMin= 1 EnMin= -3009.63961508940     IErMin= 1 ErrMin= 3.20D-01
 ErrMax= 3.20D-01  0.00D+00 EMaxC= 1.00D-01 BMatC= 1.21D+01 BMatP= 1.21D+01
 IDIUse=3 WtCom= 0.00D+00 WtEn= 1.00D+00
 Coeff-Com:  0.100D+01
 Coeff-En:   0.100D+01
 Coeff:      0.100D+01
 Gap=     0.402 Goal=   None    Shift=    0.000
 GapD=    0.402 DampG=2.000 DampE=0.250 DampFc=0.5000 IDamp=-1.
 Damping current iteration by 5.00D-01
 RMSDP=1.20D-01 MaxDP=1.25D+01              OVMax= 3.45D-01

 Cycle   2  Pass 1  IDiag  1:
 RMSU=  1.50D-02    CP:  6.59D-01
 E= -3010.07694824952     Delta-E=       -0.437333160124 Rises=F Damp=T
 DIIS: error= 1.43D-01 at cycle   2 NSaved=   2.
 NSaved= 2 IEnMin= 2 EnMin= -3010.07694824952     IErMin= 2 ErrMin= 1.43D-01
 ErrMax= 1.43D-01  0.00D+00 EMaxC= 1.00D-01 BMatC= 1.77D+00 BMatP= 1.21D+01
 IDIUse=3 WtCom= 0.00D+00 WtEn= 1.00D+00
 Coeff-Com: -0.397D+00 0.140D+01
 Coeff-En:   0.000D+00 0.100D+01
 Coeff:      0.000D+00 0.100D+01
 Gap=     0.365 Goal=   None    Shift=    0.000
 RMSDP=5.74D-02 MaxDP=5.67D+00 DE=-4.37D-01 OVMax= 2.23D-01

 Cycle   3  Pass 1  IDiag  1:
 RMSU=  1.12D-02    CP:  3.33D-01  1.66D+00
 E= -3010.47340346170     Delta-E=       -0.396455212179 Rises=F Damp=F
 DIIS: error= 3.31D-02 at cycle   3 NSaved=   3.
 NSaved= 3 IEnMin= 3 EnMin= -3010.47340346170     IErMin= 3 ErrMin= 3.31D-02
 ErrMax= 3.31D-02  0.00D+00 EMaxC= 1.00D-01 BMatC= 1.26D-01 BMatP= 1.77D+00
 IDIUse=3 WtCom= 6.69D-01 WtEn= 3.31D-01
 Coeff-Com: -0.452D-01 0.221D+00 0.824D+00
 Coeff-En:   0.000D+00 0.000D+00 0.100D+01
 Coeff:     -0.302D-01 0.148D+00 0.883D+00
 Gap=     0.254 Goal=   None    Shift=    0.000
 RMSDP=7.73D-03 MaxDP=4.87D-01 DE=-3.96D-01 OVMax= 2.75D-01

 Cycle   4  Pass 1  IDiag  1:
 RMSU=  6.52D-03    CP:  3.35D-01  1.86D+00  7.41D-01
 E= -3010.34873948577     Delta-E=        0.124663975926 Rises=F Damp=F
 DIIS: error= 6.23D-02 at cycle   4 NSaved=   4.
 NSaved= 4 IEnMin= 3 EnMin= -3010.47340346170     IErMin= 3 ErrMin= 3.31D-02
 ErrMax= 6.23D-02  0.00D+00 EMaxC= 1.00D-01 BMatC= 2.90D-01 BMatP= 1.26D-01
 IDIUse=2 WtCom= 0.00D+00 WtEn= 1.00D+00
 Coeff-En:   0.000D+00 0.000D+00 0.678D+00 0.322D+00
 Coeff:      0.000D+00 0.000D+00 0.678D+00 0.322D+00
 Gap=     0.258 Goal=   None    Shift=    0.000
 RMSDP=4.81D-03 MaxDP=2.99D-01 DE= 1.25D-01 OVMax= 1.63D-01

 Cycle   5  Pass 1  IDiag  1:
 RMSU=  1.78D-03    CP:  3.22D-01  1.85D+00  9.84D-01  5.87D-01
 E= -3010.54626489370     Delta-E=       -0.197525407928 Rises=F Damp=F
 DIIS: error= 9.39D-03 at cycle   5 NSaved=   5.
 NSaved= 5 IEnMin= 5 EnMin= -3010.54626489370     IErMin= 5 ErrMin= 9.39D-03
 ErrMax= 9.39D-03  0.00D+00 EMaxC= 1.00D-01 BMatC= 9.30D-03 BMatP= 1.26D-01
 IDIUse=3 WtCom= 9.06D-01 WtEn= 9.39D-02
 Coeff-Com:  0.247D-02 0.636D-03 0.228D+00 0.150D-01 0.754D+00
 Coeff-En:   0.000D+00 0.000D+00 0.441D-01 0.000D+00 0.956D+00
 Coeff:      0.224D-02 0.576D-03 0.211D+00 0.136D-01 0.773D+00
 Gap=     0.242 Goal=   None    Shift=    0.000
 RMSDP=1.80D-03 MaxDP=1.23D-01 DE=-1.98D-01 OVMax= 3.00D-02

 Cycle   6  Pass 1  IDiag  1:
 RMSU=  1.01D-03    CP:  3.15D-01  1.83D+00  1.05D+00  5.10D-01  9.87D-01
 E= -3010.55222008496     Delta-E=       -0.005955191257 Rises=F Damp=F
 DIIS: error= 1.61D-03 at cycle   6 NSaved=   6.
 NSaved= 6 IEnMin= 6 EnMin= -3010.55222008496     IErMin= 6 ErrMin= 1.61D-03
 ErrMax= 1.61D-03  0.00D+00 EMaxC= 1.00D-01 BMatC= 3.58D-04 BMatP= 9.30D-03
 IDIUse=3 WtCom= 9.84D-01 WtEn= 1.61D-02
 Coeff-Com: -0.163D-02 0.340D-02 0.231D-01-0.328D-01 0.347D+00 0.661D+00
 Coeff-En:   0.000D+00 0.000D+00 0.000D+00 0.000D+00 0.000D+00 0.100D+01
 Coeff:     -0.160D-02 0.335D-02 0.227D-01-0.323D-01 0.341D+00 0.666D+00
 Gap=     0.242 Goal=   None    Shift=    0.000
 RMSDP=4.45D-04 MaxDP=2.32D-02 DE=-5.96D-03 OVMax= 4.49D-03

 Cycle   7  Pass 1  IDiag  1:
 RMSU=  2.19D-04    CP:  3.14D-01  1.84D+00  1.06D+00  5.27D-01  1.10D+00
                    CP:  1.15D+00
 E= -3010.55250156214     Delta-E=       -0.000281477181 Rises=F Damp=F
 DIIS: error= 4.66D-04 at cycle   7 NSaved=   7.
 NSaved= 7 IEnMin= 7 EnMin= -3010.55250156214     IErMin= 7 ErrMin= 4.66D-04
 ErrMax= 4.66D-04  0.00D+00 EMaxC= 1.00D-01 BMatC= 2.22D-05 BMatP= 3.58D-04
 IDIUse=3 WtCom= 9.95D-01 WtEn= 4.66D-03
 Coeff-Com: -0.741D-03 0.106D-02-0.924D-02-0.137D-01 0.698D-01 0.286D+00
 Coeff-Com:  0.667D+00
 Coeff-En:   0.000D+00 0.000D+00 0.000D+00 0.000D+00 0.000D+00 0.000D+00
 Coeff-En:   0.100D+01
 Coeff:     -0.738D-03 0.106D-02-0.920D-02-0.136D-01 0.695D-01 0.284D+00
 Coeff:      0.669D+00
 Gap=     0.243 Goal=   None    Shift=    0.000
 RMSDP=2.34D-04 MaxDP=1.57D-02 DE=-2.81D-04 OVMax= 2.73D-03

 Cycle   8  Pass 1  IDiag  1:
 RMSU=  8.72D-05    CP:  3.13D-01  1.85D+00  1.06D+00  5.34D-01  1.15D+00
                    CP:  1.19D+00  9.16D-01
 E= -3010.55253628697     Delta-E=       -0.000034724832 Rises=F Damp=F
 DIIS: error= 1.32D-04 at cycle   8 NSaved=   8.
 NSaved= 8 IEnMin= 8 EnMin= -3010.55253628697     IErMin= 8 ErrMin= 1.32D-04
 ErrMax= 1.32D-04  0.00D+00 EMaxC= 1.00D-01 BMatC= 3.79D-06 BMatP= 2.22D-05
 IDIUse=3 WtCom= 9.99D-01 WtEn= 1.32D-03
 Coeff-Com:  0.391D-03-0.104D-02-0.990D-02 0.355D-02-0.691D-01-0.810D-01
 Coeff-Com:  0.230D+00 0.927D+00
 Coeff-En:   0.000D+00 0.000D+00 0.000D+00 0.000D+00 0.000D+00 0.000D+00
 Coeff-En:   0.000D+00 0.100D+01
 Coeff:      0.390D-03-0.104D-02-0.989D-02 0.354D-02-0.690D-01-0.809D-01
 Coeff:      0.229D+00 0.928D+00
 Gap=     0.243 Goal=   None    Shift=    0.000
 RMSDP=1.49D-04 MaxDP=9.87D-03 DE=-3.47D-05 OVMax= 2.55D-03

 Cycle   9  Pass 1  IDiag  1:
 RMSU=  4.80D-05    CP:  3.13D-01  1.85D+00  1.07D+00  5.36D-01  1.17D+00
                    CP:  1.30D+00  1.13D+00  1.17D+00
 E= -3010.55255055002     Delta-E=       -0.000014263047 Rises=F Damp=F
 DIIS: error= 4.82D-05 at cycle   9 NSaved=   9.
 NSaved= 9 IEnMin= 9 EnMin= -3010.55255055002     IErMin= 9 ErrMin= 4.82D-05
 ErrMax= 4.82D-05  0.00D+00 EMaxC= 1.00D-01 BMatC= 5.28D-07 BMatP= 3.79D-06
 IDIUse=1 WtCom= 1.00D+00 WtEn= 0.00D+00
 Coeff-Com:  0.157D-03-0.318D-03-0.148D-02 0.340D-02-0.297D-01-0.600D-01
 Coeff-Com: -0.312D-01 0.248D+00 0.871D+00
 Coeff:      0.157D-03-0.318D-03-0.148D-02 0.340D-02-0.297D-01-0.600D-01
 Coeff:     -0.312D-01 0.248D+00 0.871D+00
 Gap=     0.243 Goal=   None    Shift=    0.000
 RMSDP=5.02D-05 MaxDP=4.27D-03 DE=-1.43D-05 OVMax= 1.30D-03

 Cycle  10  Pass 1  IDiag  1:
 RMSU=  2.01D-05    CP:  3.13D-01  1.85D+00  1.07D+00  5.37D-01  1.16D+00
                    CP:  1.32D+00  1.19D+00  1.35D+00  1.47D+00
 E= -3010.55255339851     Delta-E=       -0.000002848497 Rises=F Damp=F
 DIIS: error= 1.67D-05 at cycle  10 NSaved=  10.
 NSaved=10 IEnMin=10 EnMin= -3010.55255339851     IErMin=10 ErrMin= 1.67D-05
 ErrMax= 1.67D-05  0.00D+00 EMaxC= 1.00D-01 BMatC= 1.10D-07 BMatP= 5.28D-07
 IDIUse=1 WtCom= 1.00D+00 WtEn= 0.00D+00
 Coeff-Com: -0.988D-04 0.256D-03 0.193D-02-0.287D-03 0.121D-01 0.121D-01
 Coeff-Com: -0.651D-01-0.184D+00 0.135D+00 0.109D+01
 Coeff:     -0.988D-04 0.256D-03 0.193D-02-0.287D-03 0.121D-01 0.121D-01
 Coeff:     -0.651D-01-0.184D+00 0.135D+00 0.109D+01
 Gap=     0.243 Goal=   None    Shift=    0.000
 RMSDP=4.69D-05 MaxDP=3.04D-03 DE=-2.85D-06 OVMax= 9.93D-04

 Cycle  11  Pass 1  IDiag  1:
 RMSU=  7.75D-06    CP:  3.13D-01  1.85D+00  1.07D+00  5.37D-01  1.16D+00
                    CP:  1.33D+00  1.22D+00  1.46D+00  1.82D+00  1.53D+00
 E= -3010.55255436299     Delta-E=       -0.000000964479 Rises=F Damp=F
 DIIS: error= 7.87D-06 at cycle  11 NSaved=  11.
 NSaved=11 IEnMin=11 EnMin= -3010.55255436299     IErMin=11 ErrMin= 7.87D-06
 ErrMax= 7.87D-06  0.00D+00 EMaxC= 1.00D-01 BMatC= 2.51D-08 BMatP= 1.10D-07
 IDIUse=1 WtCom= 1.00D+00 WtEn= 0.00D+00
 Coeff-Com: -0.955D-05 0.305D-04 0.735D-03-0.666D-03 0.717D-02 0.116D-01
 Coeff-Com: -0.280D-02-0.707D-01-0.180D+00 0.179D+00 0.106D+01
 Coeff:     -0.955D-05 0.305D-04 0.735D-03-0.666D-03 0.717D-02 0.116D-01
 Coeff:     -0.280D-02-0.707D-01-0.180D+00 0.179D+00 0.106D+01
 Gap=     0.243 Goal=   None    Shift=    0.000
 RMSDP=2.93D-05 MaxDP=2.06D-03 DE=-9.64D-07 OVMax= 4.99D-04

 Cycle  12  Pass 1  IDiag  1:
 RMSU=  3.31D-06    CP:  3.14D-01  1.85D+00  1.07D+00  5.37D-01  1.15D+00
                    CP:  1.33D+00  1.23D+00  1.50D+00  2.04D+00  2.01D+00
                    CP:  1.42D+00
 E= -3010.55255455796     Delta-E=       -0.000000194963 Rises=F Damp=F
 DIIS: error= 3.49D-06 at cycle  12 NSaved=  12.
 NSaved=12 IEnMin=12 EnMin= -3010.55255455796     IErMin=12 ErrMin= 3.49D-06
 ErrMax= 3.49D-06  0.00D+00 EMaxC= 1.00D-01 BMatC= 5.07D-09 BMatP= 2.51D-08
 IDIUse=1 WtCom= 1.00D+00 WtEn= 0.00D+00
 Coeff-Com:  0.187D-04-0.420D-04-0.589D-04-0.131D-03-0.186D-03 0.569D-03
 Coeff-Com:  0.109D-01 0.147D-01-0.725D-01-0.116D+00 0.292D+00 0.870D+00
 Coeff:      0.187D-04-0.420D-04-0.589D-04-0.131D-03-0.186D-03 0.569D-03
 Coeff:      0.109D-01 0.147D-01-0.725D-01-0.116D+00 0.292D+00 0.870D+00
 Gap=     0.243 Goal=   None    Shift=    0.000
 RMSDP=4.59D-06 MaxDP=2.10D-04 DE=-1.95D-07 OVMax= 1.59D-04

 Cycle  13  Pass 1  IDiag  1:
 RMSU=  1.58D-06    CP:  3.14D-01  1.85D+00  1.07D+00  5.37D-01  1.15D+00
                    CP:  1.33D+00  1.23D+00  1.50D+00  2.08D+00  2.11D+00
                    CP:  1.61D+00  1.27D+00
 E= -3010.55255458694     Delta-E=       -0.000000028985 Rises=F Damp=F
 DIIS: error= 1.90D-06 at cycle  13 NSaved=  13.
 NSaved=13 IEnMin=13 EnMin= -3010.55255458694     IErMin=13 ErrMin= 1.90D-06
 ErrMax= 1.90D-06  0.00D+00 EMaxC= 1.00D-01 BMatC= 1.24D-09 BMatP= 5.07D-09
 IDIUse=1 WtCom= 1.00D+00 WtEn= 0.00D+00
 Coeff-Com:  0.400D-05-0.128D-04-0.212D-03 0.854D-04-0.161D-02-0.216D-02
 Coeff-Com:  0.403D-02 0.200D-01 0.183D-01-0.854D-01-0.200D+00 0.297D+00
 Coeff-Com:  0.950D+00
 Coeff:      0.400D-05-0.128D-04-0.212D-03 0.854D-04-0.161D-02-0.216D-02
 Coeff:      0.403D-02 0.200D-01 0.183D-01-0.854D-01-0.200D+00 0.297D+00
 Coeff:      0.950D+00
 Gap=     0.243 Goal=   None    Shift=    0.000
 RMSDP=3.66D-06 MaxDP=2.93D-04 DE=-2.90D-08 OVMax= 1.12D-04

 Cycle  14  Pass 1  IDiag  1:
 RMSU=  9.95D-07    CP:  3.14D-01  1.85D+00  1.07D+00  5.37D-01  1.15D+00
                    CP:  1.33D+00  1.23D+00  1.52D+00  2.12D+00  2.21D+00
                    CP:  1.74D+00  1.56D+00  1.29D+00
 E= -3010.55255459595     Delta-E=       -0.000000009014 Rises=F Damp=F
 DIIS: error= 6.28D-07 at cycle  14 NSaved=  14.
 NSaved=14 IEnMin=14 EnMin= -3010.55255459595     IErMin=14 ErrMin= 6.28D-07
 ErrMax= 6.28D-07  0.00D+00 EMaxC= 1.00D-01 BMatC= 1.78D-10 BMatP= 1.24D-09
 IDIUse=1 WtCom= 1.00D+00 WtEn= 0.00D+00
 Coeff-Com: -0.365D-05 0.644D-05-0.509D-04 0.308D-04-0.251D-03-0.334D-03
 Coeff-Com: -0.751D-03 0.108D-02 0.155D-01 0.154D-02-0.847D-01-0.773D-01
 Coeff-Com:  0.221D+00 0.925D+00
 Coeff:     -0.365D-05 0.644D-05-0.509D-04 0.308D-04-0.251D-03-0.334D-03
 Coeff:     -0.751D-03 0.108D-02 0.155D-01 0.154D-02-0.847D-01-0.773D-01
 Coeff:      0.221D+00 0.925D+00
 Gap=     0.243 Goal=   None    Shift=    0.000
 RMSDP=1.07D-06 MaxDP=6.00D-05 DE=-9.01D-09 OVMax= 3.38D-05

 Cycle  15  Pass 1  IDiag  1:
 RMSU=  2.87D-07    CP:  3.14D-01  1.85D+00  1.07D+00  5.37D-01  1.15D+00
                    CP:  1.33D+00  1.23D+00  1.52D+00  2.12D+00  2.23D+00
                    CP:  1.75D+00  1.65D+00  1.49D+00  1.18D+00
 E= -3010.55255459693     Delta-E=       -0.000000000975 Rises=F Damp=F
 DIIS: error= 2.62D-07 at cycle  15 NSaved=  15.
 NSaved=15 IEnMin=15 EnMin= -3010.55255459693     IErMin=15 ErrMin= 2.62D-07
 ErrMax= 2.62D-07  0.00D+00 EMaxC= 1.00D-01 BMatC= 3.82D-11 BMatP= 1.78D-10
 IDIUse=1 WtCom= 1.00D+00 WtEn= 0.00D+00
 Coeff-Com: -0.142D-05 0.328D-05 0.122D-04 0.599D-06 0.137D-03 0.162D-03
 Coeff-Com: -0.920D-03-0.263D-02 0.280D-02 0.144D-01 0.562D-02-0.886D-01
 Coeff-Com: -0.863D-01 0.346D+00 0.809D+00
 Coeff:     -0.142D-05 0.328D-05 0.122D-04 0.599D-06 0.137D-03 0.162D-03
 Coeff:     -0.920D-03-0.263D-02 0.280D-02 0.144D-01 0.562D-02-0.886D-01
 Coeff:     -0.863D-01 0.346D+00 0.809D+00
 Gap=     0.243 Goal=   None    Shift=    0.000
 RMSDP=4.51D-07 MaxDP=3.17D-05 DE=-9.75D-10 OVMax= 1.43D-05

 Cycle  16  Pass 1  IDiag  1:
 RMSU=  7.87D-08    CP:  3.14D-01  1.85D+00  1.07D+00  5.37D-01  1.15D+00
                    CP:  1.33D+00  1.23D+00  1.52D+00  2.13D+00  2.24D+00
                    CP:  1.76D+00  1.68D+00  1.55D+00  1.33D+00  1.29D+00
 E= -3010.55255459710     Delta-E=       -0.000000000165 Rises=F Damp=F
 DIIS: error= 9.61D-08 at cycle  16 NSaved=  16.
 NSaved=16 IEnMin=16 EnMin= -3010.55255459710     IErMin=16 ErrMin= 9.61D-08
 ErrMax= 9.61D-08  0.00D+00 EMaxC= 1.00D-01 BMatC= 4.75D-12 BMatP= 3.82D-11
 IDIUse=1 WtCom= 1.00D+00 WtEn= 0.00D+00
 Coeff-Com:  0.287D-06-0.326D-06 0.115D-04-0.543D-05 0.642D-04 0.799D-04
 Coeff-Com: -0.703D-04-0.623D-03-0.224D-02 0.155D-02 0.138D-01-0.308D-02
 Coeff-Com: -0.411D-01-0.912D-01 0.115D+00 0.101D+01
 Coeff:      0.287D-06-0.326D-06 0.115D-04-0.543D-05 0.642D-04 0.799D-04
 Coeff:     -0.703D-04-0.623D-03-0.224D-02 0.155D-02 0.138D-01-0.308D-02
 Coeff:     -0.411D-01-0.912D-01 0.115D+00 0.101D+01
 Gap=     0.243 Goal=   None    Shift=    0.000
 RMSDP=1.85D-07 MaxDP=1.53D-05 DE=-1.65D-10 OVMax= 7.54D-06

 Cycle  17  Pass 1  IDiag  1:
 RMSU=  5.73D-08    CP:  3.14D-01  1.85D+00  1.07D+00  5.37D-01  1.15D+00
                    CP:  1.33D+00  1.23D+00  1.52D+00  2.13D+00  2.24D+00
                    CP:  1.76D+00  1.69D+00  1.56D+00  1.39D+00  1.40D+00
                    CP:  1.22D+00
 E= -3010.55255459712     Delta-E=       -0.000000000022 Rises=F Damp=F
 DIIS: error= 5.65D-08 at cycle  17 NSaved=  17.
 NSaved=17 IEnMin=17 EnMin= -3010.55255459712     IErMin=17 ErrMin= 5.65D-08
 ErrMax= 5.65D-08  0.00D+00 EMaxC= 1.00D-01 BMatC= 1.29D-12 BMatP= 4.75D-12
 IDIUse=1 WtCom= 1.00D+00 WtEn= 0.00D+00
 Coeff-Com:  0.334D-06-0.652D-06 0.168D-05-0.139D-05-0.543D-05-0.444D-05
 Coeff-Com:  0.140D-03 0.358D-03-0.936D-03-0.180D-02 0.262D-02 0.141D-01
 Coeff-Com:  0.268D-02-0.889D-01-0.100D+00 0.319D+00 0.853D+00
 Coeff:      0.334D-06-0.652D-06 0.168D-05-0.139D-05-0.543D-05-0.444D-05
 Coeff:      0.140D-03 0.358D-03-0.936D-03-0.180D-02 0.262D-02 0.141D-01
 Coeff:      0.268D-02-0.889D-01-0.100D+00 0.319D+00 0.853D+00
 Gap=     0.243 Goal=   None    Shift=    0.000
 RMSDP=5.72D-08 MaxDP=2.29D-06 DE=-2.23D-11 OVMax= 2.48D-06

 Cycle  18  Pass 1  IDiag  1:
 RMSU=  2.44D-08    CP:  3.14D-01  1.85D+00  1.07D+00  5.37D-01  1.15D+00
                    CP:  1.33D+00  1.23D+00  1.52D+00  2.13D+00  2.24D+00
                    CP:  1.76D+00  1.69D+00  1.56D+00  1.41D+00  1.46D+00
                    CP:  1.37D+00  1.35D+00
 E= -3010.55255459709     Delta-E=        0.000000000025 Rises=F Damp=F
 DIIS: error= 2.67D-08 at cycle  18 NSaved=  18.
 NSaved=18 IEnMin=17 EnMin= -3010.55255459712     IErMin=18 ErrMin= 2.67D-08
 ErrMax= 2.67D-08  0.00D+00 EMaxC= 1.00D-01 BMatC= 3.52D-13 BMatP= 1.29D-12
 IDIUse=1 WtCom= 1.00D+00 WtEn= 0.00D+00
 Coeff-Com:  0.177D-07-0.105D-06-0.309D-05 0.153D-05-0.228D-04-0.310D-04
 Coeff-Com:  0.444D-04 0.278D-03 0.413D-03-0.104D-02-0.386D-02 0.637D-02
 Coeff-Com:  0.130D-01 0.188D-02-0.582D-01-0.237D+00 0.225D+00 0.105D+01
 Coeff:      0.177D-07-0.105D-06-0.309D-05 0.153D-05-0.228D-04-0.310D-04
 Coeff:      0.444D-04 0.278D-03 0.413D-03-0.104D-02-0.386D-02 0.637D-02
 Coeff:      0.130D-01 0.188D-02-0.582D-01-0.237D+00 0.225D+00 0.105D+01
 Gap=     0.243 Goal=   None    Shift=    0.000
 RMSDP=5.94D-08 MaxDP=3.59D-06 DE= 2.46D-11 OVMax= 2.06D-06

 Cycle  19  Pass 1  IDiag  1:
 RMSU=  1.09D-08    CP:  3.14D-01  1.85D+00  1.07D+00  5.37D-01  1.15D+00
                    CP:  1.33D+00  1.23D+00  1.52D+00  2.13D+00  2.24D+00
                    CP:  1.76D+00  1.70D+00  1.56D+00  1.42D+00  1.47D+00
                    CP:  1.41D+00  1.78D+00  1.46D+00
 E= -3010.55255459712     Delta-E=       -0.000000000022 Rises=F Damp=F
 DIIS: error= 9.45D-09 at cycle  19 NSaved=  19.
 NSaved=19 IEnMin=17 EnMin= -3010.55255459712     IErMin=19 ErrMin= 9.45D-09
 ErrMax= 9.45D-09  0.00D+00 EMaxC= 1.00D-01 BMatC= 5.31D-14 BMatP= 3.52D-13
 IDIUse=1 WtCom= 1.00D+00 WtEn= 0.00D+00
 Coeff-Com: -0.794D-07 0.148D-06-0.652D-06 0.356D-06-0.583D-07-0.200D-05
 Coeff-Com: -0.273D-04-0.412D-04 0.258D-03 0.291D-03-0.110D-02-0.147D-02
 Coeff-Com: -0.129D-02 0.167D-01 0.238D-01-0.774D-01-0.141D+00 0.917D-02
 Coeff-Com:  0.117D+01
 Coeff:     -0.794D-07 0.148D-06-0.652D-06 0.356D-06-0.583D-07-0.200D-05
 Coeff:     -0.273D-04-0.412D-04 0.258D-03 0.291D-03-0.110D-02-0.147D-02
 Coeff:     -0.129D-02 0.167D-01 0.238D-01-0.774D-01-0.141D+00 0.917D-02
 Coeff:      0.117D+01
 Gap=     0.243 Goal=   None    Shift=    0.000
 RMSDP=2.10D-08 MaxDP=1.41D-06 DE=-2.23D-11 OVMax= 8.63D-07

 Cycle  20  Pass 1  IDiag  1:
 RMSU=  4.83D-09    CP:  3.14D-01  1.85D+00  1.07D+00  5.37D-01  1.15D+00
                    CP:  1.33D+00  1.23D+00  1.52D+00  2.13D+00  2.24D+00
                    CP:  1.76D+00  1.70D+00  1.55D+00  1.43D+00  1.46D+00
                    CP:  1.41D+00  1.97D+00  1.64D+00  1.47D+00
 E= -3010.55255459714     Delta-E=       -0.000000000020 Rises=F Damp=F
 DIIS: error= 4.35D-09 at cycle  20 NSaved=  20.
 NSaved=20 IEnMin=20 EnMin= -3010.55255459714     IErMin=20 ErrMin= 4.35D-09
 ErrMax= 4.35D-09  0.00D+00 EMaxC= 1.00D-01 BMatC= 9.40D-15 BMatP= 5.31D-14
 IDIUse=1 WtCom= 1.00D+00 WtEn= 0.00D+00
 Coeff-Com: -0.789D-08 0.246D-07 0.305D-06-0.111D-06 0.214D-05 0.793D-06
 Coeff-Com: -0.902D-05-0.270D-04-0.102D-04 0.155D-03 0.230D-03-0.591D-03
 Coeff-Com: -0.232D-02 0.202D-02 0.138D-01 0.182D-01-0.501D-01-0.178D+00
 Coeff-Com:  0.192D+00 0.101D+01
 Coeff:     -0.789D-08 0.246D-07 0.305D-06-0.111D-06 0.214D-05 0.793D-06
 Coeff:     -0.902D-05-0.270D-04-0.102D-04 0.155D-03 0.230D-03-0.591D-03
 Coeff:     -0.232D-02 0.202D-02 0.138D-01 0.182D-01-0.501D-01-0.178D+00
 Coeff:      0.192D+00 0.101D+01
 Gap=     0.243 Goal=   None    Shift=    0.000
 RMSDP=6.19D-09 MaxDP=2.87D-07 DE=-2.00D-11 OVMax= 2.70D-07

 SCF Done:  E(RwB97XD) =  -3010.55255460     A.U. after   20 cycles
            NFock= 20  Conv=0.62D-08     -V/T= 2.0016
 KE= 3.005820239218D+03 PE=-8.629670539533D+03 EE= 1.875854991561D+03
 Leave Link  502 at Wed May  1 15:10:24 2024, MaxMem=  1207959552 cpu:            1167.7 elap:            1167.8
 (Enter /software/gaussian/g16-c01/sse4/g16/l601.exe)
 Copying SCF densities to generalized density rwf, IOpCl= 0 IROHF=0.

 **********************************************************************

            Population analysis using the SCF Density.

 **********************************************************************

 Alpha  occ. eigenvalues -- -483.28862 -62.83852 -56.63575 -56.62963 -56.62959
 Alpha  occ. eigenvalues --  -19.45469 -19.45291 -14.84841 -10.57473 -10.56372
 Alpha  occ. eigenvalues --  -10.56353 -10.56080 -10.55766 -10.53416  -8.99632
 Alpha  occ. eigenvalues --   -6.82389  -6.80393  -6.80372  -2.92274  -2.91747
 Alpha  occ. eigenvalues --   -2.91729  -2.90133  -2.90133  -1.49145  -1.32133
 Alpha  occ. eigenvalues --   -1.21812  -1.12868  -1.11243  -1.02444  -1.00487
 Alpha  occ. eigenvalues --   -0.94570  -0.90292  -0.84936  -0.80342  -0.79942
 Alpha  occ. eigenvalues --   -0.79426  -0.77608  -0.75521  -0.75125  -0.71362
 Alpha  occ. eigenvalues --   -0.68576  -0.66929  -0.62756  -0.58992  -0.56714
 Alpha  occ. eigenvalues --   -0.55704  -0.55034  -0.53434  -0.52923
 Alpha virt. eigenvalues --   -0.28612  -0.20565  -0.14894  -0.14292  -0.11858
 Alpha virt. eigenvalues --   -0.10292  -0.07135  -0.06526  -0.05504  -0.03531
 Alpha virt. eigenvalues --   -0.02239  -0.01453  -0.01060  -0.00108   0.00256
 Alpha virt. eigenvalues --    0.01575   0.02164   0.03108   0.03467   0.04469
 Alpha virt. eigenvalues --    0.04802   0.05979   0.06053   0.06405   0.07406
 Alpha virt. eigenvalues --    0.07840   0.08167   0.08263   0.08868   0.09368
 Alpha virt. eigenvalues --    0.11429   0.11748   0.11922   0.12599   0.13112
 Alpha virt. eigenvalues --    0.14092   0.14637   0.15002   0.15761   0.16536
 Alpha virt. eigenvalues --    0.17091   0.17783   0.19092   0.19593   0.21077
 Alpha virt. eigenvalues --    0.21635   0.22529   0.23005   0.23990   0.25738
 Alpha virt. eigenvalues --    0.26701   0.28470   0.28834   0.31584   0.32500
 Alpha virt. eigenvalues --    0.34179   0.35093   0.35867   0.36627   0.37526
 Alpha virt. eigenvalues --    0.37896   0.38529   0.40333   0.42154   0.42967
 Alpha virt. eigenvalues --    0.43634   0.44262   0.45236   0.46678   0.47771
 Alpha virt. eigenvalues --    0.48583   0.51343   0.52014   0.52668   0.53925
 Alpha virt. eigenvalues --    0.55727   0.56164   0.57369   0.58600   0.59932
 Alpha virt. eigenvalues --    0.61510   0.63787   0.66127   0.67915   0.69854
 Alpha virt. eigenvalues --    0.70529   0.71073   0.72461   0.74020   0.74554
 Alpha virt. eigenvalues --    0.75883   0.79446   0.81130   0.84989   0.86054
 Alpha virt. eigenvalues --    0.87341   0.88342   0.92626   0.93891   0.98747
 Alpha virt. eigenvalues --    1.00426   1.01235   1.05322   1.06002   1.07311
 Alpha virt. eigenvalues --    1.10140   1.10886   1.12343   1.13007   1.15133
 Alpha virt. eigenvalues --    1.22631   1.25138   1.27288   1.33346   1.37021
 Alpha virt. eigenvalues --    1.37347   1.39310   1.46175   1.54972   1.57609
 Alpha virt. eigenvalues --    1.58986   1.59569   1.61074   1.63220   1.67070
 Alpha virt. eigenvalues --    1.69672   1.70608   1.73920   1.75816   1.79478
 Alpha virt. eigenvalues --    1.81840   1.85365   1.88045   1.95664   1.97813
 Alpha virt. eigenvalues --    1.99338   2.03465   2.04486   2.08225   2.09215
 Alpha virt. eigenvalues --    2.11316   2.15301   2.20492   2.22868   2.28165
 Alpha virt. eigenvalues --    2.38035   2.41985   2.43278   2.44989   2.52825
 Alpha virt. eigenvalues --    2.57183   2.63372   2.66560   2.68780   2.71908
 Alpha virt. eigenvalues --    2.74239   2.77033   2.77713   2.81452   2.82567
 Alpha virt. eigenvalues --    2.94503   2.97346   3.01143   3.06974   3.09623
 Alpha virt. eigenvalues --    3.13356   3.14624   3.18942   3.23803   3.25132
 Alpha virt. eigenvalues --    3.27802   3.39582   3.47396   3.51638   3.55203
 Alpha virt. eigenvalues --    3.57549   3.70464   3.74597   3.82644   3.87833
 Alpha virt. eigenvalues --    4.11545   4.11751   4.19032   4.24344   4.44782
 Alpha virt. eigenvalues --    4.45110   4.58139   4.60373   4.93552   4.96359
 Alpha virt. eigenvalues --    5.04886   5.09157   5.63286   6.16213   6.67212
 Alpha virt. eigenvalues --    7.50219   7.51803   7.61465  23.21828  23.61816
 Alpha virt. eigenvalues --   23.71439  23.79653  23.96162  24.01931  35.33116
 Alpha virt. eigenvalues --   47.93613  49.86009  49.94816 289.82901 289.84567
 Alpha virt. eigenvalues --  289.969831020.93977
          Condensed to atoms (all electrons):
               1          2          3          4          5          6
     1  C   10.151536  -3.747011   0.803405  -2.326899  -0.720537   0.294742
     2  C   -3.747011  15.216454  -2.795053  -1.330143   0.821401  -0.018991
     3  C    0.803405  -2.795053  14.962305  -4.810433  -1.894116   0.016710
     4  C   -2.326899  -1.330143  -4.810433  16.276781   2.072781   0.016970
     5  C   -0.720537   0.821401  -1.894116   2.072781   7.994766   0.044139
     6  H    0.294742  -0.018991   0.016710   0.016970   0.044139   0.405389
     7  H    0.097484   0.173817   0.134089  -0.049478  -0.031258  -0.003001
     8  H    0.001058   0.004254   0.044549   0.281532  -0.014318  -0.000002
     9  H    0.012178  -0.002255   0.000078   0.010488   0.299573  -0.002688
    10  N   -0.262610   0.467549  -1.019647   0.389007   0.029482  -0.000706
    11  O   -0.009570  -0.047731  -0.274462   0.054413  -0.049453  -0.000022
    12  O    0.397557  -0.116445  -0.278553  -0.106463  -0.050572   0.000027
    13  C    1.865401  -3.176581   1.761743  -4.728676  -2.542410  -0.017756
    14  H   -0.004376  -0.026938   0.025855  -0.148630  -0.035109  -0.000088
    15  Br   0.050192  -0.031030   0.132170   0.041319   0.134474  -0.000390
               7          8          9         10         11         12
     1  C    0.097484   0.001058   0.012178  -0.262610  -0.009570   0.397557
     2  C    0.173817   0.004254  -0.002255   0.467549  -0.047731  -0.116445
     3  C    0.134089   0.044549   0.000078  -1.019647  -0.274462  -0.278553
     4  C   -0.049478   0.281532   0.010488   0.389007   0.054413  -0.106463
     5  C   -0.031258  -0.014318   0.299573   0.029482  -0.049453  -0.050572
     6  H   -0.003001  -0.000002  -0.002688  -0.000706  -0.000022   0.000027
     7  H    0.356826   0.000004  -0.000012  -0.033812  -0.002019   0.027684
     8  H    0.000004   0.256750   0.000128  -0.019153   0.018346  -0.000456
     9  H   -0.000012   0.000128   0.338501   0.000456   0.000011   0.000005
    10  N   -0.033812  -0.019153   0.000456   7.376165   0.243872   0.086914
    11  O   -0.002019   0.018346   0.000011   0.243872   7.699465  -0.000421
    12  O    0.027684  -0.000456   0.000005   0.086914  -0.000421   8.035025
    13  C    0.023407   0.006211   0.005796  -0.152533   0.256622   0.062892
    14  H   -0.000015  -0.003002  -0.005998  -0.000322  -0.000354  -0.000055
    15  Br  -0.000165   0.001454  -0.003082  -0.001898   0.000716   0.001992
              13         14         15
     1  C    1.865401  -0.004376   0.050192
     2  C   -3.176581  -0.026938  -0.031030
     3  C    1.761743   0.025855   0.132170
     4  C   -4.728676  -0.148630   0.041319
     5  C   -2.542410  -0.035109   0.134474
     6  H   -0.017756  -0.000088  -0.000390
     7  H    0.023407  -0.000015  -0.000165
     8  H    0.006211  -0.003002   0.001454
     9  H    0.005796  -0.005998  -0.003082
    10  N   -0.152533  -0.000322  -0.001898
    11  O    0.256622  -0.000354   0.000716
    12  O    0.062892  -0.000055   0.001992
    13  C   12.805348   0.482179  -0.139490
    14  H    0.482179   0.304069  -0.030080
    15  Br  -0.139490  -0.030080  34.560902
 Mulliken charges:
               1
     1  C   -0.602552
     2  C    0.608702
     3  C   -0.808640
     4  C    0.357429
     5  C   -0.058843
     6  H    0.265668
     7  H    0.306449
     8  H    0.422645
     9  H    0.346822
    10  N   -0.102765
    11  O    0.110588
    12  O   -0.059129
    13  C   -0.512152
    14  H    0.442863
    15  Br   0.282916
 Sum of Mulliken charges =   1.00000
 Mulliken charges with hydrogens summed into heavy atoms:
               1
     1  C   -0.336884
     2  C    0.915151
     3  C   -0.808640
     4  C    0.780074
     5  C    0.287979
    10  N   -0.102765
    11  O    0.110588
    12  O   -0.059129
    13  C   -0.069289
    15  Br   0.282916
 Electronic spatial extent (au):  <R**2>=           2796.7865
 Charge=              1.0000 electrons
 Dipole moment (field-independent basis, Debye):
    X=             -1.3261    Y=             -5.0702    Z=             -0.6258  Tot=              5.2780
 Quadrupole moment (field-independent basis, Debye-Ang):
   XX=            -72.0382   YY=            -50.3097   ZZ=            -61.3723
   XY=             -3.6667   XZ=              1.6188   YZ=              3.7228
 Traceless Quadrupole moment (field-independent basis, Debye-Ang):
   XX=            -10.7982   YY=             10.9304   ZZ=             -0.1322
   XY=             -3.6667   XZ=              1.6188   YZ=              3.7228
 Octapole moment (field-independent basis, Debye-Ang**2):
  XXX=           -304.0611  YYY=             60.9904  ZZZ=             73.5074  XYY=            -79.5454
  XXY=              6.1841  XXZ=             31.6540  XZZ=            -79.5696  YZZ=              8.9367
  YYZ=             19.2869  XYZ=             -4.3809
 Hexadecapole moment (field-independent basis, Debye-Ang**3):
 XXXX=          -2296.7188 YYYY=           -657.4034 ZZZZ=           -337.7901 XXXY=           -151.2515
 XXXZ=            -19.6880 YYYX=            -75.2839 YYYZ=           -137.3464 ZZZX=            -15.4217
 ZZZY=           -123.5469 XXYY=           -458.7827 XXZZ=           -369.6414 YYZZ=           -150.2431
 XXYZ=            -50.8589 YYXZ=              1.8267 ZZXY=             -8.9462
 N-N= 7.374427541563D+02 E-N=-8.629670540369D+03  KE= 3.005820239218D+03
 No NMR shielding tensors so no spin-rotation constants.
 Leave Link  601 at Wed May  1 15:10:31 2024, MaxMem=  1207959552 cpu:               7.3 elap:               7.3
 (Enter /software/gaussian/g16-c01/sse4/g16/l9999.exe)
 Unable to Open any file for archive entry.
 1\1\GINC-BHX0030\SP\RwB97XD\6-311+G(d)\C6H5Br1N1O2(1+)\BWEIGHT\01-May-
 2024\0\\#P wB97XD/6-311+G* NoSymm #P Field=Y+155\\TitleMe\\1,1\C,0,0.0
 295,1.3397,0.0682\C,0,1.4348,1.2867,0.0064\C,0,2.1118,0.0511,-0.0054\C
 ,0,1.4451,-1.1372,0.0312\C,0,-0.6879,0.1682,0.11\H,0,-0.4713,2.2984,0.
 0781\H,0,2.0273,2.1965,-0.0322\H,0,1.9897,-2.0764,0.0232\H,0,-1.7716,0
 .1804,0.1582\N,0,3.5864,0.051,-0.0675\O,0,4.1471,-1.0597,-0.0881\O,0,4
 .145,1.1639,-0.0901\C,0,-0.0236,-1.1458,0.0835\H,0,-0.4367,-1.8725,0.7
 889\Br,0,-0.5359,-1.8697,-1.7408\\Version=ES64L-G16RevC.01\HF=-3010.55
 25546\RMSD=6.190e-09\Dipole=-2.4282615,-0.8467036,0.8999534\Quadrupole
 =-8.028166,8.1264781,-0.0983121,-2.726105,1.2035253,2.7678276\PG=C01 [
 X(C6H5Br1N1O2)]\\@
 The archive entry for this job was punched.


 You never know when you're making a memory.
                        -- Rickie Lee Jones
 Job cpu time:       0 days  0 hours 20 minutes 39.0 seconds.
 Elapsed time:       0 days  0 hours 20 minutes 39.1 seconds.
 File lengths (MBytes):  RWF=     40 Int=      0 D2E=      0 Chk=     32 Scr=      1
 Normal termination of Gaussian 16 at Wed May  1 15:10:32 2024.
