 Entering Gaussian System, Link 0=g16
 Initial command:
 /software/gaussian/g16-c01/sse4/g16/l1.exe "/local_scratch/24665312/Gau-12942.inp" -scrdir="/local_scratch/24665312/"
 Entering Link 1 = /software/gaussian/g16-c01/sse4/g16/l1.exe PID=     12948.
  
 Copyright (c) 1988-2019, Gaussian, Inc.  All Rights Reserved.
  
 This is part of the Gaussian(R) 16 program.  It is based on
 the Gaussian(R) 09 system (copyright 2009, Gaussian, Inc.),
 the Gaussian(R) 03 system (copyright 2003, Gaussian, Inc.),
 the Gaussian(R) 98 system (copyright 1998, Gaussian, Inc.),
 the Gaussian(R) 94 system (copyright 1995, Gaussian, Inc.),
 the Gaussian 92(TM) system (copyright 1992, Gaussian, Inc.),
 the Gaussian 90(TM) system (copyright 1990, Gaussian, Inc.),
 the Gaussian 88(TM) system (copyright 1988, Gaussian, Inc.),
 the Gaussian 86(TM) system (copyright 1986, Carnegie Mellon
 University), and the Gaussian 82(TM) system (copyright 1983,
 Carnegie Mellon University). Gaussian is a federally registered
 trademark of Gaussian, Inc.
  
 This software contains proprietary and confidential information,
 including trade secrets, belonging to Gaussian, Inc.
  
 This software is provided under written license and may be
 used, copied, transmitted, or stored only in accord with that
 written license.
  
 The following legend is applicable only to US Government
 contracts under FAR:
  
                    RESTRICTED RIGHTS LEGEND
  
 Use, reproduction and disclosure by the US Government is
 subject to restrictions as set forth in subparagraphs (a)
 and (c) of the Commercial Computer Software - Restricted
 Rights clause in FAR 52.227-19.
  
 Gaussian, Inc.
 340 Quinnipiac St., Bldg. 40, Wallingford CT 06492
  
  
 ---------------------------------------------------------------
 Warning -- This program may not be used in any manner that
 competes with the business of Gaussian, Inc. or will provide
 assistance to any competitor of Gaussian, Inc.  The licensee
 of this program is prohibited from giving any competitor of
 Gaussian, Inc. access to this program.  By using this program,
 the user acknowledges that Gaussian, Inc. is engaged in the
 business of creating and licensing software in the field of
 computational chemistry and represents and warrants to the
 licensee that it is not a competitor of Gaussian, Inc. and that
 it will not use this program in any manner prohibited above.
 ---------------------------------------------------------------
  

 Cite this work as:
 Gaussian 16, Revision C.01,
 M. J. Frisch, G. W. Trucks, H. B. Schlegel, G. E. Scuseria, 
 M. A. Robb, J. R. Cheeseman, G. Scalmani, V. Barone, 
 G. A. Petersson, H. Nakatsuji, X. Li, M. Caricato, A. V. Marenich, 
 J. Bloino, B. G. Janesko, R. Gomperts, B. Mennucci, H. P. Hratchian, 
 J. V. Ortiz, A. F. Izmaylov, J. L. Sonnenberg, D. Williams-Young, 
 F. Ding, F. Lipparini, F. Egidi, J. Goings, B. Peng, A. Petrone, 
 T. Henderson, D. Ranasinghe, V. G. Zakrzewski, J. Gao, N. Rega, 
 G. Zheng, W. Liang, M. Hada, M. Ehara, K. Toyota, R. Fukuda, 
 J. Hasegawa, M. Ishida, T. Nakajima, Y. Honda, O. Kitao, H. Nakai, 
 T. Vreven, K. Throssell, J. A. Montgomery, Jr., J. E. Peralta, 
 F. Ogliaro, M. J. Bearpark, J. J. Heyd, E. N. Brothers, K. N. Kudin, 
 V. N. Staroverov, T. A. Keith, R. Kobayashi, J. Normand, 
 K. Raghavachari, A. P. Rendell, J. C. Burant, S. S. Iyengar, 
 J. Tomasi, M. Cossi, J. M. Millam, M. Klene, C. Adamo, R. Cammi, 
 J. W. Ochterski, R. L. Martin, K. Morokuma, O. Farkas, 
 J. B. Foresman, and D. J. Fox, Gaussian, Inc., Wallingford CT, 2019.
 
 ******************************************
 Gaussian 16:  ES64L-G16RevC.01  3-Jul-2019
                 2-May-2024 
 ******************************************
 %chk=geometry.chk
 %mem=1GB
 %nprocshared=12
 Will use up to   12 processors via shared memory.
 ----------------------------------------
 #P wB97XD/6-311+G* NoSymm #P Field=Y-107
 ----------------------------------------
 1/38=1,172=1/1;
 2/12=2,15=1,17=6,18=5,40=1/2;
 3/5=4,6=6,7=11,11=2,14=2,15=-107,25=1,30=1,74=-58/1,2,3;
 4//1;
 5/5=2,38=5/2;
 6/7=2,8=2,9=2,10=2,28=1/1;
 99/5=1,9=1/99;
 Leave Link    1 at Thu May  2 13:57:39 2024, MaxMem=   134217728 cpu:               2.0 elap:               2.0
 (Enter /software/gaussian/g16-c01/sse4/g16/l101.exe)
 -------
 TitleMe
 -------
 Symbolic Z-matrix:
 Charge =  1 Multiplicity = 1
 C                     0.5193    1.233    -0.0319 
 C                     1.9445    1.2692   -0.0367 
 C                     2.6204    0.0928   -0.025 
 C                    -0.196     0.0301    0.001 
 H                    -0.0207    2.1742   -0.0434 
 H                     2.4828    2.2089   -0.0361 
 H                    -1.2777    0.0399    0.0117 
 N                     4.0921    0.0959    0.0366 
 O                     4.6393   -1.0217    0.1446 
 O                     4.6649    1.1984   -0.0233 
 C                     0.4943   -1.1671    0.021 
 H                    -0.0325   -2.1149    0.0545 
 C                     1.9629   -1.2165   -0.0211 
 H                     2.4436   -1.9631    0.6151 
 Br                    2.173    -1.9491   -1.9062 
 
 ITRead=  0  0  0  0  0  0  0  0  0  0  0  0  0  0  0
 MicOpt= -1 -1 -1 -1 -1 -1 -1 -1 -1 -1 -1 -1 -1 -1 -1
 NAtoms=     15 NQM=       15 NQMF=       0 NMMI=      0 NMMIF=      0
                NMic=       0 NMicF=      0.
                    Isotopes and Nuclear Properties:
 (Nuclear quadrupole moments (NQMom) in fm**2, nuclear magnetic moments (NMagM)
  in nuclear magnetons)

  Atom         1           2           3           4           5           6           7           8           9          10
 IAtWgt=          12          12          12          12           1           1           1          14          16          16
 AtmWgt=  12.0000000  12.0000000  12.0000000  12.0000000   1.0078250   1.0078250   1.0078250  14.0030740  15.9949146  15.9949146
 NucSpn=           0           0           0           0           1           1           1           2           0           0
 AtZEff=  -0.0000000  -0.0000000  -0.0000000  -0.0000000  -0.0000000  -0.0000000  -0.0000000  -0.0000000  -0.0000000  -0.0000000
 NQMom=    0.0000000   0.0000000   0.0000000   0.0000000   0.0000000   0.0000000   0.0000000   2.0440000   0.0000000   0.0000000
 NMagM=    0.0000000   0.0000000   0.0000000   0.0000000   2.7928460   2.7928460   2.7928460   0.4037610   0.0000000   0.0000000
 AtZNuc=   6.0000000   6.0000000   6.0000000   6.0000000   1.0000000   1.0000000   1.0000000   7.0000000   8.0000000   8.0000000

  Atom        11          12          13          14          15
 IAtWgt=          12           1          12           1          79
 AtmWgt=  12.0000000   1.0078250  12.0000000   1.0078250  78.9183361
 NucSpn=           0           1           0           1           3
 AtZEff=  -0.0000000  -0.0000000  -0.0000000  -0.0000000  -0.0000000
 NQMom=    0.0000000   0.0000000   0.0000000   0.0000000  31.3000000
 NMagM=    0.0000000   2.7928460   0.0000000   2.7928460   2.1063990
 AtZNuc=   6.0000000   1.0000000   6.0000000   1.0000000  35.0000000
 Leave Link  101 at Thu May  2 13:57:42 2024, MaxMem=   134217728 cpu:               1.7 elap:               1.7
 (Enter /software/gaussian/g16-c01/sse4/g16/l202.exe)
                          Input orientation:                          
 ---------------------------------------------------------------------
 Center     Atomic      Atomic             Coordinates (Angstroms)
 Number     Number       Type             X           Y           Z
 ---------------------------------------------------------------------
      1          6           0        0.519300    1.233000   -0.031900
      2          6           0        1.944500    1.269200   -0.036700
      3          6           0        2.620400    0.092800   -0.025000
      4          6           0       -0.196000    0.030100    0.001000
      5          1           0       -0.020700    2.174200   -0.043400
      6          1           0        2.482800    2.208900   -0.036100
      7          1           0       -1.277700    0.039900    0.011700
      8          7           0        4.092100    0.095900    0.036600
      9          8           0        4.639300   -1.021700    0.144600
     10          8           0        4.664900    1.198400   -0.023300
     11          6           0        0.494300   -1.167100    0.021000
     12          1           0       -0.032500   -2.114900    0.054500
     13          6           0        1.962900   -1.216500   -0.021100
     14          1           0        2.443600   -1.963100    0.615100
     15         35           0        2.173000   -1.949100   -1.906200
 ---------------------------------------------------------------------
                    Distance matrix (angstroms):
                    1          2          3          4          5
     1  C    0.000000
     2  C    1.425668   0.000000
     3  C    2.390549   1.356796   0.000000
     4  C    1.399895   2.473566   2.817218   0.000000
     5  H    1.085168   2.163581   3.362733   2.151712   0.000000
     6  H    2.192654   1.082960   2.120598   3.453189   2.503751
     7  H    2.157452   3.449071   3.898632   1.081797   2.477564
     8  N    3.750012   2.448304   1.472992   4.288753   4.608780
     9  O    4.699917   3.541615   2.312322   4.950458   5.653735
    10  O    4.145753   2.721354   2.324292   4.999386   4.786171
    11  C    2.400813   2.835836   2.471794   1.382101   3.381369
    12  H    3.394169   3.920329   3.452266   2.151887   4.290233
    13  C    2.843264   2.485817   1.465124   2.493060   3.928360
    14  H    3.786370   3.334922   2.160489   3.364142   4.860416
    15  Br   4.046416   3.728900   2.812194   3.628609   5.028314
                    6          7          8          9         10
     6  H    0.000000
     7  H    4.341452   0.000000
     8  N    2.657047   5.370150   0.000000
     9  O    3.888434   6.012948   1.249048   0.000000
    10  O    2.404752   6.054572   1.243863   2.226587   0.000000
    11  C    3.918516   2.144043   3.813080   4.149391   4.794941
    12  H    5.003018   2.489080   4.679774   4.798846   5.748876
    13  C    3.464662   3.475788   2.501842   2.688591   3.623886
    14  H    4.222698   4.268978   2.700314   2.434893   3.916224
    15  Br   4.569706   4.420610   3.411663   3.338935   4.434144
                   11         12         13         14         15
    11  C    0.000000
    12  H    1.084880   0.000000
    13  C    1.470034   2.189625   0.000000
    14  H    2.187771   2.543302   1.092353   0.000000
    15  Br   2.672762   2.955683   2.033334   2.535818   0.000000
 Symmetry turned off by external request.
 Stoichiometry    C6H5BrNO2(1+)
 Framework group  C1[X(C6H5BrNO2)]
 Deg. of freedom    39
 Full point group                 C1      NOp   1
 Rotational constants (GHZ):           1.1632986           0.9594224           0.5957624
 Leave Link  202 at Thu May  2 13:57:43 2024, MaxMem=   134217728 cpu:               1.3 elap:               1.3
 (Enter /software/gaussian/g16-c01/sse4/g16/l301.exe)
 Standard basis: 6-311+G(d) (5D, 7F)
 Ernie: Thresh=  0.10000D-02 Tol=  0.10000D-05 Strict=F.
 The following finite field(s) will be applied:
 An electric field of              0.0000 -0.0107  0.0000
   261 basis functions,   443 primitive gaussians,   273 cartesian basis functions
    49 alpha electrons       49 beta electrons
       nuclear repulsion energy       772.8945969580 Hartrees.
 IExCor= 4639 DFT=T Ex+Corr=wB97XD ExCW=0 ScaHFX=  1.000000
 ScaDFX=  1.000000  1.000000  1.000000  1.000000 ScalE2=  1.000000  1.000000
 IRadAn=      5 IRanWt=     -1 IRanGd=            0 ICorTp=0 IEmpDi=121
 HFx  wShort=  0.000000 wLong=  0.200000 cFull=  0.222036 cShort=  0.000000 cLong=  0.777964
 DFx  wShort=  0.000000 wLong=  0.200000 cFull=  0.000000 cShort=  0.000000 cLong=  1.000000
 NAtoms=   15 NActive=   15 NUniq=   15 SFac= 1.00D+00 NAtFMM=   60 NAOKFM=F Big=F
 Integral buffers will be    131072 words long.
 Raffenetti 2 integral format.
 Two-electron integral symmetry is turned off.
 R6Disp:  Grimme-D2 Dispersion energy=       -0.0080346408 Hartrees.
 Nuclear repulsion after empirical dispersion term =      772.8865623173 Hartrees.
 Leave Link  301 at Thu May  2 13:57:44 2024, MaxMem=   134217728 cpu:               1.2 elap:               1.2
 (Enter /software/gaussian/g16-c01/sse4/g16/l302.exe)
 NPDir=0 NMtPBC=     1 NCelOv=     1 NCel=       1 NClECP=     1 NCelD=      1
         NCelK=      1 NCelE2=     1 NClLst=     1 CellRange=     0.0.
 One-electron integrals computed using PRISM.
 NBasis=   261 RedAO= T EigKep=  2.52D-06  NBF=   261
 NBsUse=   261 1.00D-06 EigRej= -1.00D+00 NBFU=   261
 Precomputing XC quadrature grid using
 IXCGrd= 4 IRadAn=           5 IRanWt=          -1 IRanGd=           0 AccXCQ= 0.00D+00.
 Generated NRdTot=       0 NPtTot=           0 NUsed=           0 NTot=          32
 NSgBfM=   273   273   273   273   273 MxSgAt=    15 MxSgA2=    15.
 Leave Link  302 at Thu May  2 13:58:06 2024, MaxMem=   134217728 cpu:              21.8 elap:              21.8
 (Enter /software/gaussian/g16-c01/sse4/g16/l303.exe)
 DipDrv:  MaxL=1.
 The nuclear repulsion energy is now       774.1875135030 hartrees.
 Leave Link  303 at Thu May  2 13:58:10 2024, MaxMem=   134217728 cpu:               3.3 elap:               3.3
 (Enter /software/gaussian/g16-c01/sse4/g16/l401.exe)
 ExpMin= 3.50D-02 ExpMax= 4.40D+05 ExpMxC= 1.51D+04 IAcc=3 IRadAn=         5 AccDes= 0.00D+00
 Harris functional with IExCor= 4639 and IRadAn=       5 diagonalized for initial guess.
 HarFok:  IExCor= 4639 AccDes= 0.00D+00 IRadAn=         5 IDoV= 1 UseB2=F ITyADJ=14
 ICtDFT=  3500011 ScaDFX=  1.000000  1.000000  1.000000  1.000000
 FoFCou: FMM=F IPFlag=           0 FMFlag=      100000 FMFlg1=           0
         NFxFlg=           0 DoJE=T BraDBF=F KetDBF=T FulRan=T
         wScrn=  0.000000 ICntrl=       500 IOpCl=  0 I1Cent=   200000004 NGrid=           0
         NMat0=    1 NMatS0=      1 NMatT0=    0 NMatD0=    1 NMtDS0=    0 NMtDT0=    0
 Symmetry not used in FoFCou.
 Harris En= -2970.61391754857    
 JPrj=0 DoOrth=F DoCkMO=F.
 Leave Link  401 at Thu May  2 13:58:41 2024, MaxMem=   134217728 cpu:              31.4 elap:              31.4
 (Enter /software/gaussian/g16-c01/sse4/g16/l502.exe)
 Two-electron integral symmetry not used.
 Closed shell SCF:
 Using DIIS extrapolation, IDIIS=  1040.
 NGot=   134217728 LenX=   134063053 LenY=   133988083
 Requested convergence on RMS density matrix=1.00D-08 within 128 cycles.
 Requested convergence on MAX density matrix=1.00D-06.
 Requested convergence on             energy=1.00D-06.
 No special actions if energy rises.
 Fock matrices will be formed incrementally for  20 cycles.

 Cycle   1  Pass 1  IDiag  1:
 FoFJK:  IHMeth= 1 ICntrl=       0 DoSepK=T KAlg= 0 I1Cent=           0 FoldK=F
 IRaf=         1 NMat=       1 IRICut=       1 DoRegI=T DoRafI=F ISym2E= 0 IDoP0=0 IntGTp=1.
 FoFCou: FMM=F IPFlag=           0 FMFlag=      100000 FMFlg1=           0
         NFxFlg=           0 DoJE=T BraDBF=F KetDBF=F FulRan=T
         wScrn=  0.000000 ICntrl=       500 IOpCl=  0 I1Cent=           0 NGrid=           0
         NMat0=    1 NMatS0=      1 NMatT0=    0 NMatD0=    1 NMtDS0=    0 NMtDT0=    0
 Symmetry not used in FoFCou.
 E= -3009.68111484917    
 DIIS: error= 2.91D-01 at cycle   1 NSaved=   1.
 NSaved= 1 IEnMin= 1 EnMin= -3009.68111484917     IErMin= 1 ErrMin= 2.91D-01
 ErrMax= 2.91D-01  0.00D+00 EMaxC= 1.00D-01 BMatC= 1.19D+01 BMatP= 1.19D+01
 IDIUse=3 WtCom= 0.00D+00 WtEn= 1.00D+00
 Coeff-Com:  0.100D+01
 Coeff-En:   0.100D+01
 Coeff:      0.100D+01
 Gap=     0.382 Goal=   None    Shift=    0.000
 GapD=    0.382 DampG=1.000 DampE=0.250 DampFc=0.2500 IDamp=-1.
 Damping current iteration by 2.50D-01
 RMSDP=7.51D-02 MaxDP=9.48D+00              OVMax= 2.55D-01

 Cycle   2  Pass 1  IDiag  1:
 RMSU=  6.54D-03    CP:  8.75D-01
 E= -3009.97613881209     Delta-E=       -0.295023962923 Rises=F Damp=T
 DIIS: error= 2.19D-01 at cycle   2 NSaved=   2.
 NSaved= 2 IEnMin= 2 EnMin= -3009.97613881209     IErMin= 2 ErrMin= 2.19D-01
 ErrMax= 2.19D-01  0.00D+00 EMaxC= 1.00D-01 BMatC= 5.46D+00 BMatP= 1.19D+01
 IDIUse=3 WtCom= 0.00D+00 WtEn= 1.00D+00
 Coeff-Com: -0.183D+01 0.283D+01
 Coeff-En:   0.000D+00 0.100D+01
 Coeff:      0.000D+00 0.100D+01
 Gap=     0.255 Goal=   None    Shift=    0.000
 RMSDP=5.30D-02 MaxDP=6.67D+00 DE=-2.95D-01 OVMax= 1.09D-01

 Cycle   3  Pass 1  IDiag  1:
 RMSU=  6.68D-03    CP:  5.17D-01  3.00D+00
 E= -3010.38199941793     Delta-E=       -0.405860605836 Rises=F Damp=F
 DIIS: error= 6.54D-02 at cycle   3 NSaved=   3.
 NSaved= 3 IEnMin= 3 EnMin= -3010.38199941793     IErMin= 3 ErrMin= 6.54D-02
 ErrMax= 6.54D-02  0.00D+00 EMaxC= 1.00D-01 BMatC= 7.23D-01 BMatP= 5.46D+00
 IDIUse=3 WtCom= 3.46D-01 WtEn= 6.54D-01
 Coeff-Com:  0.220D+01-0.284D+01 0.165D+01
 Coeff-En:   0.156D-01 0.000D+00 0.984D+00
 Coeff:      0.769D+00-0.983D+00 0.121D+01
 Gap=     0.269 Goal=   None    Shift=    0.000
 RMSDP=1.25D-02 MaxDP=7.02D-01 DE=-4.06D-01 OVMax= 7.65D-02

 Cycle   4  Pass 1  IDiag  1:
 RMSU=  7.41D-03    CP:  5.48D-01  2.19D+00  2.00D+00
 E= -3010.46989647736     Delta-E=       -0.087897059429 Rises=F Damp=F
 DIIS: error= 4.07D-02 at cycle   4 NSaved=   4.
 NSaved= 4 IEnMin= 4 EnMin= -3010.46989647736     IErMin= 4 ErrMin= 4.07D-02
 ErrMax= 4.07D-02  0.00D+00 EMaxC= 1.00D-01 BMatC= 2.74D-01 BMatP= 7.23D-01
 IDIUse=3 WtCom= 5.93D-01 WtEn= 4.07D-01
 Coeff-Com:  0.446D+00-0.577D+00 0.618D+00 0.513D+00
 Coeff-En:   0.000D+00 0.000D+00 0.265D+00 0.735D+00
 Coeff:      0.264D+00-0.342D+00 0.474D+00 0.603D+00
 Gap=     0.278 Goal=   None    Shift=    0.000
 RMSDP=4.45D-03 MaxDP=2.06D-01 DE=-8.79D-02 OVMax= 7.30D-02

 Cycle   5  Pass 1  IDiag  1:
 RMSU=  2.17D-03    CP:  5.40D-01  2.34D+00  2.01D+00  5.14D-01
 E= -3010.52195372333     Delta-E=       -0.052057245975 Rises=F Damp=F
 DIIS: error= 1.60D-02 at cycle   5 NSaved=   5.
 NSaved= 5 IEnMin= 5 EnMin= -3010.52195372333     IErMin= 5 ErrMin= 1.60D-02
 ErrMax= 1.60D-02  0.00D+00 EMaxC= 1.00D-01 BMatC= 1.98D-02 BMatP= 2.74D-01
 IDIUse=3 WtCom= 8.40D-01 WtEn= 1.60D-01
 Coeff-Com:  0.150D-01-0.134D-01 0.212D+00 0.373D+00 0.413D+00
 Coeff-En:   0.000D+00 0.000D+00 0.000D+00 0.101D+00 0.899D+00
 Coeff:      0.126D-01-0.113D-01 0.178D+00 0.329D+00 0.491D+00
 Gap=     0.262 Goal=   None    Shift=    0.000
 RMSDP=4.58D-03 MaxDP=6.37D-01 DE=-5.21D-02 OVMax= 4.43D-02

 Cycle   6  Pass 1  IDiag  1:
 RMSU=  9.09D-04    CP:  5.13D-01  2.42D+00  1.92D+00  7.42D-01  3.52D-01
 E= -3010.53315295864     Delta-E=       -0.011199235308 Rises=F Damp=F
 DIIS: error= 4.81D-03 at cycle   6 NSaved=   6.
 NSaved= 6 IEnMin= 6 EnMin= -3010.53315295864     IErMin= 6 ErrMin= 4.81D-03
 ErrMax= 4.81D-03  0.00D+00 EMaxC= 1.00D-01 BMatC= 2.11D-03 BMatP= 1.98D-02
 IDIUse=3 WtCom= 9.52D-01 WtEn= 4.81D-02
 Coeff-Com: -0.518D-01 0.699D-01 0.100D-01 0.107D+00 0.318D+00 0.546D+00
 Coeff-En:   0.000D+00 0.000D+00 0.000D+00 0.000D+00 0.117D+00 0.883D+00
 Coeff:     -0.493D-01 0.665D-01 0.952D-02 0.102D+00 0.309D+00 0.563D+00
 Gap=     0.247 Goal=   None    Shift=    0.000
 RMSDP=1.01D-03 MaxDP=1.33D-01 DE=-1.12D-02 OVMax= 1.06D-02

 Cycle   7  Pass 1  IDiag  1:
 RMSU=  2.52D-04    CP:  5.19D-01  2.41D+00  1.97D+00  7.05D-01  5.42D-01
                    CP:  7.15D-01
 E= -3010.53463984046     Delta-E=       -0.001486881818 Rises=F Damp=F
 DIIS: error= 4.19D-04 at cycle   7 NSaved=   7.
 NSaved= 7 IEnMin= 7 EnMin= -3010.53463984046     IErMin= 7 ErrMin= 4.19D-04
 ErrMax= 4.19D-04  0.00D+00 EMaxC= 1.00D-01 BMatC= 2.62D-05 BMatP= 2.11D-03
 IDIUse=3 WtCom= 9.96D-01 WtEn= 4.19D-03
 Coeff-Com: -0.241D-01 0.319D-01-0.131D-01 0.133D-01 0.783D-01 0.205D+00
 Coeff-Com:  0.708D+00
 Coeff-En:   0.000D+00 0.000D+00 0.000D+00 0.000D+00 0.000D+00 0.000D+00
 Coeff-En:   0.100D+01
 Coeff:     -0.240D-01 0.318D-01-0.130D-01 0.133D-01 0.780D-01 0.204D+00
 Coeff:      0.710D+00
 Gap=     0.247 Goal=   None    Shift=    0.000
 RMSDP=4.50D-04 MaxDP=6.19D-02 DE=-1.49D-03 OVMax= 4.14D-03

 Cycle   8  Pass 1  IDiag  1:
 RMSU=  1.15D-04    CP:  5.16D-01  2.41D+00  1.97D+00  7.18D-01  5.44D-01
                    CP:  8.56D-01  9.80D-01
 E= -3010.53468314999     Delta-E=       -0.000043309530 Rises=F Damp=F
 DIIS: error= 1.28D-04 at cycle   8 NSaved=   8.
 NSaved= 8 IEnMin= 8 EnMin= -3010.53468314999     IErMin= 8 ErrMin= 1.28D-04
 ErrMax= 1.28D-04  0.00D+00 EMaxC= 1.00D-01 BMatC= 3.21D-06 BMatP= 2.62D-05
 IDIUse=3 WtCom= 9.99D-01 WtEn= 1.28D-03
 Coeff-Com:  0.519D-02-0.713D-02-0.394D-02-0.149D-01-0.400D-01-0.635D-01
 Coeff-Com:  0.134D+00 0.990D+00
 Coeff-En:   0.000D+00 0.000D+00 0.000D+00 0.000D+00 0.000D+00 0.000D+00
 Coeff-En:   0.000D+00 0.100D+01
 Coeff:      0.518D-02-0.712D-02-0.394D-02-0.149D-01-0.399D-01-0.635D-01
 Coeff:      0.134D+00 0.990D+00
 Gap=     0.247 Goal=   None    Shift=    0.000
 RMSDP=1.33D-04 MaxDP=1.27D-02 DE=-4.33D-05 OVMax= 3.86D-03

 Cycle   9  Pass 1  IDiag  1:
 RMSU=  4.13D-05    CP:  5.15D-01  2.41D+00  1.97D+00  7.25D-01  5.50D-01
                    CP:  8.87D-01  1.18D+00  1.35D+00
 E= -3010.53469763820     Delta-E=       -0.000014488207 Rises=F Damp=F
 DIIS: error= 6.70D-05 at cycle   9 NSaved=   9.
 NSaved= 9 IEnMin= 9 EnMin= -3010.53469763820     IErMin= 9 ErrMin= 6.70D-05
 ErrMax= 6.70D-05  0.00D+00 EMaxC= 1.00D-01 BMatC= 6.70D-07 BMatP= 3.21D-06
 IDIUse=1 WtCom= 1.00D+00 WtEn= 0.00D+00
 Coeff-Com:  0.675D-02-0.905D-02 0.123D-02-0.745D-02-0.225D-01-0.472D-01
 Coeff-Com: -0.758D-01 0.262D+00 0.892D+00
 Coeff:      0.675D-02-0.905D-02 0.123D-02-0.745D-02-0.225D-01-0.472D-01
 Coeff:     -0.758D-01 0.262D+00 0.892D+00
 Gap=     0.247 Goal=   None    Shift=    0.000
 RMSDP=1.03D-04 MaxDP=1.35D-02 DE=-1.45D-05 OVMax= 2.05D-03

 Cycle  10  Pass 1  IDiag  1:
 RMSU=  2.12D-05    CP:  5.14D-01  2.41D+00  1.97D+00  7.26D-01  5.48D-01
                    CP:  9.09D-01  1.21D+00  1.62D+00  1.23D+00
 E= -3010.53470111254     Delta-E=       -0.000003474344 Rises=F Damp=F
 DIIS: error= 3.56D-05 at cycle  10 NSaved=  10.
 NSaved=10 IEnMin=10 EnMin= -3010.53470111254     IErMin=10 ErrMin= 3.56D-05
 ErrMax= 3.56D-05  0.00D+00 EMaxC= 1.00D-01 BMatC= 1.98D-07 BMatP= 6.70D-07
 IDIUse=1 WtCom= 1.00D+00 WtEn= 0.00D+00
 Coeff-Com:  0.209D-03-0.247D-03 0.811D-03 0.144D-02 0.875D-02 0.157D-01
 Coeff-Com: -0.424D-01-0.243D+00 0.173D+00 0.109D+01
 Coeff:      0.209D-03-0.247D-03 0.811D-03 0.144D-02 0.875D-02 0.157D-01
 Coeff:     -0.424D-01-0.243D+00 0.173D+00 0.109D+01
 Gap=     0.247 Goal=   None    Shift=    0.000
 RMSDP=3.09D-05 MaxDP=2.64D-03 DE=-3.47D-06 OVMax= 1.33D-03

 Cycle  11  Pass 1  IDiag  1:
 RMSU=  1.48D-05    CP:  5.14D-01  2.41D+00  1.97D+00  7.25D-01  5.47D-01
                    CP:  9.18D-01  1.22D+00  1.76D+00  1.55D+00  1.32D+00
 E= -3010.53470211841     Delta-E=       -0.000001005866 Rises=F Damp=F
 DIIS: error= 1.22D-05 at cycle  11 NSaved=  11.
 NSaved=11 IEnMin=11 EnMin= -3010.53470211841     IErMin=11 ErrMin= 1.22D-05
 ErrMax= 1.22D-05  0.00D+00 EMaxC= 1.00D-01 BMatC= 2.52D-08 BMatP= 1.98D-07
 IDIUse=1 WtCom= 1.00D+00 WtEn= 0.00D+00
 Coeff-Com: -0.424D-03 0.579D-03 0.249D-03 0.122D-02 0.507D-02 0.104D-01
 Coeff-Com: -0.296D-02-0.102D+00-0.394D-01 0.316D+00 0.811D+00
 Coeff:     -0.424D-03 0.579D-03 0.249D-03 0.122D-02 0.507D-02 0.104D-01
 Coeff:     -0.296D-02-0.102D+00-0.394D-01 0.316D+00 0.811D+00
 Gap=     0.247 Goal=   None    Shift=    0.000
 RMSDP=1.32D-05 MaxDP=1.33D-03 DE=-1.01D-06 OVMax= 3.15D-04

 Cycle  12  Pass 1  IDiag  1:
 RMSU=  3.04D-06    CP:  5.14D-01  2.41D+00  1.97D+00  7.24D-01  5.46D-01
                    CP:  9.20D-01  1.22D+00  1.80D+00  1.58D+00  1.47D+00
                    CP:  1.35D+00
 E= -3010.53470223314     Delta-E=       -0.000000114739 Rises=F Damp=F
 DIIS: error= 7.60D-06 at cycle  12 NSaved=  12.
 NSaved=12 IEnMin=12 EnMin= -3010.53470223314     IErMin=12 ErrMin= 7.60D-06
 ErrMax= 7.60D-06  0.00D+00 EMaxC= 1.00D-01 BMatC= 8.72D-09 BMatP= 2.52D-08
 IDIUse=1 WtCom= 1.00D+00 WtEn= 0.00D+00
 Coeff-Com: -0.131D-03 0.170D-03-0.900D-04 0.211D-04-0.136D-02-0.188D-02
 Coeff-Com:  0.144D-01 0.439D-01-0.830D-01-0.283D+00 0.365D+00 0.946D+00
 Coeff:     -0.131D-03 0.170D-03-0.900D-04 0.211D-04-0.136D-02-0.188D-02
 Coeff:      0.144D-01 0.439D-01-0.830D-01-0.283D+00 0.365D+00 0.946D+00
 Gap=     0.247 Goal=   None    Shift=    0.000
 RMSDP=8.34D-06 MaxDP=7.75D-04 DE=-1.15D-07 OVMax= 2.65D-04

 Cycle  13  Pass 1  IDiag  1:
 RMSU=  1.56D-06    CP:  5.14D-01  2.41D+00  1.97D+00  7.23D-01  5.45D-01
                    CP:  9.21D-01  1.22D+00  1.81D+00  1.62D+00  1.55D+00
                    CP:  1.69D+00  1.38D+00
 E= -3010.53470227924     Delta-E=       -0.000000046090 Rises=F Damp=F
 DIIS: error= 3.34D-06 at cycle  13 NSaved=  13.
 NSaved=13 IEnMin=13 EnMin= -3010.53470227924     IErMin=13 ErrMin= 3.34D-06
 ErrMax= 3.34D-06  0.00D+00 EMaxC= 1.00D-01 BMatC= 6.96D-10 BMatP= 8.72D-09
 IDIUse=1 WtCom= 1.00D+00 WtEn= 0.00D+00
 Coeff-Com:  0.157D-04-0.223D-04-0.352D-04-0.121D-03-0.704D-03-0.143D-02
 Coeff-Com:  0.549D-03 0.125D-01 0.265D-02-0.446D-01-0.840D-01 0.506D-01
 Coeff-Com:  0.106D+01
 Coeff:      0.157D-04-0.223D-04-0.352D-04-0.121D-03-0.704D-03-0.143D-02
 Coeff:      0.549D-03 0.125D-01 0.265D-02-0.446D-01-0.840D-01 0.506D-01
 Coeff:      0.106D+01
 Gap=     0.247 Goal=   None    Shift=    0.000
 RMSDP=1.66D-06 MaxDP=1.10D-04 DE=-4.61D-08 OVMax= 6.48D-05

 Cycle  14  Pass 1  IDiag  1:
 RMSU=  5.01D-07    CP:  5.14D-01  2.41D+00  1.97D+00  7.23D-01  5.45D-01
                    CP:  9.21D-01  1.22D+00  1.82D+00  1.62D+00  1.57D+00
                    CP:  1.74D+00  1.57D+00  1.54D+00
 E= -3010.53470228355     Delta-E=       -0.000000004311 Rises=F Damp=F
 DIIS: error= 1.33D-06 at cycle  14 NSaved=  14.
 NSaved=14 IEnMin=14 EnMin= -3010.53470228355     IErMin=14 ErrMin= 1.33D-06
 ErrMax= 1.33D-06  0.00D+00 EMaxC= 1.00D-01 BMatC= 2.17D-10 BMatP= 6.96D-10
 IDIUse=1 WtCom= 1.00D+00 WtEn= 0.00D+00
 Coeff-Com:  0.343D-05-0.411D-05-0.922D-05-0.434D-04 0.382D-04-0.104D-03
 Coeff-Com: -0.281D-02-0.392D-02 0.195D-01 0.432D-01-0.111D+00-0.184D+00
 Coeff-Com:  0.408D+00 0.831D+00
 Coeff:      0.343D-05-0.411D-05-0.922D-05-0.434D-04 0.382D-04-0.104D-03
 Coeff:     -0.281D-02-0.392D-02 0.195D-01 0.432D-01-0.111D+00-0.184D+00
 Coeff:      0.408D+00 0.831D+00
 Gap=     0.247 Goal=   None    Shift=    0.000
 RMSDP=6.80D-07 MaxDP=3.59D-05 DE=-4.31D-09 OVMax= 2.27D-05

 Cycle  15  Pass 1  IDiag  1:
 RMSU=  2.44D-07    CP:  5.14D-01  2.41D+00  1.97D+00  7.23D-01  5.45D-01
                    CP:  9.21D-01  1.22D+00  1.82D+00  1.62D+00  1.57D+00
                    CP:  1.75D+00  1.66D+00  1.79D+00  1.42D+00
 E= -3010.53470228433     Delta-E=       -0.000000000781 Rises=F Damp=F
 DIIS: error= 4.94D-07 at cycle  15 NSaved=  15.
 NSaved=15 IEnMin=15 EnMin= -3010.53470228433     IErMin=15 ErrMin= 4.94D-07
 ErrMax= 4.94D-07  0.00D+00 EMaxC= 1.00D-01 BMatC= 1.95D-11 BMatP= 2.17D-10
 IDIUse=1 WtCom= 1.00D+00 WtEn= 0.00D+00
 Coeff-Com: -0.248D-05 0.362D-05 0.339D-05 0.648D-05 0.666D-04 0.110D-03
 Coeff-Com: -0.706D-03-0.170D-02 0.295D-02 0.112D-01-0.622D-02-0.394D-01
 Coeff-Com: -0.823D-01 0.134D+00 0.982D+00
 Coeff:     -0.248D-05 0.362D-05 0.339D-05 0.648D-05 0.666D-04 0.110D-03
 Coeff:     -0.706D-03-0.170D-02 0.295D-02 0.112D-01-0.622D-02-0.394D-01
 Coeff:     -0.823D-01 0.134D+00 0.982D+00
 Gap=     0.247 Goal=   None    Shift=    0.000
 RMSDP=5.05D-07 MaxDP=5.84D-05 DE=-7.81D-10 OVMax= 8.43D-06

 Cycle  16  Pass 1  IDiag  1:
 RMSU=  9.47D-08    CP:  5.14D-01  2.41D+00  1.97D+00  7.23D-01  5.45D-01
                    CP:  9.21D-01  1.22D+00  1.82D+00  1.62D+00  1.57D+00
                    CP:  1.75D+00  1.70D+00  1.84D+00  1.56D+00  1.52D+00
 E= -3010.53470228440     Delta-E=       -0.000000000072 Rises=F Damp=F
 DIIS: error= 1.46D-07 at cycle  16 NSaved=  16.
 NSaved=16 IEnMin=16 EnMin= -3010.53470228440     IErMin=16 ErrMin= 1.46D-07
 ErrMax= 1.46D-07  0.00D+00 EMaxC= 1.00D-01 BMatC= 3.47D-12 BMatP= 1.95D-11
 IDIUse=1 WtCom= 1.00D+00 WtEn= 0.00D+00
 Coeff-Com: -0.167D-05 0.229D-05 0.242D-05 0.835D-05 0.102D-04 0.354D-04
 Coeff-Com:  0.101D-03 0.119D-03-0.137D-02-0.165D-02 0.117D-01 0.917D-02
 Coeff-Com: -0.639D-01-0.615D-01 0.245D+00 0.862D+00
 Coeff:     -0.167D-05 0.229D-05 0.242D-05 0.835D-05 0.102D-04 0.354D-04
 Coeff:      0.101D-03 0.119D-03-0.137D-02-0.165D-02 0.117D-01 0.917D-02
 Coeff:     -0.639D-01-0.615D-01 0.245D+00 0.862D+00
 Gap=     0.247 Goal=   None    Shift=    0.000
 RMSDP=8.70D-08 MaxDP=5.04D-06 DE=-7.23D-11 OVMax= 2.27D-06

 Cycle  17  Pass 1  IDiag  1:
 RMSU=  2.83D-08    CP:  5.14D-01  2.41D+00  1.97D+00  7.23D-01  5.45D-01
                    CP:  9.21D-01  1.22D+00  1.82D+00  1.62D+00  1.57D+00
                    CP:  1.75D+00  1.70D+00  1.85D+00  1.61D+00  1.76D+00
                    CP:  1.25D+00
 E= -3010.53470228441     Delta-E=       -0.000000000012 Rises=F Damp=F
 DIIS: error= 5.52D-08 at cycle  17 NSaved=  17.
 NSaved=17 IEnMin=17 EnMin= -3010.53470228441     IErMin=17 ErrMin= 5.52D-08
 ErrMax= 5.52D-08  0.00D+00 EMaxC= 1.00D-01 BMatC= 5.57D-13 BMatP= 3.47D-12
 IDIUse=1 WtCom= 1.00D+00 WtEn= 0.00D+00
 Coeff-Com: -0.127D-05 0.168D-05 0.238D-06 0.285D-05-0.598D-05-0.357D-05
 Coeff-Com:  0.123D-03 0.292D-03-0.105D-02-0.223D-02 0.502D-02 0.789D-02
 Coeff-Com: -0.775D-02-0.409D-01-0.680D-01 0.243D+00 0.864D+00
 Coeff:     -0.127D-05 0.168D-05 0.238D-06 0.285D-05-0.598D-05-0.357D-05
 Coeff:      0.123D-03 0.292D-03-0.105D-02-0.223D-02 0.502D-02 0.789D-02
 Coeff:     -0.775D-02-0.409D-01-0.680D-01 0.243D+00 0.864D+00
 Gap=     0.247 Goal=   None    Shift=    0.000
 RMSDP=6.72D-08 MaxDP=6.68D-06 DE=-1.23D-11 OVMax= 1.40D-06

 Cycle  18  Pass 1  IDiag  1:
 RMSU=  1.28D-08    CP:  5.14D-01  2.41D+00  1.97D+00  7.23D-01  5.45D-01
                    CP:  9.21D-01  1.22D+00  1.82D+00  1.62D+00  1.57D+00
                    CP:  1.75D+00  1.71D+00  1.85D+00  1.62D+00  1.82D+00
                    CP:  1.41D+00  1.44D+00
 E= -3010.53470228443     Delta-E=       -0.000000000020 Rises=F Damp=F
 DIIS: error= 1.60D-08 at cycle  18 NSaved=  18.
 NSaved=18 IEnMin=18 EnMin= -3010.53470228443     IErMin=18 ErrMin= 1.60D-08
 ErrMax= 1.60D-08  0.00D+00 EMaxC= 1.00D-01 BMatC= 1.52D-13 BMatP= 5.57D-13
 IDIUse=1 WtCom= 1.00D+00 WtEn= 0.00D+00
 Coeff-Com: -0.643D-06 0.854D-06-0.604D-06-0.655D-06-0.139D-05-0.544D-05
 Coeff-Com: -0.623D-05 0.356D-04 0.856D-04 0.139D-03-0.146D-02-0.114D-02
 Coeff-Com:  0.122D-01 0.607D-02-0.578D-01-0.178D+00 0.229D+00 0.990D+00
 Coeff:     -0.643D-06 0.854D-06-0.604D-06-0.655D-06-0.139D-05-0.544D-05
 Coeff:     -0.623D-05 0.356D-04 0.856D-04 0.139D-03-0.146D-02-0.114D-02
 Coeff:      0.122D-01 0.607D-02-0.578D-01-0.178D+00 0.229D+00 0.990D+00
 Gap=     0.247 Goal=   None    Shift=    0.000
 RMSDP=3.27D-08 MaxDP=3.63D-06 DE=-2.00D-11 OVMax= 8.95D-07

 Cycle  19  Pass 1  IDiag  1:
 RMSU=  1.01D-08    CP:  5.14D-01  2.41D+00  1.97D+00  7.23D-01  5.45D-01
                    CP:  9.21D-01  1.22D+00  1.82D+00  1.62D+00  1.57D+00
                    CP:  1.75D+00  1.71D+00  1.84D+00  1.61D+00  1.85D+00
                    CP:  1.51D+00  1.84D+00  1.41D+00
 E= -3010.53470228441     Delta-E=        0.000000000025 Rises=F Damp=F
 DIIS: error= 7.08D-09 at cycle  19 NSaved=  19.
 NSaved=19 IEnMin=18 EnMin= -3010.53470228443     IErMin=19 ErrMin= 7.08D-09
 ErrMax= 7.08D-09  0.00D+00 EMaxC= 1.00D-01 BMatC= 1.82D-14 BMatP= 1.52D-13
 IDIUse=1 WtCom= 1.00D+00 WtEn= 0.00D+00
 Coeff-Com: -0.608D-07 0.836D-07-0.157D-06-0.416D-06 0.369D-06-0.160D-05
 Coeff-Com: -0.194D-04-0.437D-04 0.148D-03 0.354D-03-0.978D-03-0.119D-02
 Coeff-Com:  0.247D-02 0.644D-02 0.587D-02-0.698D-01-0.693D-01 0.526D-01
 Coeff-Com:  0.107D+01
 Coeff:     -0.608D-07 0.836D-07-0.157D-06-0.416D-06 0.369D-06-0.160D-05
 Coeff:     -0.194D-04-0.437D-04 0.148D-03 0.354D-03-0.978D-03-0.119D-02
 Coeff:      0.247D-02 0.644D-02 0.587D-02-0.698D-01-0.693D-01 0.526D-01
 Coeff:      0.107D+01
 Gap=     0.247 Goal=   None    Shift=    0.000
 RMSDP=1.98D-08 MaxDP=1.41D-06 DE= 2.46D-11 OVMax= 4.19D-07

 Cycle  20  Pass 1  IDiag  1:
 RMSU=  3.23D-09    CP:  5.14D-01  2.41D+00  1.97D+00  7.23D-01  5.45D-01
                    CP:  9.21D-01  1.22D+00  1.82D+00  1.62D+00  1.57D+00
                    CP:  1.75D+00  1.70D+00  1.84D+00  1.61D+00  1.84D+00
                    CP:  1.52D+00  2.01D+00  1.80D+00  1.64D+00
 E= -3010.53470228440     Delta-E=        0.000000000007 Rises=F Damp=F
 DIIS: error= 4.62D-09 at cycle  20 NSaved=  20.
 NSaved=20 IEnMin=18 EnMin= -3010.53470228443     IErMin=20 ErrMin= 4.62D-09
 ErrMax= 4.62D-09  0.00D+00 EMaxC= 1.00D-01 BMatC= 7.07D-15 BMatP= 1.82D-14
 IDIUse=1 WtCom= 1.00D+00 WtEn= 0.00D+00
 Coeff-Com:  0.631D-07-0.829D-07 0.813D-07 0.129D-06 0.715D-06 0.108D-05
 Coeff-Com: -0.249D-05-0.249D-04 0.254D-04 0.908D-04 0.537D-04 0.261D-04
 Coeff-Com: -0.311D-02 0.644D-04 0.213D-01 0.268D-01-0.818D-01-0.313D+00
 Coeff-Com:  0.419D+00 0.931D+00
 Coeff:      0.631D-07-0.829D-07 0.813D-07 0.129D-06 0.715D-06 0.108D-05
 Coeff:     -0.249D-05-0.249D-04 0.254D-04 0.908D-04 0.537D-04 0.261D-04
 Coeff:     -0.311D-02 0.644D-04 0.213D-01 0.268D-01-0.818D-01-0.313D+00
 Coeff:      0.419D+00 0.931D+00
 Gap=     0.247 Goal=   None    Shift=    0.000
 RMSDP=1.52D-08 MaxDP=1.47D-06 DE= 7.28D-12 OVMax= 2.25D-07

 Cycle  21  Pass 1  IDiag  1:
 Restarting incremental Fock formation.
 E= -3010.53470228437     Delta-E=        0.000000000028 Rises=F Damp=F
 DIIS: error= 1.27D-09 at cycle  21 NSaved=  20.
 NSaved=20 IEnMin=17 EnMin= -3010.53470228443     IErMin=20 ErrMin= 1.27D-09
 ErrMax= 1.27D-09  0.00D+00 EMaxC= 1.00D-01 BMatC= 4.98D-16 BMatP= 7.07D-15
 IDIUse=1 WtCom= 1.00D+00 WtEn= 0.00D+00
 Large coefficients: NSaved= 20 BigCof=    0.00 CofMax=   10.00 Det=-1.53D-15
 Inversion failed.  Reducing to 19 matrices.
 Large coefficients: NSaved= 19 BigCof=    0.00 CofMax=   10.00 Det=-1.63D-15
 Inversion failed.  Reducing to 18 matrices.
 Large coefficients: NSaved= 18 BigCof=    0.00 CofMax=   10.00 Det=-1.66D-15
 Inversion failed.  Reducing to 17 matrices.
 Large coefficients: NSaved= 17 BigCof=    0.00 CofMax=   10.00 Det=-1.78D-15
 Inversion failed.  Reducing to 16 matrices.
 Large coefficients: NSaved= 16 BigCof=    0.00 CofMax=   10.00 Det=-1.83D-15
 Inversion failed.  Reducing to 15 matrices.
 Coeff-Com:  0.133D-05 0.156D-05-0.819D-05-0.151D-04 0.537D-05 0.802D-04
 Coeff-Com: -0.125D-03-0.236D-03 0.812D-03 0.454D-02 0.330D-02-0.237D-01
 Coeff-Com: -0.639D-01 0.455D-01 0.103D+01
 Coeff:      0.133D-05 0.156D-05-0.819D-05-0.151D-04 0.537D-05 0.802D-04
 Coeff:     -0.125D-03-0.236D-03 0.812D-03 0.454D-02 0.330D-02-0.237D-01
 Coeff:     -0.639D-01 0.455D-01 0.103D+01
 Gap=     0.247 Goal=   None    Shift=    0.000
 RMSDP=4.66D-09 MaxDP=4.55D-07 DE= 2.82D-11 OVMax= 4.19D-08

 SCF Done:  E(RwB97XD) =  -3010.53470228     A.U. after   21 cycles
            NFock= 21  Conv=0.47D-08     -V/T= 2.0016
 KE= 3.005865378770D+03 PE=-8.701274156342D+03 EE= 1.910686561785D+03
 Leave Link  502 at Thu May  2 14:20:05 2024, MaxMem=   134217728 cpu:            1283.0 elap:            1283.3
 (Enter /software/gaussian/g16-c01/sse4/g16/l601.exe)
 Copying SCF densities to generalized density rwf, IOpCl= 0 IROHF=0.

 **********************************************************************

            Population analysis using the SCF Density.

 **********************************************************************

 Alpha  occ. eigenvalues -- -483.32743 -62.87783 -56.67454 -56.66913 -56.66909
 Alpha  occ. eigenvalues --  -19.46418 -19.46213 -14.85732 -10.59480 -10.59425
 Alpha  occ. eigenvalues --  -10.58035 -10.57075 -10.53200 -10.53159  -9.03603
 Alpha  occ. eigenvalues --   -6.86221  -6.84439  -6.84428  -2.96140  -2.95665
 Alpha  occ. eigenvalues --   -2.95655  -2.94229  -2.94228  -1.49995  -1.32952
 Alpha  occ. eigenvalues --   -1.23027  -1.13494  -1.12928  -1.05775  -1.00830
 Alpha  occ. eigenvalues --   -0.95856  -0.90936  -0.85301  -0.81162  -0.80600
 Alpha  occ. eigenvalues --   -0.80207  -0.78389  -0.76300  -0.76007  -0.72666
 Alpha  occ. eigenvalues --   -0.68924  -0.67727  -0.63837  -0.60801  -0.58247
 Alpha  occ. eigenvalues --   -0.57593  -0.56989  -0.55969  -0.55416
 Alpha virt. eigenvalues --   -0.30730  -0.20524  -0.16913  -0.13578  -0.12091
 Alpha virt. eigenvalues --   -0.08599  -0.07988  -0.06447  -0.04874  -0.04005
 Alpha virt. eigenvalues --   -0.03666  -0.03122  -0.02642  -0.02215  -0.01294
 Alpha virt. eigenvalues --   -0.00092   0.00890   0.01690   0.02403   0.02998
 Alpha virt. eigenvalues --    0.03496   0.04706   0.05037   0.05997   0.06307
 Alpha virt. eigenvalues --    0.06776   0.07467   0.08568   0.08965   0.09243
 Alpha virt. eigenvalues --    0.10412   0.11156   0.11362   0.11630   0.12747
 Alpha virt. eigenvalues --    0.13305   0.13361   0.14236   0.14503   0.16104
 Alpha virt. eigenvalues --    0.16543   0.18034   0.18275   0.18697   0.19169
 Alpha virt. eigenvalues --    0.20686   0.21829   0.22110   0.22893   0.24304
 Alpha virt. eigenvalues --    0.25126   0.26299   0.27175   0.28651   0.29744
 Alpha virt. eigenvalues --    0.30436   0.32905   0.33172   0.34813   0.36244
 Alpha virt. eigenvalues --    0.37147   0.37344   0.39378   0.40673   0.41031
 Alpha virt. eigenvalues --    0.43157   0.44080   0.45717   0.46691   0.47566
 Alpha virt. eigenvalues --    0.48265   0.49602   0.50377   0.51392   0.53811
 Alpha virt. eigenvalues --    0.54414   0.54795   0.57374   0.58485   0.59863
 Alpha virt. eigenvalues --    0.61346   0.61918   0.63563   0.65960   0.68129
 Alpha virt. eigenvalues --    0.71342   0.71650   0.72797   0.73280   0.74464
 Alpha virt. eigenvalues --    0.75085   0.78108   0.80057   0.82004   0.85070
 Alpha virt. eigenvalues --    0.86770   0.87395   0.91461   0.93924   0.98879
 Alpha virt. eigenvalues --    1.00016   1.02191   1.03855   1.05313   1.06805
 Alpha virt. eigenvalues --    1.07945   1.12564   1.13385   1.14213   1.18158
 Alpha virt. eigenvalues --    1.20366   1.22730   1.27982   1.32900   1.36109
 Alpha virt. eigenvalues --    1.36558   1.38679   1.42510   1.54334   1.56326
 Alpha virt. eigenvalues --    1.57325   1.59678   1.60897   1.63737   1.65302
 Alpha virt. eigenvalues --    1.67947   1.71204   1.73849   1.74936   1.79198
 Alpha virt. eigenvalues --    1.83304   1.85299   1.87604   1.93270   1.95030
 Alpha virt. eigenvalues --    1.97517   2.01660   2.02798   2.06831   2.08214
 Alpha virt. eigenvalues --    2.12242   2.14339   2.22137   2.23518   2.27647
 Alpha virt. eigenvalues --    2.33489   2.39303   2.41512   2.43996   2.53061
 Alpha virt. eigenvalues --    2.57553   2.63007   2.65910   2.68646   2.71619
 Alpha virt. eigenvalues --    2.73671   2.76261   2.77251   2.80480   2.81591
 Alpha virt. eigenvalues --    2.92747   2.97735   3.01182   3.05041   3.08810
 Alpha virt. eigenvalues --    3.14785   3.16253   3.17402   3.22341   3.26596
 Alpha virt. eigenvalues --    3.28079   3.37780   3.46581   3.50011   3.54695
 Alpha virt. eigenvalues --    3.57289   3.68819   3.74162   3.83352   3.87065
 Alpha virt. eigenvalues --    4.08349   4.09184   4.17919   4.21973   4.41853
 Alpha virt. eigenvalues --    4.45048   4.54281   4.59804   4.93588   4.96257
 Alpha virt. eigenvalues --    5.05391   5.09472   5.61931   6.15107   6.66362
 Alpha virt. eigenvalues --    7.47201   7.49538   7.59692  23.21882  23.61077
 Alpha virt. eigenvalues --   23.70767  23.77832  23.95383  24.02214  35.31430
 Alpha virt. eigenvalues --   47.92552  49.85148  49.93808 289.80214 289.82556
 Alpha virt. eigenvalues --  289.951921020.93764
          Condensed to atoms (all electrons):
               1          2          3          4          5          6
     1  C    7.503785  -1.722134   0.554505  -0.012630   0.294596   0.047168
     2  C   -1.722134  16.716144  -3.268647   0.406926  -0.010273   0.216814
     3  C    0.554505  -3.268647  20.075695  -1.318074   0.020999   0.088377
     4  C   -0.012630   0.406926  -1.318074   6.378605   0.015178  -0.011643
     5  H    0.294596  -0.010273   0.020999   0.015178   0.292697  -0.001096
     6  H    0.047168   0.216814   0.088377  -0.011643  -0.001096   0.279534
     7  H    0.040223  -0.026330   0.021950   0.305400  -0.002347   0.000003
     8  N   -0.088599  -0.199584  -1.978926   0.037071  -0.000287  -0.025041
     9  O    0.005862   0.271405   0.016677  -0.024122  -0.000025  -0.002125
    10  O    0.241985  -0.123032  -0.260363  -0.019063  -0.000029   0.018311
    11  C    0.721228  -0.636379   2.225090  -0.264496  -0.019996   0.006720
    12  H   -0.021794   0.021224   0.010584   0.037861   0.000033  -0.000018
    13  C   -1.471749  -5.592345  -9.922551   0.808154   0.022047  -0.006131
    14  H    0.005537  -0.001252   0.020387  -0.004925  -0.000029   0.000059
    15  Br   0.017865  -0.249855  -0.228729  -0.027661   0.000055  -0.000445
               7          8          9         10         11         12
     1  C    0.040223  -0.088599   0.005862   0.241985   0.721228  -0.021794
     2  C   -0.026330  -0.199584   0.271405  -0.123032  -0.636379   0.021224
     3  C    0.021950  -1.978926   0.016677  -0.260363   2.225090   0.010584
     4  C    0.305400   0.037071  -0.024122  -0.019063  -0.264496   0.037861
     5  H   -0.002347  -0.000287  -0.000025  -0.000029  -0.019996   0.000033
     6  H    0.000003  -0.025041  -0.002125   0.018311   0.006720  -0.000018
     7  H    0.335300  -0.000027   0.000007  -0.000001   0.018003  -0.002709
     8  N   -0.000027   7.716120  -0.010728   0.232880  -0.385243   0.000055
     9  O    0.000007  -0.010728   7.991680   0.010428   0.296542   0.000185
    10  O   -0.000001   0.232880   0.010428   7.707410  -0.005704  -0.000033
    11  C    0.018003  -0.385243   0.296542  -0.005704   8.410431   0.285066
    12  H   -0.002709   0.000055   0.000185  -0.000033   0.285066   0.360226
    13  C   -0.022941   1.786857  -0.539395   0.063095  -4.485042  -0.003817
    14  H   -0.000018  -0.024687   0.011414  -0.001330   0.089397  -0.005597
    15  Br  -0.000396   0.176353  -0.057755   0.003821  -0.046590   0.001869
              13         14         15
     1  C   -1.471749   0.005537   0.017865
     2  C   -5.592345  -0.001252  -0.249855
     3  C   -9.922551   0.020387  -0.228729
     4  C    0.808154  -0.004925  -0.027661
     5  H    0.022047  -0.000029   0.000055
     6  H   -0.006131   0.000059  -0.000445
     7  H   -0.022941  -0.000018  -0.000396
     8  N    1.786857  -0.024687   0.176353
     9  O   -0.539395   0.011414  -0.057755
    10  O    0.063095  -0.001330   0.003821
    11  C   -4.485042   0.089397  -0.046590
    12  H   -0.003817  -0.005597   0.001869
    13  C   24.942988   0.230608   0.542827
    14  H    0.230608   0.346940  -0.051481
    15  Br   0.542827  -0.051481  34.815488
 Mulliken charges:
               1
     1  C   -0.115849
     2  C    0.197319
     3  C   -0.056972
     4  C   -0.306581
     5  H    0.388477
     6  H    0.389513
     7  H    0.333883
     8  N   -0.236215
     9  O    0.029951
    10  O    0.131625
    11  C   -0.209026
    12  H    0.316865
    13  C   -0.352606
    14  H    0.384980
    15  Br   0.104635
 Sum of Mulliken charges =   1.00000
 Mulliken charges with hydrogens summed into heavy atoms:
               1
     1  C    0.272628
     2  C    0.586832
     3  C   -0.056972
     4  C    0.027303
     8  N   -0.236215
     9  O    0.029951
    10  O    0.131625
    11  C    0.107839
    13  C    0.032374
    15  Br   0.104635
 Electronic spatial extent (au):  <R**2>=           3948.4405
 Charge=              1.0000 electrons
 Dipole moment (field-independent basis, Debye):
    X=              2.6225    Y=              2.2363    Z=             -0.3289  Tot=              3.4622
 Quadrupole moment (field-independent basis, Debye-Ang):
   XX=            -68.0141   YY=            -52.9183   ZZ=            -63.3389
   XY=              3.5753   XZ=             -1.6413   YZ=              0.7973
 Traceless Quadrupole moment (field-independent basis, Debye-Ang):
   XX=             -6.5903   YY=              8.5055   ZZ=             -1.9152
   XY=              3.5753   XZ=             -1.6413   YZ=              0.7973
 Octapole moment (field-independent basis, Debye-Ang**2):
  XXX=           -512.6469  YYY=            111.2591  ZZZ=             86.3517  XYY=           -140.5072
  XXY=             48.2447  XXZ=             27.4619  XZZ=           -135.3496  YZZ=             22.9284
  YYZ=             30.5959  XYZ=              4.3521
 Hexadecapole moment (field-independent basis, Debye-Ang**3):
 XXXX=          -3441.0241 YYYY=           -725.3505 ZZZZ=           -405.5829 XXXY=            275.1381
 XXXZ=            187.5599 YYYX=            222.6856 YYYZ=           -187.9977 ZZZX=            175.2407
 ZZZY=           -155.4630 XXYY=           -632.7491 XXZZ=           -533.6388 YYZZ=           -183.6315
 XXYZ=            -50.1633 YYXZ=             60.2770 ZZXY=             41.4288
 N-N= 7.741875135030D+02 E-N=-8.701274156445D+03  KE= 3.005865378770D+03
 No NMR shielding tensors so no spin-rotation constants.
 Leave Link  601 at Thu May  2 14:20:12 2024, MaxMem=   134217728 cpu:               7.4 elap:               7.4
 (Enter /software/gaussian/g16-c01/sse4/g16/l9999.exe)
 Unable to Open any file for archive entry.
 1\1\GINC-BHX0010\SP\RwB97XD\6-311+G(d)\C6H5Br1N1O2(1+)\BWEIGHT\02-May-
 2024\0\\#P wB97XD/6-311+G* NoSymm #P Field=Y-107\\TitleMe\\1,1\C,0,0.5
 193,1.233,-0.0319\C,0,1.9445,1.2692,-0.0367\C,0,2.6204,0.0928,-0.025\C
 ,0,-0.196,0.0301,0.001\H,0,-0.0207,2.1742,-0.0434\H,0,2.4828,2.2089,-0
 .0361\H,0,-1.2777,0.0399,0.0117\N,0,4.0921,0.0959,0.0366\O,0,4.6393,-1
 .0217,0.1446\O,0,4.6649,1.1984,-0.0233\C,0,0.4943,-1.1671,0.021\H,0,-0
 .0325,-2.1149,0.0545\C,0,1.9629,-1.2165,-0.0211\H,0,2.4436,-1.9631,0.6
 151\Br,0,2.173,-1.9491,-1.9062\\Version=ES64L-G16RevC.01\HF=-3010.5347
 023\RMSD=4.662e-09\Dipole=-3.2974513,2.1079487,1.1198401\Quadrupole=-4
 .89975,6.3236379,-1.4238879,2.6581803,-1.2202741,0.5927781\PG=C01 [X(C
 6H5Br1N1O2)]\\@
 The archive entry for this job was punched.


 MATERIAL COPIED FROM ONE SCHOLARLY BOOK WITHOUT CREDIT COMPRISES PLAGIARISM.
 MATERIAL COPIED FROM TWO SCHOLARLY BOOKS COMPRISES AN ESSAY.
 MATERIAL COPIED FROM THREE SCHOLARLY BOOKS COMPRISES A DISSERTATION.
 MATERIAL COPIED FROM FOUR SCHOLARLY BOOKS COMPRISES A FIFTH SCHOLARLY BOOK.

                               -- C&EN, 25 FEB 1980
 Job cpu time:       0 days  0 hours 22 minutes 33.8 seconds.
 Elapsed time:       0 days  0 hours 22 minutes 34.1 seconds.
 File lengths (MBytes):  RWF=     40 Int=      0 D2E=      0 Chk=     32 Scr=      1
 Normal termination of Gaussian 16 at Thu May  2 14:20:13 2024.
