 Entering Gaussian System, Link 0=g16
 Initial command:
 /software/gaussian/g16-c01/sse4/g16/l1.exe "/local_scratch/24657590/Gau-26553.inp" -scrdir="/local_scratch/24657590/"
 Entering Link 1 = /software/gaussian/g16-c01/sse4/g16/l1.exe PID=     26554.
  
 Copyright (c) 1988-2019, Gaussian, Inc.  All Rights Reserved.
  
 This is part of the Gaussian(R) 16 program.  It is based on
 the Gaussian(R) 09 system (copyright 2009, Gaussian, Inc.),
 the Gaussian(R) 03 system (copyright 2003, Gaussian, Inc.),
 the Gaussian(R) 98 system (copyright 1998, Gaussian, Inc.),
 the Gaussian(R) 94 system (copyright 1995, Gaussian, Inc.),
 the Gaussian 92(TM) system (copyright 1992, Gaussian, Inc.),
 the Gaussian 90(TM) system (copyright 1990, Gaussian, Inc.),
 the Gaussian 88(TM) system (copyright 1988, Gaussian, Inc.),
 the Gaussian 86(TM) system (copyright 1986, Carnegie Mellon
 University), and the Gaussian 82(TM) system (copyright 1983,
 Carnegie Mellon University). Gaussian is a federally registered
 trademark of Gaussian, Inc.
  
 This software contains proprietary and confidential information,
 including trade secrets, belonging to Gaussian, Inc.
  
 This software is provided under written license and may be
 used, copied, transmitted, or stored only in accord with that
 written license.
  
 The following legend is applicable only to US Government
 contracts under FAR:
  
                    RESTRICTED RIGHTS LEGEND
  
 Use, reproduction and disclosure by the US Government is
 subject to restrictions as set forth in subparagraphs (a)
 and (c) of the Commercial Computer Software - Restricted
 Rights clause in FAR 52.227-19.
  
 Gaussian, Inc.
 340 Quinnipiac St., Bldg. 40, Wallingford CT 06492
  
  
 ---------------------------------------------------------------
 Warning -- This program may not be used in any manner that
 competes with the business of Gaussian, Inc. or will provide
 assistance to any competitor of Gaussian, Inc.  The licensee
 of this program is prohibited from giving any competitor of
 Gaussian, Inc. access to this program.  By using this program,
 the user acknowledges that Gaussian, Inc. is engaged in the
 business of creating and licensing software in the field of
 computational chemistry and represents and warrants to the
 licensee that it is not a competitor of Gaussian, Inc. and that
 it will not use this program in any manner prohibited above.
 ---------------------------------------------------------------
  

 Cite this work as:
 Gaussian 16, Revision C.01,
 M. J. Frisch, G. W. Trucks, H. B. Schlegel, G. E. Scuseria, 
 M. A. Robb, J. R. Cheeseman, G. Scalmani, V. Barone, 
 G. A. Petersson, H. Nakatsuji, X. Li, M. Caricato, A. V. Marenich, 
 J. Bloino, B. G. Janesko, R. Gomperts, B. Mennucci, H. P. Hratchian, 
 J. V. Ortiz, A. F. Izmaylov, J. L. Sonnenberg, D. Williams-Young, 
 F. Ding, F. Lipparini, F. Egidi, J. Goings, B. Peng, A. Petrone, 
 T. Henderson, D. Ranasinghe, V. G. Zakrzewski, J. Gao, N. Rega, 
 G. Zheng, W. Liang, M. Hada, M. Ehara, K. Toyota, R. Fukuda, 
 J. Hasegawa, M. Ishida, T. Nakajima, Y. Honda, O. Kitao, H. Nakai, 
 T. Vreven, K. Throssell, J. A. Montgomery, Jr., J. E. Peralta, 
 F. Ogliaro, M. J. Bearpark, J. J. Heyd, E. N. Brothers, K. N. Kudin, 
 V. N. Staroverov, T. A. Keith, R. Kobayashi, J. Normand, 
 K. Raghavachari, A. P. Rendell, J. C. Burant, S. S. Iyengar, 
 J. Tomasi, M. Cossi, J. M. Millam, M. Klene, C. Adamo, R. Cammi, 
 J. W. Ochterski, R. L. Martin, K. Morokuma, O. Farkas, 
 J. B. Foresman, and D. J. Fox, Gaussian, Inc., Wallingford CT, 2019.
 
 ******************************************
 Gaussian 16:  ES64L-G16RevC.01  3-Jul-2019
                 1-May-2024 
 ******************************************
 %chk=geometry.chk
 %mem=9GB
 %nprocshared=12
 Will use up to   12 processors via shared memory.
 ----------------------------------------
 #P wB97XD/6-311+G* NoSymm #P Field=Z+282
 ----------------------------------------
 1/38=1,172=1/1;
 2/12=2,15=1,17=6,18=5,40=1/2;
 3/5=4,6=6,7=11,11=2,14=3,15=282,25=1,30=1,74=-58/1,2,3;
 4//1;
 5/5=2,38=5/2;
 6/7=2,8=2,9=2,10=2,28=1/1;
 99/5=1,9=1/99;
 Leave Link    1 at Wed May  1 15:12:06 2024, MaxMem=  1207959552 cpu:               1.1 elap:               1.1
 (Enter /software/gaussian/g16-c01/sse4/g16/l101.exe)
 -------
 TitleMe
 -------
 Symbolic Z-matrix:
 Charge =  1 Multiplicity = 1
 C                     0.0295    1.3397    0.0682 
 C                     1.4348    1.2867    0.0064 
 C                     2.1118    0.0511   -0.0054 
 C                     1.4451   -1.1372    0.0312 
 C                    -0.6879    0.1682    0.11 
 H                    -0.4713    2.2984    0.0781 
 H                     2.0273    2.1965   -0.0322 
 H                     1.9897   -2.0764    0.0232 
 H                    -1.7716    0.1804    0.1582 
 N                     3.5864    0.051    -0.0675 
 O                     4.1471   -1.0597   -0.0881 
 O                     4.145     1.1639   -0.0901 
 C                    -0.0236   -1.1458    0.0835 
 H                    -0.4367   -1.8725    0.7889 
 Br                   -0.5359   -1.8697   -1.7408 
 
 ITRead=  0  0  0  0  0  0  0  0  0  0  0  0  0  0  0
 MicOpt= -1 -1 -1 -1 -1 -1 -1 -1 -1 -1 -1 -1 -1 -1 -1
 NAtoms=     15 NQM=       15 NQMF=       0 NMMI=      0 NMMIF=      0
                NMic=       0 NMicF=      0.
                    Isotopes and Nuclear Properties:
 (Nuclear quadrupole moments (NQMom) in fm**2, nuclear magnetic moments (NMagM)
  in nuclear magnetons)

  Atom         1           2           3           4           5           6           7           8           9          10
 IAtWgt=          12          12          12          12          12           1           1           1           1          14
 AtmWgt=  12.0000000  12.0000000  12.0000000  12.0000000  12.0000000   1.0078250   1.0078250   1.0078250   1.0078250  14.0030740
 NucSpn=           0           0           0           0           0           1           1           1           1           2
 AtZEff=  -0.0000000  -0.0000000  -0.0000000  -0.0000000  -0.0000000  -0.0000000  -0.0000000  -0.0000000  -0.0000000  -0.0000000
 NQMom=    0.0000000   0.0000000   0.0000000   0.0000000   0.0000000   0.0000000   0.0000000   0.0000000   0.0000000   2.0440000
 NMagM=    0.0000000   0.0000000   0.0000000   0.0000000   0.0000000   2.7928460   2.7928460   2.7928460   2.7928460   0.4037610
 AtZNuc=   6.0000000   6.0000000   6.0000000   6.0000000   6.0000000   1.0000000   1.0000000   1.0000000   1.0000000   7.0000000

  Atom        11          12          13          14          15
 IAtWgt=          16          16          12           1          79
 AtmWgt=  15.9949146  15.9949146  12.0000000   1.0078250  78.9183361
 NucSpn=           0           0           0           1           3
 AtZEff=  -0.0000000  -0.0000000  -0.0000000  -0.0000000  -0.0000000
 NQMom=    0.0000000   0.0000000   0.0000000   0.0000000  31.3000000
 NMagM=    0.0000000   0.0000000   0.0000000   2.7928460   2.1063990
 AtZNuc=   8.0000000   8.0000000   6.0000000   1.0000000  35.0000000
 Leave Link  101 at Wed May  1 15:12:07 2024, MaxMem=  1207959552 cpu:               1.6 elap:               1.6
 (Enter /software/gaussian/g16-c01/sse4/g16/l202.exe)
                          Input orientation:                          
 ---------------------------------------------------------------------
 Center     Atomic      Atomic             Coordinates (Angstroms)
 Number     Number       Type             X           Y           Z
 ---------------------------------------------------------------------
      1          6           0        0.029500    1.339700    0.068200
      2          6           0        1.434800    1.286700    0.006400
      3          6           0        2.111800    0.051100   -0.005400
      4          6           0        1.445100   -1.137200    0.031200
      5          6           0       -0.687900    0.168200    0.110000
      6          1           0       -0.471300    2.298400    0.078100
      7          1           0        2.027300    2.196500   -0.032200
      8          1           0        1.989700   -2.076400    0.023200
      9          1           0       -1.771600    0.180400    0.158200
     10          7           0        3.586400    0.051000   -0.067500
     11          8           0        4.147100   -1.059700   -0.088100
     12          8           0        4.145000    1.163900   -0.090100
     13          6           0       -0.023600   -1.145800    0.083500
     14          1           0       -0.436700   -1.872500    0.788900
     15         35           0       -0.535900   -1.869700   -1.740800
 ---------------------------------------------------------------------
                    Distance matrix (angstroms):
                    1          2          3          4          5
     1  C    0.000000
     2  C    1.407656   0.000000
     3  C    2.449874   1.408963   0.000000
     4  C    2.853126   2.424049   1.363043   0.000000
     5  C    1.374344   2.401589   2.804523   2.501993   0.000000
     6  H    1.081667   2.159142   3.424870   3.934226   2.141421
     7  H    2.176095   1.086408   2.147231   3.384750   3.392128
     8  H    3.938800   3.408612   2.131193   1.085702   3.495040
     9  H    2.143837   3.395283   3.888995   3.478413   1.084840
    10  N    3.785591   2.482297   1.475907   2.450862   4.279589
    11  O    4.768247   3.587631   2.320164   2.705743   4.992415
    12  O    4.122294   2.714696   2.319353   3.549540   4.938459
    13  C    2.486114   2.837240   2.449573   1.469656   1.472614
    14  H    3.324903   3.754379   3.290289   2.157764   2.165286
    15  Br   3.727252   4.110867   3.702891   2.756973   2.757100
                    6          7          8          9         10
     6  H    0.000000
     7  H    2.503108   0.000000
     8  H    5.019802   4.273425   0.000000
     9  H    2.486588   4.304945   4.388479   0.000000
    10  N    4.640790   2.652397   2.661486   5.364313   0.000000
    11  O    5.712624   3.885809   2.387560   6.052233   1.244373
    12  O    4.756638   2.356750   3.893289   6.002923   1.245428
    13  C    3.473180   3.923079   2.218790   2.195425   3.806210
    14  H    4.231175   4.827242   2.552506   2.528663   4.540772
    15  Br   4.548146   5.101303   3.087568   3.055498   4.845862
                   11         12         13         14         15
    11  O    0.000000
    12  O    2.223602   0.000000
    13  C    4.175117   4.768865   0.000000
    14  H    4.737193   5.566358   1.093770   0.000000
    15  Br   5.031700   5.817075   2.028436   2.531646   0.000000
 Symmetry turned off by external request.
 Stoichiometry    C6H5BrNO2(1+)
 Framework group  C1[X(C6H5BrNO2)]
 Deg. of freedom    39
 Full point group                 C1      NOp   1
 Rotational constants (GHZ):           1.8252210           0.5518633           0.4576002
 Leave Link  202 at Wed May  1 15:12:08 2024, MaxMem=  1207959552 cpu:               1.2 elap:               1.2
 (Enter /software/gaussian/g16-c01/sse4/g16/l301.exe)
 Standard basis: 6-311+G(d) (5D, 7F)
 Ernie: Thresh=  0.10000D-02 Tol=  0.10000D-05 Strict=F.
 The following finite field(s) will be applied:
 An electric field of              0.0000  0.0000  0.0282
   261 basis functions,   443 primitive gaussians,   273 cartesian basis functions
    49 alpha electrons       49 beta electrons
       nuclear repulsion energy       739.2122215416 Hartrees.
 IExCor= 4639 DFT=T Ex+Corr=wB97XD ExCW=0 ScaHFX=  1.000000
 ScaDFX=  1.000000  1.000000  1.000000  1.000000 ScalE2=  1.000000  1.000000
 IRadAn=      5 IRanWt=     -1 IRanGd=            0 ICorTp=0 IEmpDi=121
 HFx  wShort=  0.000000 wLong=  0.200000 cFull=  0.222036 cShort=  0.000000 cLong=  0.777964
 DFx  wShort=  0.000000 wLong=  0.200000 cFull=  0.000000 cShort=  0.000000 cLong=  1.000000
 NAtoms=   15 NActive=   15 NUniq=   15 SFac= 1.00D+00 NAtFMM=   60 NAOKFM=F Big=F
 Integral buffers will be    131072 words long.
 Raffenetti 2 integral format.
 Two-electron integral symmetry is turned off.
 R6Disp:  Grimme-D2 Dispersion energy=       -0.0077368520 Hartrees.
 Nuclear repulsion after empirical dispersion term =      739.2044846896 Hartrees.
 Leave Link  301 at Wed May  1 15:12:09 2024, MaxMem=  1207959552 cpu:               1.1 elap:               1.1
 (Enter /software/gaussian/g16-c01/sse4/g16/l302.exe)
 NPDir=0 NMtPBC=     1 NCelOv=     1 NCel=       1 NClECP=     1 NCelD=      1
         NCelK=      1 NCelE2=     1 NClLst=     1 CellRange=     0.0.
 One-electron integrals computed using PRISM.
 NBasis=   261 RedAO= T EigKep=  2.35D-06  NBF=   261
 NBsUse=   261 1.00D-06 EigRej= -1.00D+00 NBFU=   261
 Precomputing XC quadrature grid using
 IXCGrd= 4 IRadAn=           5 IRanWt=          -1 IRanGd=           0 AccXCQ= 0.00D+00.
 Generated NRdTot=       0 NPtTot=           0 NUsed=           0 NTot=          32
 NSgBfM=   273   273   273   273   273 MxSgAt=    15 MxSgA2=    15.
 Leave Link  302 at Wed May  1 15:12:31 2024, MaxMem=  1207959552 cpu:              21.7 elap:              21.7
 (Enter /software/gaussian/g16-c01/sse4/g16/l303.exe)
 DipDrv:  MaxL=1.
 The nuclear repulsion energy is now       736.0045900889 hartrees.
 Leave Link  303 at Wed May  1 15:12:34 2024, MaxMem=  1207959552 cpu:               3.1 elap:               3.1
 (Enter /software/gaussian/g16-c01/sse4/g16/l401.exe)
 ExpMin= 3.50D-02 ExpMax= 4.40D+05 ExpMxC= 1.51D+04 IAcc=3 IRadAn=         5 AccDes= 0.00D+00
 Harris functional with IExCor= 4639 and IRadAn=       5 diagonalized for initial guess.
 HarFok:  IExCor= 4639 AccDes= 0.00D+00 IRadAn=         5 IDoV= 1 UseB2=F ITyADJ=14
 ICtDFT=  3500011 ScaDFX=  1.000000  1.000000  1.000000  1.000000
 FoFCou: FMM=F IPFlag=           0 FMFlag=      100000 FMFlg1=           0
         NFxFlg=           0 DoJE=T BraDBF=F KetDBF=T FulRan=T
         wScrn=  0.000000 ICntrl=       500 IOpCl=  0 I1Cent=   200000004 NGrid=           0
         NMat0=    1 NMatS0=      1 NMatT0=    0 NMatD0=    1 NMtDS0=    0 NMtDT0=    0
 Symmetry not used in FoFCou.
 Harris En= -2970.65822769390    
 JPrj=0 DoOrth=F DoCkMO=F.
 Leave Link  401 at Wed May  1 15:13:05 2024, MaxMem=  1207959552 cpu:              30.7 elap:              30.7
 (Enter /software/gaussian/g16-c01/sse4/g16/l502.exe)
 Two-electron integral symmetry not used.
 Closed shell SCF:
 Using DIIS extrapolation, IDIIS=  1040.
 NGot=  1207959552 LenX=  1207804877 LenY=  1207729907
 Requested convergence on RMS density matrix=1.00D-08 within 128 cycles.
 Requested convergence on MAX density matrix=1.00D-06.
 Requested convergence on             energy=1.00D-06.
 No special actions if energy rises.
 Fock matrices will be formed incrementally for  20 cycles.

 Cycle   1  Pass 1  IDiag  1:
 FoFJK:  IHMeth= 1 ICntrl=       0 DoSepK=T KAlg= 0 I1Cent=           0 FoldK=F
 IRaf=         1 NMat=       1 IRICut=       1 DoRegI=T DoRafI=F ISym2E= 0 IDoP0=0 IntGTp=1.
 FoFCou: FMM=F IPFlag=           0 FMFlag=      100000 FMFlg1=           0
         NFxFlg=           0 DoJE=T BraDBF=F KetDBF=F FulRan=T
         wScrn=  0.000000 ICntrl=       500 IOpCl=  0 I1Cent=           0 NGrid=           0
         NMat0=    1 NMatS0=      1 NMatT0=    0 NMatD0=    1 NMtDS0=    0 NMtDT0=    0
 Symmetry not used in FoFCou.
 E= -3009.59294645485    
 DIIS: error= 3.22D-01 at cycle   1 NSaved=   1.
 NSaved= 1 IEnMin= 1 EnMin= -3009.59294645485     IErMin= 1 ErrMin= 3.22D-01
 ErrMax= 3.22D-01  0.00D+00 EMaxC= 1.00D-01 BMatC= 1.22D+01 BMatP= 1.22D+01
 IDIUse=3 WtCom= 0.00D+00 WtEn= 1.00D+00
 Coeff-Com:  0.100D+01
 Coeff-En:   0.100D+01
 Coeff:      0.100D+01
 Gap=     0.382 Goal=   None    Shift=    0.000
 GapD=    0.382 DampG=1.000 DampE=0.250 DampFc=0.2500 IDamp=-1.
 Damping current iteration by 2.50D-01
 RMSDP=2.81D-01 MaxDP=3.87D+01              OVMax= 2.86D-01

 Cycle   2  Pass 1  IDiag  1:
 RMSU=  8.32D-03    CP:  7.94D-01
 E= -3009.93690306529     Delta-E=       -0.343956610446 Rises=F Damp=T
 DIIS: error= 2.25D-01 at cycle   2 NSaved=   2.
 NSaved= 2 IEnMin= 2 EnMin= -3009.93690306529     IErMin= 2 ErrMin= 2.25D-01
 ErrMax= 2.25D-01  0.00D+00 EMaxC= 1.00D-01 BMatC= 5.47D+00 BMatP= 1.22D+01
 IDIUse=3 WtCom= 0.00D+00 WtEn= 1.00D+00
 Coeff-Com: -0.176D+01 0.276D+01
 Coeff-En:   0.000D+00 0.100D+01
 Coeff:      0.000D+00 0.100D+01
 Gap=     0.262 Goal=   None    Shift=    0.000
 RMSDP=2.11D-01 MaxDP=2.90D+01 DE=-3.44D-01 OVMax= 7.56D-02

 Cycle   3  Pass 1  IDiag  1:
 RMSU=  7.34D-03    CP:  1.74D-01  3.00D+00
 E= -3010.36022544356     Delta-E=       -0.423322378268 Rises=F Damp=F
 DIIS: error= 6.76D-02 at cycle   3 NSaved=   3.
 NSaved= 3 IEnMin= 3 EnMin= -3010.36022544356     IErMin= 3 ErrMin= 6.76D-02
 ErrMax= 6.76D-02  0.00D+00 EMaxC= 1.00D-01 BMatC= 8.30D-01 BMatP= 5.47D+00
 IDIUse=3 WtCom= 3.24D-01 WtEn= 6.76D-01
 Coeff-Com:  0.250D+01-0.328D+01 0.178D+01
 Coeff-En:   0.793D-01 0.000D+00 0.921D+00
 Coeff:      0.863D+00-0.106D+01 0.120D+01
 Gap=     0.310 Goal=   None    Shift=    0.000
 RMSDP=1.07D-02 MaxDP=8.51D-01 DE=-4.23D-01 OVMax= 1.45D-01

 Cycle   4  Pass 1  IDiag  1:
 RMSU=  8.35D-03    CP:  1.91D-01  3.00D+00  1.47D+00
 E= -3010.50823107453     Delta-E=       -0.148005630964 Rises=F Damp=F
 DIIS: error= 3.59D-02 at cycle   4 NSaved=   4.
 NSaved= 4 IEnMin= 4 EnMin= -3010.50823107453     IErMin= 4 ErrMin= 3.59D-02
 ErrMax= 3.59D-02  0.00D+00 EMaxC= 1.00D-01 BMatC= 2.18D-01 BMatP= 8.30D-01
 IDIUse=3 WtCom= 6.41D-01 WtEn= 3.59D-01
 Coeff-Com: -0.367D+00 0.502D+00 0.147D+00 0.717D+00
 Coeff-En:   0.000D+00 0.000D+00 0.170D+00 0.830D+00
 Coeff:     -0.235D+00 0.322D+00 0.155D+00 0.758D+00
 Gap=     0.248 Goal=   None    Shift=    0.000
 RMSDP=9.94D-03 MaxDP=1.42D+00 DE=-1.48D-01 OVMax= 7.03D-02

 Cycle   5  Pass 1  IDiag  1:
 RMSU=  2.79D-03    CP:  1.64D-01  3.00D+00  1.36D+00  6.77D-01
 E= -3010.55974126299     Delta-E=       -0.051510188469 Rises=F Damp=F
 DIIS: error= 7.04D-03 at cycle   5 NSaved=   5.
 NSaved= 5 IEnMin= 5 EnMin= -3010.55974126299     IErMin= 5 ErrMin= 7.04D-03
 ErrMax= 7.04D-03  0.00D+00 EMaxC= 1.00D-01 BMatC= 9.10D-03 BMatP= 2.18D-01
 IDIUse=3 WtCom= 9.30D-01 WtEn= 7.04D-02
 Coeff-Com: -0.221D+00 0.299D+00 0.110D-01 0.390D+00 0.521D+00
 Coeff-En:   0.000D+00 0.000D+00 0.000D+00 0.000D+00 0.100D+01
 Coeff:     -0.205D+00 0.278D+00 0.102D-01 0.362D+00 0.555D+00
 Gap=     0.230 Goal=   None    Shift=    0.000
 RMSDP=9.83D-04 MaxDP=5.97D-02 DE=-5.15D-02 OVMax= 1.76D-02

 Cycle   6  Pass 1  IDiag  1:
 RMSU=  6.26D-04    CP:  1.63D-01  3.00D+00  1.39D+00  7.43D-01  9.22D-01
 E= -3010.56242964255     Delta-E=       -0.002688379553 Rises=F Damp=F
 DIIS: error= 1.55D-03 at cycle   6 NSaved=   6.
 NSaved= 6 IEnMin= 6 EnMin= -3010.56242964255     IErMin= 6 ErrMin= 1.55D-03
 ErrMax= 1.55D-03  0.00D+00 EMaxC= 1.00D-01 BMatC= 2.40D-04 BMatP= 9.10D-03
 IDIUse=3 WtCom= 9.85D-01 WtEn= 1.55D-02
 Coeff-Com: -0.117D+00 0.157D+00-0.167D-01 0.170D+00 0.319D+00 0.487D+00
 Coeff-En:   0.000D+00 0.000D+00 0.000D+00 0.000D+00 0.000D+00 0.100D+01
 Coeff:     -0.115D+00 0.155D+00-0.165D-01 0.168D+00 0.314D+00 0.495D+00
 Gap=     0.231 Goal=   None    Shift=    0.000
 RMSDP=5.10D-04 MaxDP=6.83D-02 DE=-2.69D-03 OVMax= 8.38D-03

 Cycle   7  Pass 1  IDiag  1:
 RMSU=  2.34D-04    CP:  1.62D-01  3.00D+00  1.39D+00  7.34D-01  1.00D+00
                    CP:  1.02D+00
 E= -3010.56270604413     Delta-E=       -0.000276401580 Rises=F Damp=F
 DIIS: error= 5.40D-04 at cycle   7 NSaved=   7.
 NSaved= 7 IEnMin= 7 EnMin= -3010.56270604413     IErMin= 7 ErrMin= 5.40D-04
 ErrMax= 5.40D-04  0.00D+00 EMaxC= 1.00D-01 BMatC= 4.87D-05 BMatP= 2.40D-04
 IDIUse=3 WtCom= 9.95D-01 WtEn= 5.40D-03
 Coeff-Com: -0.251D-01 0.331D-01-0.188D-01 0.497D-02 0.329D-01 0.272D+00
 Coeff-Com:  0.701D+00
 Coeff-En:   0.000D+00 0.000D+00 0.000D+00 0.000D+00 0.000D+00 0.000D+00
 Coeff-En:   0.100D+01
 Coeff:     -0.250D-01 0.329D-01-0.187D-01 0.494D-02 0.327D-01 0.270D+00
 Coeff:      0.703D+00
 Gap=     0.232 Goal=   None    Shift=    0.000
 RMSDP=3.43D-04 MaxDP=4.50D-02 DE=-2.76D-04 OVMax= 9.82D-03

 Cycle   8  Pass 1  IDiag  1:
 RMSU=  1.04D-04    CP:  1.61D-01  3.00D+00  1.40D+00  7.37D-01  1.07D+00
                    CP:  1.23D+00  1.31D+00
 E= -3010.56284142517     Delta-E=       -0.000135381044 Rises=F Damp=F
 DIIS: error= 1.94D-04 at cycle   8 NSaved=   8.
 NSaved= 8 IEnMin= 8 EnMin= -3010.56284142517     IErMin= 8 ErrMin= 1.94D-04
 ErrMax= 1.94D-04  0.00D+00 EMaxC= 1.00D-01 BMatC= 1.06D-05 BMatP= 4.87D-05
 IDIUse=3 WtCom= 9.98D-01 WtEn= 1.94D-03
 Coeff-Com:  0.135D-01-0.185D-01-0.483D-02-0.357D-01-0.747D-01-0.625D-01
 Coeff-Com:  0.247D+00 0.936D+00
 Coeff-En:   0.000D+00 0.000D+00 0.000D+00 0.000D+00 0.000D+00 0.000D+00
 Coeff-En:   0.000D+00 0.100D+01
 Coeff:      0.135D-01-0.184D-01-0.482D-02-0.356D-01-0.745D-01-0.624D-01
 Coeff:      0.246D+00 0.936D+00
 Gap=     0.232 Goal=   None    Shift=    0.000
 RMSDP=2.04D-04 MaxDP=1.50D-02 DE=-1.35D-04 OVMax= 9.14D-03

 Cycle   9  Pass 1  IDiag  1:
 RMSU=  5.81D-05    CP:  1.61D-01  3.00D+00  1.41D+00  7.38D-01  1.10D+00
                    CP:  1.41D+00  1.78D+00  1.46D+00
 E= -3010.56291162561     Delta-E=       -0.000070200435 Rises=F Damp=F
 DIIS: error= 9.32D-05 at cycle   9 NSaved=   9.
 NSaved= 9 IEnMin= 9 EnMin= -3010.56291162561     IErMin= 9 ErrMin= 9.32D-05
 ErrMax= 9.32D-05  0.00D+00 EMaxC= 1.00D-01 BMatC= 2.70D-06 BMatP= 1.06D-05
 IDIUse=1 WtCom= 1.00D+00 WtEn= 0.00D+00
 Coeff-Com:  0.601D-02-0.789D-02 0.378D-02-0.696D-02-0.286D-01-0.106D+00
 Coeff-Com: -0.193D+00 0.282D+00 0.105D+01
 Coeff:      0.601D-02-0.789D-02 0.378D-02-0.696D-02-0.286D-01-0.106D+00
 Coeff:     -0.193D+00 0.282D+00 0.105D+01
 Gap=     0.232 Goal=   None    Shift=    0.000
 RMSDP=1.09D-04 MaxDP=5.74D-03 DE=-7.02D-05 OVMax= 7.73D-03

 Cycle  10  Pass 1  IDiag  1:
 RMSU=  4.70D-05    CP:  1.61D-01  3.00D+00  1.40D+00  7.36D-01  1.11D+00
                    CP:  1.49D+00  1.90D+00  1.78D+00  1.85D+00
 E= -3010.56293753918     Delta-E=       -0.000025913570 Rises=F Damp=F
 DIIS: error= 2.82D-05 at cycle  10 NSaved=  10.
 NSaved=10 IEnMin=10 EnMin= -3010.56293753918     IErMin=10 ErrMin= 2.82D-05
 ErrMax= 2.82D-05  0.00D+00 EMaxC= 1.00D-01 BMatC= 4.71D-07 BMatP= 2.70D-06
 IDIUse=1 WtCom= 1.00D+00 WtEn= 0.00D+00
 Coeff-Com: -0.302D-02 0.416D-02 0.952D-03 0.648D-02 0.123D-01 0.616D-02
 Coeff-Com: -0.631D-01-0.126D+00 0.119D+00 0.104D+01
 Coeff:     -0.302D-02 0.416D-02 0.952D-03 0.648D-02 0.123D-01 0.616D-02
 Coeff:     -0.631D-01-0.126D+00 0.119D+00 0.104D+01
 Gap=     0.232 Goal=   None    Shift=    0.000
 RMSDP=1.02D-04 MaxDP=1.41D-02 DE=-2.59D-05 OVMax= 2.91D-03

 Cycle  11  Pass 1  IDiag  1:
 RMSU=  1.40D-05    CP:  1.62D-01  3.00D+00  1.40D+00  7.35D-01  1.10D+00
                    CP:  1.48D+00  1.87D+00  1.88D+00  2.40D+00  1.46D+00
 E= -3010.56294166030     Delta-E=       -0.000004121120 Rises=F Damp=F
 DIIS: error= 1.99D-05 at cycle  11 NSaved=  11.
 NSaved=11 IEnMin=11 EnMin= -3010.56294166030     IErMin=11 ErrMin= 1.99D-05
 ErrMax= 1.99D-05  0.00D+00 EMaxC= 1.00D-01 BMatC= 1.90D-07 BMatP= 4.71D-07
 IDIUse=1 WtCom= 1.00D+00 WtEn= 0.00D+00
 Coeff-Com: -0.158D-02 0.209D-02-0.385D-03 0.384D-02 0.131D-01 0.344D-01
 Coeff-Com:  0.374D-01-0.154D+00-0.291D+00 0.446D+00 0.910D+00
 Coeff:     -0.158D-02 0.209D-02-0.385D-03 0.384D-02 0.131D-01 0.344D-01
 Coeff:      0.374D-01-0.154D+00-0.291D+00 0.446D+00 0.910D+00
 Gap=     0.232 Goal=   None    Shift=    0.000
 RMSDP=4.77D-05 MaxDP=5.75D-03 DE=-4.12D-06 OVMax= 1.91D-03

 Cycle  12  Pass 1  IDiag  1:
 RMSU=  6.90D-06    CP:  1.62D-01  3.00D+00  1.40D+00  7.35D-01  1.10D+00
                    CP:  1.49D+00  1.85D+00  1.90D+00  2.73D+00  1.87D+00
                    CP:  1.22D+00
 E= -3010.56294282527     Delta-E=       -0.000001164976 Rises=F Damp=F
 DIIS: error= 5.66D-06 at cycle  12 NSaved=  12.
 NSaved=12 IEnMin=12 EnMin= -3010.56294282527     IErMin=12 ErrMin= 5.66D-06
 ErrMax= 5.66D-06  0.00D+00 EMaxC= 1.00D-01 BMatC= 2.35D-08 BMatP= 1.90D-07
 IDIUse=1 WtCom= 1.00D+00 WtEn= 0.00D+00
 Coeff-Com: -0.879D-04 0.992D-04-0.196D-03 0.273D-03 0.120D-02 0.745D-02
 Coeff-Com:  0.166D-01-0.323D-01-0.869D-01 0.716D-02 0.277D+00 0.810D+00
 Coeff:     -0.879D-04 0.992D-04-0.196D-03 0.273D-03 0.120D-02 0.745D-02
 Coeff:      0.166D-01-0.323D-01-0.869D-01 0.716D-02 0.277D+00 0.810D+00
 Gap=     0.232 Goal=   None    Shift=    0.000
 RMSDP=7.87D-06 MaxDP=6.27D-04 DE=-1.16D-06 OVMax= 4.19D-04

 Cycle  13  Pass 1  IDiag  1:
 RMSU=  3.50D-06    CP:  1.62D-01  3.00D+00  1.40D+00  7.35D-01  1.10D+00
                    CP:  1.49D+00  1.84D+00  1.92D+00  2.77D+00  1.94D+00
                    CP:  1.56D+00  1.21D+00
 E= -3010.56294290224     Delta-E=       -0.000000076971 Rises=F Damp=F
 DIIS: error= 3.69D-06 at cycle  13 NSaved=  13.
 NSaved=13 IEnMin=13 EnMin= -3010.56294290224     IErMin=13 ErrMin= 3.69D-06
 ErrMax= 3.69D-06  0.00D+00 EMaxC= 1.00D-01 BMatC= 3.21D-09 BMatP= 2.35D-08
 IDIUse=1 WtCom= 1.00D+00 WtEn= 0.00D+00
 Coeff-Com:  0.181D-03-0.241D-03-0.171D-04-0.682D-03-0.246D-02-0.505D-02
 Coeff-Com: -0.294D-02 0.229D-01 0.418D-01-0.101D+00-0.117D+00 0.239D+00
 Coeff-Com:  0.926D+00
 Coeff:      0.181D-03-0.241D-03-0.171D-04-0.682D-03-0.246D-02-0.505D-02
 Coeff:     -0.294D-02 0.229D-01 0.418D-01-0.101D+00-0.117D+00 0.239D+00
 Coeff:      0.926D+00
 Gap=     0.232 Goal=   None    Shift=    0.000
 RMSDP=3.69D-06 MaxDP=2.45D-04 DE=-7.70D-08 OVMax= 1.28D-04

 Cycle  14  Pass 1  IDiag  1:
 RMSU=  1.02D-06    CP:  1.62D-01  3.00D+00  1.40D+00  7.35D-01  1.10D+00
                    CP:  1.49D+00  1.84D+00  1.92D+00  2.77D+00  1.96D+00
                    CP:  1.67D+00  1.47D+00  1.25D+00
 E= -3010.56294291505     Delta-E=       -0.000000012806 Rises=F Damp=F
 DIIS: error= 1.42D-06 at cycle  14 NSaved=  14.
 NSaved=14 IEnMin=14 EnMin= -3010.56294291505     IErMin=14 ErrMin= 1.42D-06
 ErrMax= 1.42D-06  0.00D+00 EMaxC= 1.00D-01 BMatC= 5.18D-10 BMatP= 3.21D-09
 IDIUse=1 WtCom= 1.00D+00 WtEn= 0.00D+00
 Coeff-Com:  0.123D-03-0.163D-03 0.281D-04-0.235D-03-0.539D-03-0.168D-02
 Coeff-Com: -0.228D-02 0.869D-02 0.194D-01-0.270D-01-0.584D-01-0.326D-01
 Coeff-Com:  0.258D+00 0.837D+00
 Coeff:      0.123D-03-0.163D-03 0.281D-04-0.235D-03-0.539D-03-0.168D-02
 Coeff:     -0.228D-02 0.869D-02 0.194D-01-0.270D-01-0.584D-01-0.326D-01
 Coeff:      0.258D+00 0.837D+00
 Gap=     0.232 Goal=   None    Shift=    0.000
 RMSDP=1.50D-06 MaxDP=1.44D-04 DE=-1.28D-08 OVMax= 2.29D-05

 Cycle  15  Pass 1  IDiag  1:
 RMSU=  4.32D-07    CP:  1.62D-01  3.00D+00  1.40D+00  7.35D-01  1.10D+00
                    CP:  1.49D+00  1.84D+00  1.92D+00  2.76D+00  1.96D+00
                    CP:  1.71D+00  1.55D+00  1.45D+00  1.26D+00
 E= -3010.56294291640     Delta-E=       -0.000000001355 Rises=F Damp=F
 DIIS: error= 6.74D-07 at cycle  15 NSaved=  15.
 NSaved=15 IEnMin=15 EnMin= -3010.56294291640     IErMin=15 ErrMin= 6.74D-07
 ErrMax= 6.74D-07  0.00D+00 EMaxC= 1.00D-01 BMatC= 6.33D-11 BMatP= 5.18D-10
 IDIUse=1 WtCom= 1.00D+00 WtEn= 0.00D+00
 Coeff-Com:  0.293D-04-0.389D-04 0.126D-04-0.119D-04 0.968D-04 0.538D-04
 Coeff-Com: -0.434D-03 0.219D-03 0.191D-02 0.302D-02-0.764D-02-0.429D-01
 Coeff-Com: -0.273D-01 0.264D+00 0.809D+00
 Coeff:      0.293D-04-0.389D-04 0.126D-04-0.119D-04 0.968D-04 0.538D-04
 Coeff:     -0.434D-03 0.219D-03 0.191D-02 0.302D-02-0.764D-02-0.429D-01
 Coeff:     -0.273D-01 0.264D+00 0.809D+00
 Gap=     0.232 Goal=   None    Shift=    0.000
 RMSDP=4.21D-07 MaxDP=2.67D-05 DE=-1.36D-09 OVMax= 7.84D-06

 Cycle  16  Pass 1  IDiag  1:
 RMSU=  1.40D-07    CP:  1.62D-01  3.00D+00  1.40D+00  7.35D-01  1.10D+00
                    CP:  1.49D+00  1.84D+00  1.92D+00  2.76D+00  1.97D+00
                    CP:  1.72D+00  1.56D+00  1.51D+00  1.45D+00  1.13D+00
 E= -3010.56294291660     Delta-E=       -0.000000000192 Rises=F Damp=F
 DIIS: error= 2.36D-07 at cycle  16 NSaved=  16.
 NSaved=16 IEnMin=16 EnMin= -3010.56294291660     IErMin=16 ErrMin= 2.36D-07
 ErrMax= 2.36D-07  0.00D+00 EMaxC= 1.00D-01 BMatC= 1.03D-11 BMatP= 6.33D-11
 IDIUse=1 WtCom= 1.00D+00 WtEn= 0.00D+00
 Coeff-Com: -0.543D-05 0.723D-05 0.527D-06 0.257D-04 0.104D-03 0.293D-03
 Coeff-Com:  0.217D-03-0.129D-02-0.230D-02 0.590D-02 0.574D-02-0.111D-01
 Coeff-Com: -0.494D-01-0.443D-01 0.267D+00 0.829D+00
 Coeff:     -0.543D-05 0.723D-05 0.527D-06 0.257D-04 0.104D-03 0.293D-03
 Coeff:      0.217D-03-0.129D-02-0.230D-02 0.590D-02 0.574D-02-0.111D-01
 Coeff:     -0.494D-01-0.443D-01 0.267D+00 0.829D+00
 Gap=     0.232 Goal=   None    Shift=    0.000
 RMSDP=1.87D-07 MaxDP=1.39D-05 DE=-1.92D-10 OVMax= 3.52D-06

 Cycle  17  Pass 1  IDiag  1:
 RMSU=  5.11D-08    CP:  1.62D-01  3.00D+00  1.40D+00  7.35D-01  1.10D+00
                    CP:  1.49D+00  1.84D+00  1.92D+00  2.76D+00  1.97D+00
                    CP:  1.72D+00  1.57D+00  1.53D+00  1.50D+00  1.31D+00
                    CP:  9.99D-01
 E= -3010.56294291661     Delta-E=       -0.000000000018 Rises=F Damp=F
 DIIS: error= 7.94D-08 at cycle  17 NSaved=  17.
 NSaved=17 IEnMin=17 EnMin= -3010.56294291661     IErMin=17 ErrMin= 7.94D-08
 ErrMax= 7.94D-08  0.00D+00 EMaxC= 1.00D-01 BMatC= 1.16D-12 BMatP= 1.03D-11
 IDIUse=1 WtCom= 1.00D+00 WtEn= 0.00D+00
 Coeff-Com: -0.152D-05 0.197D-05-0.619D-06 0.337D-05 0.649D-05 0.584D-04
 Coeff-Com:  0.111D-03-0.268D-03-0.663D-03 0.903D-03 0.185D-02 0.261D-02
 Coeff-Com: -0.532D-02-0.344D-01-0.594D-01 0.187D+00 0.907D+00
 Coeff:     -0.152D-05 0.197D-05-0.619D-06 0.337D-05 0.649D-05 0.584D-04
 Coeff:      0.111D-03-0.268D-03-0.663D-03 0.903D-03 0.185D-02 0.261D-02
 Coeff:     -0.532D-02-0.344D-01-0.594D-01 0.187D+00 0.907D+00
 Gap=     0.232 Goal=   None    Shift=    0.000
 RMSDP=6.94D-08 MaxDP=4.22D-06 DE=-1.82D-11 OVMax= 1.25D-06

 Cycle  18  Pass 1  IDiag  1:
 RMSU=  2.79D-08    CP:  1.62D-01  3.00D+00  1.40D+00  7.35D-01  1.10D+00
                    CP:  1.49D+00  1.84D+00  1.92D+00  2.76D+00  1.97D+00
                    CP:  1.72D+00  1.57D+00  1.54D+00  1.51D+00  1.36D+00
                    CP:  1.11D+00  1.27D+00
 E= -3010.56294291662     Delta-E=       -0.000000000008 Rises=F Damp=F
 DIIS: error= 2.17D-08 at cycle  18 NSaved=  18.
 NSaved=18 IEnMin=18 EnMin= -3010.56294291662     IErMin=18 ErrMin= 2.17D-08
 ErrMax= 2.17D-08  0.00D+00 EMaxC= 1.00D-01 BMatC= 1.40D-13 BMatP= 1.16D-12
 IDIUse=1 WtCom= 1.00D+00 WtEn= 0.00D+00
 Coeff-Com:  0.806D-06-0.109D-05-0.296D-07-0.319D-05-0.152D-04-0.297D-04
 Coeff-Com: -0.373D-05 0.108D-03 0.153D-03-0.585D-03-0.298D-03 0.217D-02
 Coeff-Com:  0.486D-02-0.255D-02-0.537D-01-0.580D-01 0.214D+00 0.894D+00
 Coeff:      0.806D-06-0.109D-05-0.296D-07-0.319D-05-0.152D-04-0.297D-04
 Coeff:     -0.373D-05 0.108D-03 0.153D-03-0.585D-03-0.298D-03 0.217D-02
 Coeff:      0.486D-02-0.255D-02-0.537D-01-0.580D-01 0.214D+00 0.894D+00
 Gap=     0.232 Goal=   None    Shift=    0.000
 RMSDP=2.35D-08 MaxDP=2.85D-06 DE=-8.19D-12 OVMax= 3.59D-07

 Cycle  19  Pass 1  IDiag  1:
 RMSU=  5.69D-09    CP:  1.62D-01  3.00D+00  1.40D+00  7.35D-01  1.10D+00
                    CP:  1.49D+00  1.84D+00  1.92D+00  2.76D+00  1.97D+00
                    CP:  1.72D+00  1.57D+00  1.54D+00  1.51D+00  1.37D+00
                    CP:  1.13D+00  1.43D+00  1.11D+00
 E= -3010.56294291662     Delta-E=        0.000000000004 Rises=F Damp=F
 DIIS: error= 5.98D-09 at cycle  19 NSaved=  19.
 NSaved=19 IEnMin=18 EnMin= -3010.56294291662     IErMin=19 ErrMin= 5.98D-09
 ErrMax= 5.98D-09  0.00D+00 EMaxC= 1.00D-01 BMatC= 1.41D-14 BMatP= 1.40D-13
 IDIUse=1 WtCom= 1.00D+00 WtEn= 0.00D+00
 Coeff-Com:  0.139D-06-0.180D-06 0.156D-07-0.962D-06-0.462D-05-0.138D-04
 Coeff-Com: -0.129D-04 0.553D-04 0.109D-03-0.244D-03-0.245D-03 0.355D-03
 Coeff-Com:  0.156D-02 0.289D-02-0.821D-02-0.288D-01-0.278D-01 0.230D+00
 Coeff-Com:  0.831D+00
 Coeff:      0.139D-06-0.180D-06 0.156D-07-0.962D-06-0.462D-05-0.138D-04
 Coeff:     -0.129D-04 0.553D-04 0.109D-03-0.244D-03-0.245D-03 0.355D-03
 Coeff:      0.156D-02 0.289D-02-0.821D-02-0.288D-01-0.278D-01 0.230D+00
 Coeff:      0.831D+00
 Gap=     0.232 Goal=   None    Shift=    0.000
 RMSDP=9.90D-09 MaxDP=9.81D-07 DE= 3.64D-12 OVMax= 1.50D-07

 SCF Done:  E(RwB97XD) =  -3010.56294292     A.U. after   19 cycles
            NFock= 19  Conv=0.99D-08     -V/T= 2.0016
 KE= 3.005795715652D+03 PE=-8.627843063628D+03 EE= 1.875479814970D+03
 Leave Link  502 at Wed May  1 15:31:23 2024, MaxMem=  1207959552 cpu:            1097.7 elap:            1097.7
 (Enter /software/gaussian/g16-c01/sse4/g16/l601.exe)
 Copying SCF densities to generalized density rwf, IOpCl= 0 IROHF=0.

 **********************************************************************

            Population analysis using the SCF Density.

 **********************************************************************

 Alpha  occ. eigenvalues -- -483.27296 -62.82240 -56.62011 -56.61332 -56.61332
 Alpha  occ. eigenvalues --  -19.44725 -19.44674 -14.84209 -10.56281 -10.55896
 Alpha  occ. eigenvalues --  -10.55829 -10.55575 -10.55438 -10.51785  -8.97989
 Alpha  occ. eigenvalues --   -6.80868  -6.78669  -6.78665  -2.90722  -2.90141
 Alpha  occ. eigenvalues --   -2.90135  -2.88379  -2.88379  -1.48470  -1.31454
 Alpha  occ. eigenvalues --   -1.21100  -1.12211  -1.10220  -1.00969  -0.99748
 Alpha  occ. eigenvalues --   -0.93793  -0.89583  -0.84086  -0.79604  -0.79261
 Alpha  occ. eigenvalues --   -0.78734  -0.77149  -0.74882  -0.74613  -0.70244
 Alpha  occ. eigenvalues --   -0.67919  -0.66221  -0.61259  -0.58199  -0.55873
 Alpha  occ. eigenvalues --   -0.54992  -0.54436  -0.51437  -0.50897
 Alpha virt. eigenvalues --   -0.27744  -0.20261  -0.16413  -0.13708  -0.12301
 Alpha virt. eigenvalues --   -0.11471  -0.10430  -0.07355  -0.07093  -0.05994
 Alpha virt. eigenvalues --   -0.03629  -0.01758  -0.00747  -0.00040   0.00319
 Alpha virt. eigenvalues --    0.02250   0.02703   0.03593   0.04168   0.04645
 Alpha virt. eigenvalues --    0.05477   0.06172   0.07265   0.07580   0.08276
 Alpha virt. eigenvalues --    0.08787   0.09513   0.09739   0.11275   0.11968
 Alpha virt. eigenvalues --    0.12095   0.12670   0.13481   0.14082   0.15012
 Alpha virt. eigenvalues --    0.16247   0.16738   0.17280   0.17708   0.18510
 Alpha virt. eigenvalues --    0.18711   0.19008   0.19938   0.20523   0.21355
 Alpha virt. eigenvalues --    0.21804   0.23058   0.23632   0.24291   0.26597
 Alpha virt. eigenvalues --    0.27228   0.29203   0.30257   0.32498   0.34568
 Alpha virt. eigenvalues --    0.35289   0.35540   0.36448   0.38873   0.39104
 Alpha virt. eigenvalues --    0.39431   0.40782   0.42015   0.43288   0.43852
 Alpha virt. eigenvalues --    0.45139   0.45532   0.46418   0.47456   0.48820
 Alpha virt. eigenvalues --    0.49786   0.51780   0.52904   0.54189   0.54513
 Alpha virt. eigenvalues --    0.55762   0.57262   0.57480   0.58980   0.60719
 Alpha virt. eigenvalues --    0.62736   0.63823   0.66101   0.68831   0.70353
 Alpha virt. eigenvalues --    0.71435   0.73441   0.74069   0.74881   0.75483
 Alpha virt. eigenvalues --    0.76609   0.80469   0.81294   0.86430   0.86631
 Alpha virt. eigenvalues --    0.88496   0.89482   0.92964   0.94928   1.00062
 Alpha virt. eigenvalues --    1.00993   1.02447   1.06050   1.06591   1.07941
 Alpha virt. eigenvalues --    1.11027   1.11857   1.13391   1.13837   1.15420
 Alpha virt. eigenvalues --    1.23160   1.25593   1.27839   1.34226   1.37697
 Alpha virt. eigenvalues --    1.38042   1.39467   1.46895   1.55618   1.58328
 Alpha virt. eigenvalues --    1.59735   1.60047   1.61825   1.63597   1.67703
 Alpha virt. eigenvalues --    1.70342   1.71221   1.74767   1.76427   1.80292
 Alpha virt. eigenvalues --    1.82290   1.86591   1.88768   1.97031   1.99557
 Alpha virt. eigenvalues --    2.01005   2.04165   2.05297   2.08858   2.09931
 Alpha virt. eigenvalues --    2.11904   2.16164   2.21500   2.23764   2.30325
 Alpha virt. eigenvalues --    2.38550   2.42289   2.43336   2.44600   2.53693
 Alpha virt. eigenvalues --    2.57700   2.64210   2.67304   2.69382   2.72873
 Alpha virt. eigenvalues --    2.74547   2.77665   2.78507   2.82223   2.83221
 Alpha virt. eigenvalues --    2.95049   2.97665   3.01787   3.06922   3.10253
 Alpha virt. eigenvalues --    3.14097   3.16159   3.20173   3.24860   3.25420
 Alpha virt. eigenvalues --    3.28492   3.40282   3.48779   3.52436   3.55699
 Alpha virt. eigenvalues --    3.58049   3.71082   3.75292   3.83455   3.88524
 Alpha virt. eigenvalues --    4.13423   4.13619   4.20715   4.26011   4.45484
 Alpha virt. eigenvalues --    4.46721   4.58844   4.61091   4.94335   4.96991
 Alpha virt. eigenvalues --    5.05644   5.09812   5.63975   6.16898   6.68921
 Alpha virt. eigenvalues --    7.52178   7.53716   7.63241  23.22678  23.62542
 Alpha virt. eigenvalues --   23.71414  23.80919  23.97239  24.02671  35.33750
 Alpha virt. eigenvalues --   47.95248  49.86690  49.95500 289.84498 289.86166
 Alpha virt. eigenvalues --  289.985461020.95555
          Condensed to atoms (all electrons):
               1          2          3          4          5          6
     1  C    9.043498  -1.726094  -0.688059  -1.043346  -0.805376   0.307632
     2  C   -1.726094  13.982286  -1.272692  -5.235648   0.817793  -0.026994
     3  C   -0.688059  -1.272692  14.564603  -4.684157  -0.709153   0.041114
     4  C   -1.043346  -5.235648  -4.684157  20.444479   0.476187  -0.000129
     5  C   -0.805376   0.817793  -0.709153   0.476187   8.264256   0.005849
     6  H    0.307632  -0.026994   0.041114  -0.000129   0.005849   0.340336
     7  H    0.059833   0.221164   0.084832  -0.027152  -0.026406  -0.001448
     8  H    0.008837  -0.007671   0.087001   0.187958  -0.024824   0.000001
     9  H    0.038040  -0.034896   0.004107  -0.004081   0.286664  -0.002198
    10  N   -0.102552   0.382280  -1.151485   0.363910  -0.014973  -0.000834
    11  O    0.029061   0.048281  -0.194076  -0.212096  -0.057820  -0.000034
    12  O    0.283435  -0.247169  -0.217606   0.110339  -0.051488   0.000146
    13  C    1.138315  -1.321288   0.777293  -4.608212  -2.050867   0.005076
    14  H   -0.044874   0.018425  -0.009771   0.053060   0.050539   0.000015
    15  Br   0.036345  -0.000816   0.050301  -0.067129  -0.065474   0.000200
               7          8          9         10         11         12
     1  C    0.059833   0.008837   0.038040  -0.102552   0.029061   0.283435
     2  C    0.221164  -0.007671  -0.034896   0.382280   0.048281  -0.247169
     3  C    0.084832   0.087001   0.004107  -1.151485  -0.194076  -0.217606
     4  C   -0.027152   0.187958  -0.004081   0.363910  -0.212096   0.110339
     5  C   -0.026406  -0.024824   0.286664  -0.014973  -0.057820  -0.051488
     6  H   -0.001448   0.000001  -0.002198  -0.000834  -0.000034   0.000146
     7  H    0.300826   0.000038   0.000102  -0.028044  -0.001476   0.021467
     8  H    0.000038   0.306944   0.000218  -0.026866   0.024247  -0.000827
     9  H    0.000102   0.000218   0.345177   0.000628  -0.000036   0.000023
    10  N   -0.028044  -0.026866   0.000628   7.508886   0.161748   0.109473
    11  O   -0.001476   0.024247  -0.000036   0.161748   7.863338  -0.012351
    12  O    0.021467  -0.000827   0.000023   0.109473  -0.012351   7.917453
    13  C    0.025918   0.076699   0.025286  -0.086774   0.312407   0.048432
    14  H   -0.000088  -0.010442  -0.011574  -0.001517   0.000039   0.000035
    15  Br   0.000595   0.007817   0.007008   0.002936   0.002130   0.004055
              13         14         15
     1  C    1.138315  -0.044874   0.036345
     2  C   -1.321288   0.018425  -0.000816
     3  C    0.777293  -0.009771   0.050301
     4  C   -4.608212   0.053060  -0.067129
     5  C   -2.050867   0.050539  -0.065474
     6  H    0.005076   0.000015   0.000200
     7  H    0.025918  -0.000088   0.000595
     8  H    0.076699  -0.010442   0.007817
     9  H    0.025286  -0.011574   0.007008
    10  N   -0.086774  -0.001517   0.002936
    11  O    0.312407   0.000039   0.002130
    12  O    0.048432   0.000035   0.004055
    13  C   11.657517   0.190876   0.257800
    14  H    0.190876   0.520552  -0.059254
    15  Br   0.257800  -0.059254  34.388101
 Mulliken charges:
               1
     1  C   -0.534694
     2  C    0.403039
     3  C   -0.682252
     4  C    0.246015
     5  C   -0.094908
     6  H    0.331269
     7  H    0.369836
     8  H    0.370869
     9  H    0.345534
    10  N   -0.116817
    11  O    0.036638
    12  O    0.034585
    13  C   -0.448479
    14  H    0.303980
    15  Br   0.435385
 Sum of Mulliken charges =   1.00000
 Mulliken charges with hydrogens summed into heavy atoms:
               1
     1  C   -0.203425
     2  C    0.772875
     3  C   -0.682252
     4  C    0.616884
     5  C    0.250626
    10  N   -0.116817
    11  O    0.036638
    12  O    0.034585
    13  C   -0.144499
    15  Br   0.435385
 Electronic spatial extent (au):  <R**2>=           2794.6670
 Charge=              1.0000 electrons
 Dipole moment (field-independent basis, Debye):
    X=             -1.5278    Y=             -1.7083    Z=             -5.0011  Tot=              5.5013
 Quadrupole moment (field-independent basis, Debye-Ang):
   XX=            -72.2862   YY=            -50.5672   ZZ=            -58.0160
   XY=              2.1341   XZ=             -1.1931   YZ=              5.8435
 Traceless Quadrupole moment (field-independent basis, Debye-Ang):
   XX=            -11.9964   YY=              9.7226   ZZ=              2.2738
   XY=              2.1341   XZ=             -1.1931   YZ=              5.8435
 Octapole moment (field-independent basis, Debye-Ang**2):
  XXX=           -304.7471  YYY=             79.9497  ZZZ=             55.4100  XYY=            -79.0513
  XXY=             28.7690  XXZ=             15.6063  XZZ=            -81.7118  YZZ=              5.2988
  YYZ=             10.1885  XYZ=             -6.2684
 Hexadecapole moment (field-independent basis, Debye-Ang**3):
 XXXX=          -2298.3508 YYYY=           -662.2214 ZZZZ=           -305.7156 XXXY=            -65.1773
 XXXZ=            -67.5396 YYYX=            -54.4040 YYYZ=           -130.0817 ZZZX=            -15.3711
 ZZZY=           -104.8948 XXYY=           -456.8750 XXZZ=           -366.2954 YYZZ=           -140.5737
 XXYZ=            -50.8093 YYXZ=             -1.7675 ZZXY=             -2.1779
 N-N= 7.360045900889D+02 E-N=-8.627843063014D+03  KE= 3.005795715652D+03
 No NMR shielding tensors so no spin-rotation constants.
 Leave Link  601 at Wed May  1 15:31:30 2024, MaxMem=  1207959552 cpu:               7.3 elap:               7.3
 (Enter /software/gaussian/g16-c01/sse4/g16/l9999.exe)
 Unable to Open any file for archive entry.
 1\1\GINC-BHX0032\SP\RwB97XD\6-311+G(d)\C6H5Br1N1O2(1+)\BWEIGHT\01-May-
 2024\0\\#P wB97XD/6-311+G* NoSymm #P Field=Z+282\\TitleMe\\1,1\C,0,0.0
 295,1.3397,0.0682\C,0,1.4348,1.2867,0.0064\C,0,2.1118,0.0511,-0.0054\C
 ,0,1.4451,-1.1372,0.0312\C,0,-0.6879,0.1682,0.11\H,0,-0.4713,2.2984,0.
 0781\H,0,2.0273,2.1965,-0.0322\H,0,1.9897,-2.0764,0.0232\H,0,-1.7716,0
 .1804,0.1582\N,0,3.5864,0.051,-0.0675\O,0,4.1471,-1.0597,-0.0881\O,0,4
 .145,1.1639,-0.0901\C,0,-0.0236,-1.1458,0.0835\H,0,-0.4367,-1.8725,0.7
 889\Br,0,-0.5359,-1.8697,-1.7408\\Version=ES64L-G16RevC.01\HF=-3010.56
 29429\RMSD=9.902e-09\Dipole=-2.5076292,0.4759793,-0.8214262\Quadrupole
 =-8.9190508,7.2285053,1.6905456,1.5866391,-0.887004,4.3445336\PG=C01 [
 X(C6H5Br1N1O2)]\\@
 The archive entry for this job was punched.


 IF IT HAPPENS, IT MUST BE POSSIBLE.

 -- THE UNNAMED LAW FROM PAUL DICKSON'S 
    "THE OFFICIAL RULES"
 Job cpu time:       0 days  0 hours 19 minutes 26.3 seconds.
 Elapsed time:       0 days  0 hours 19 minutes 26.3 seconds.
 File lengths (MBytes):  RWF=     40 Int=      0 D2E=      0 Chk=     32 Scr=      1
 Normal termination of Gaussian 16 at Wed May  1 15:31:31 2024.
