 Entering Gaussian System, Link 0=g16
 Initial command:
 /software/gaussian/g16-c01/sse4/g16/l1.exe "/local_scratch/24657449/Gau-24939.inp" -scrdir="/local_scratch/24657449/"
 Entering Link 1 = /software/gaussian/g16-c01/sse4/g16/l1.exe PID=     24941.
  
 Copyright (c) 1988-2019, Gaussian, Inc.  All Rights Reserved.
  
 This is part of the Gaussian(R) 16 program.  It is based on
 the Gaussian(R) 09 system (copyright 2009, Gaussian, Inc.),
 the Gaussian(R) 03 system (copyright 2003, Gaussian, Inc.),
 the Gaussian(R) 98 system (copyright 1998, Gaussian, Inc.),
 the Gaussian(R) 94 system (copyright 1995, Gaussian, Inc.),
 the Gaussian 92(TM) system (copyright 1992, Gaussian, Inc.),
 the Gaussian 90(TM) system (copyright 1990, Gaussian, Inc.),
 the Gaussian 88(TM) system (copyright 1988, Gaussian, Inc.),
 the Gaussian 86(TM) system (copyright 1986, Carnegie Mellon
 University), and the Gaussian 82(TM) system (copyright 1983,
 Carnegie Mellon University). Gaussian is a federally registered
 trademark of Gaussian, Inc.
  
 This software contains proprietary and confidential information,
 including trade secrets, belonging to Gaussian, Inc.
  
 This software is provided under written license and may be
 used, copied, transmitted, or stored only in accord with that
 written license.
  
 The following legend is applicable only to US Government
 contracts under FAR:
  
                    RESTRICTED RIGHTS LEGEND
  
 Use, reproduction and disclosure by the US Government is
 subject to restrictions as set forth in subparagraphs (a)
 and (c) of the Commercial Computer Software - Restricted
 Rights clause in FAR 52.227-19.
  
 Gaussian, Inc.
 340 Quinnipiac St., Bldg. 40, Wallingford CT 06492
  
  
 ---------------------------------------------------------------
 Warning -- This program may not be used in any manner that
 competes with the business of Gaussian, Inc. or will provide
 assistance to any competitor of Gaussian, Inc.  The licensee
 of this program is prohibited from giving any competitor of
 Gaussian, Inc. access to this program.  By using this program,
 the user acknowledges that Gaussian, Inc. is engaged in the
 business of creating and licensing software in the field of
 computational chemistry and represents and warrants to the
 licensee that it is not a competitor of Gaussian, Inc. and that
 it will not use this program in any manner prohibited above.
 ---------------------------------------------------------------
  

 Cite this work as:
 Gaussian 16, Revision C.01,
 M. J. Frisch, G. W. Trucks, H. B. Schlegel, G. E. Scuseria, 
 M. A. Robb, J. R. Cheeseman, G. Scalmani, V. Barone, 
 G. A. Petersson, H. Nakatsuji, X. Li, M. Caricato, A. V. Marenich, 
 J. Bloino, B. G. Janesko, R. Gomperts, B. Mennucci, H. P. Hratchian, 
 J. V. Ortiz, A. F. Izmaylov, J. L. Sonnenberg, D. Williams-Young, 
 F. Ding, F. Lipparini, F. Egidi, J. Goings, B. Peng, A. Petrone, 
 T. Henderson, D. Ranasinghe, V. G. Zakrzewski, J. Gao, N. Rega, 
 G. Zheng, W. Liang, M. Hada, M. Ehara, K. Toyota, R. Fukuda, 
 J. Hasegawa, M. Ishida, T. Nakajima, Y. Honda, O. Kitao, H. Nakai, 
 T. Vreven, K. Throssell, J. A. Montgomery, Jr., J. E. Peralta, 
 F. Ogliaro, M. J. Bearpark, J. J. Heyd, E. N. Brothers, K. N. Kudin, 
 V. N. Staroverov, T. A. Keith, R. Kobayashi, J. Normand, 
 K. Raghavachari, A. P. Rendell, J. C. Burant, S. S. Iyengar, 
 J. Tomasi, M. Cossi, J. M. Millam, M. Klene, C. Adamo, R. Cammi, 
 J. W. Ochterski, R. L. Martin, K. Morokuma, O. Farkas, 
 J. B. Foresman, and D. J. Fox, Gaussian, Inc., Wallingford CT, 2019.
 
 ******************************************
 Gaussian 16:  ES64L-G16RevC.01  3-Jul-2019
                 1-May-2024 
 ******************************************
 %chk=geometry.chk
 %mem=9GB
 %nprocshared=12
 Will use up to   12 processors via shared memory.
 ---------------------------------------
 #P wB97XD/6-311+G* NoSymm #P Field=X+77
 ---------------------------------------
 1/38=1,172=1/1;
 2/12=2,15=1,17=6,18=5,40=1/2;
 3/5=4,6=6,7=11,11=2,14=1,15=77,25=1,30=1,74=-58/1,2,3;
 4//1;
 5/5=2,38=5/2;
 6/7=2,8=2,9=2,10=2,28=1/1;
 99/5=1,9=1/99;
 Leave Link    1 at Wed May  1 14:27:44 2024, MaxMem=  1207959552 cpu:               1.3 elap:               1.4
 (Enter /software/gaussian/g16-c01/sse4/g16/l101.exe)
 -------
 TitleMe
 -------
 Symbolic Z-matrix:
 Charge =  1 Multiplicity = 1
 C                     0.0295    1.3397    0.0682 
 C                     1.4348    1.2867    0.0064 
 C                     2.1118    0.0511   -0.0054 
 C                     1.4451   -1.1372    0.0312 
 C                    -0.6879    0.1682    0.11 
 H                    -0.4713    2.2984    0.0781 
 H                     2.0273    2.1965   -0.0322 
 H                     1.9897   -2.0764    0.0232 
 H                    -1.7716    0.1804    0.1582 
 N                     3.5864    0.051    -0.0675 
 O                     4.1471   -1.0597   -0.0881 
 O                     4.145     1.1639   -0.0901 
 C                    -0.0236   -1.1458    0.0835 
 H                    -0.4367   -1.8725    0.7889 
 Br                   -0.5359   -1.8697   -1.7408 
 
 ITRead=  0  0  0  0  0  0  0  0  0  0  0  0  0  0  0
 MicOpt= -1 -1 -1 -1 -1 -1 -1 -1 -1 -1 -1 -1 -1 -1 -1
 NAtoms=     15 NQM=       15 NQMF=       0 NMMI=      0 NMMIF=      0
                NMic=       0 NMicF=      0.
                    Isotopes and Nuclear Properties:
 (Nuclear quadrupole moments (NQMom) in fm**2, nuclear magnetic moments (NMagM)
  in nuclear magnetons)

  Atom         1           2           3           4           5           6           7           8           9          10
 IAtWgt=          12          12          12          12          12           1           1           1           1          14
 AtmWgt=  12.0000000  12.0000000  12.0000000  12.0000000  12.0000000   1.0078250   1.0078250   1.0078250   1.0078250  14.0030740
 NucSpn=           0           0           0           0           0           1           1           1           1           2
 AtZEff=  -0.0000000  -0.0000000  -0.0000000  -0.0000000  -0.0000000  -0.0000000  -0.0000000  -0.0000000  -0.0000000  -0.0000000
 NQMom=    0.0000000   0.0000000   0.0000000   0.0000000   0.0000000   0.0000000   0.0000000   0.0000000   0.0000000   2.0440000
 NMagM=    0.0000000   0.0000000   0.0000000   0.0000000   0.0000000   2.7928460   2.7928460   2.7928460   2.7928460   0.4037610
 AtZNuc=   6.0000000   6.0000000   6.0000000   6.0000000   6.0000000   1.0000000   1.0000000   1.0000000   1.0000000   7.0000000

  Atom        11          12          13          14          15
 IAtWgt=          16          16          12           1          79
 AtmWgt=  15.9949146  15.9949146  12.0000000   1.0078250  78.9183361
 NucSpn=           0           0           0           1           3
 AtZEff=  -0.0000000  -0.0000000  -0.0000000  -0.0000000  -0.0000000
 NQMom=    0.0000000   0.0000000   0.0000000   0.0000000  31.3000000
 NMagM=    0.0000000   0.0000000   0.0000000   2.7928460   2.1063990
 AtZNuc=   8.0000000   8.0000000   6.0000000   1.0000000  35.0000000
 Leave Link  101 at Wed May  1 14:27:45 2024, MaxMem=  1207959552 cpu:               1.5 elap:               1.5
 (Enter /software/gaussian/g16-c01/sse4/g16/l202.exe)
                          Input orientation:                          
 ---------------------------------------------------------------------
 Center     Atomic      Atomic             Coordinates (Angstroms)
 Number     Number       Type             X           Y           Z
 ---------------------------------------------------------------------
      1          6           0        0.029500    1.339700    0.068200
      2          6           0        1.434800    1.286700    0.006400
      3          6           0        2.111800    0.051100   -0.005400
      4          6           0        1.445100   -1.137200    0.031200
      5          6           0       -0.687900    0.168200    0.110000
      6          1           0       -0.471300    2.298400    0.078100
      7          1           0        2.027300    2.196500   -0.032200
      8          1           0        1.989700   -2.076400    0.023200
      9          1           0       -1.771600    0.180400    0.158200
     10          7           0        3.586400    0.051000   -0.067500
     11          8           0        4.147100   -1.059700   -0.088100
     12          8           0        4.145000    1.163900   -0.090100
     13          6           0       -0.023600   -1.145800    0.083500
     14          1           0       -0.436700   -1.872500    0.788900
     15         35           0       -0.535900   -1.869700   -1.740800
 ---------------------------------------------------------------------
                    Distance matrix (angstroms):
                    1          2          3          4          5
     1  C    0.000000
     2  C    1.407656   0.000000
     3  C    2.449874   1.408963   0.000000
     4  C    2.853126   2.424049   1.363043   0.000000
     5  C    1.374344   2.401589   2.804523   2.501993   0.000000
     6  H    1.081667   2.159142   3.424870   3.934226   2.141421
     7  H    2.176095   1.086408   2.147231   3.384750   3.392128
     8  H    3.938800   3.408612   2.131193   1.085702   3.495040
     9  H    2.143837   3.395283   3.888995   3.478413   1.084840
    10  N    3.785591   2.482297   1.475907   2.450862   4.279589
    11  O    4.768247   3.587631   2.320164   2.705743   4.992415
    12  O    4.122294   2.714696   2.319353   3.549540   4.938459
    13  C    2.486114   2.837240   2.449573   1.469656   1.472614
    14  H    3.324903   3.754379   3.290289   2.157764   2.165286
    15  Br   3.727252   4.110867   3.702891   2.756973   2.757100
                    6          7          8          9         10
     6  H    0.000000
     7  H    2.503108   0.000000
     8  H    5.019802   4.273425   0.000000
     9  H    2.486588   4.304945   4.388479   0.000000
    10  N    4.640790   2.652397   2.661486   5.364313   0.000000
    11  O    5.712624   3.885809   2.387560   6.052233   1.244373
    12  O    4.756638   2.356750   3.893289   6.002923   1.245428
    13  C    3.473180   3.923079   2.218790   2.195425   3.806210
    14  H    4.231175   4.827242   2.552506   2.528663   4.540772
    15  Br   4.548146   5.101303   3.087568   3.055498   4.845862
                   11         12         13         14         15
    11  O    0.000000
    12  O    2.223602   0.000000
    13  C    4.175117   4.768865   0.000000
    14  H    4.737193   5.566358   1.093770   0.000000
    15  Br   5.031700   5.817075   2.028436   2.531646   0.000000
 Symmetry turned off by external request.
 Stoichiometry    C6H5BrNO2(1+)
 Framework group  C1[X(C6H5BrNO2)]
 Deg. of freedom    39
 Full point group                 C1      NOp   1
 Rotational constants (GHZ):           1.8252210           0.5518633           0.4576002
 Leave Link  202 at Wed May  1 14:27:47 2024, MaxMem=  1207959552 cpu:               1.1 elap:               1.1
 (Enter /software/gaussian/g16-c01/sse4/g16/l301.exe)
 Standard basis: 6-311+G(d) (5D, 7F)
 Ernie: Thresh=  0.10000D-02 Tol=  0.10000D-05 Strict=F.
 The following finite field(s) will be applied:
 An electric field of              0.0077  0.0000  0.0000
   261 basis functions,   443 primitive gaussians,   273 cartesian basis functions
    49 alpha electrons       49 beta electrons
       nuclear repulsion energy       739.2122215416 Hartrees.
 IExCor= 4639 DFT=T Ex+Corr=wB97XD ExCW=0 ScaHFX=  1.000000
 ScaDFX=  1.000000  1.000000  1.000000  1.000000 ScalE2=  1.000000  1.000000
 IRadAn=      5 IRanWt=     -1 IRanGd=            0 ICorTp=0 IEmpDi=121
 HFx  wShort=  0.000000 wLong=  0.200000 cFull=  0.222036 cShort=  0.000000 cLong=  0.777964
 DFx  wShort=  0.000000 wLong=  0.200000 cFull=  0.000000 cShort=  0.000000 cLong=  1.000000
 NAtoms=   15 NActive=   15 NUniq=   15 SFac= 1.00D+00 NAtFMM=   60 NAOKFM=F Big=F
 Integral buffers will be    131072 words long.
 Raffenetti 2 integral format.
 Two-electron integral symmetry is turned off.
 R6Disp:  Grimme-D2 Dispersion energy=       -0.0077368520 Hartrees.
 Nuclear repulsion after empirical dispersion term =      739.2044846896 Hartrees.
 Leave Link  301 at Wed May  1 14:27:48 2024, MaxMem=  1207959552 cpu:               1.0 elap:               1.0
 (Enter /software/gaussian/g16-c01/sse4/g16/l302.exe)
 NPDir=0 NMtPBC=     1 NCelOv=     1 NCel=       1 NClECP=     1 NCelD=      1
         NCelK=      1 NCelE2=     1 NClLst=     1 CellRange=     0.0.
 One-electron integrals computed using PRISM.
 NBasis=   261 RedAO= T EigKep=  2.35D-06  NBF=   261
 NBsUse=   261 1.00D-06 EigRej= -1.00D+00 NBFU=   261
 Precomputing XC quadrature grid using
 IXCGrd= 4 IRadAn=           5 IRanWt=          -1 IRanGd=           0 AccXCQ= 0.00D+00.
 Generated NRdTot=       0 NPtTot=           0 NUsed=           0 NTot=          32
 NSgBfM=   273   273   273   273   273 MxSgAt=    15 MxSgA2=    15.
 Leave Link  302 at Wed May  1 14:28:09 2024, MaxMem=  1207959552 cpu:              21.3 elap:              21.3
 (Enter /software/gaussian/g16-c01/sse4/g16/l303.exe)
 DipDrv:  MaxL=1.
 The nuclear repulsion energy is now       740.6578378842 hartrees.
 Leave Link  303 at Wed May  1 14:28:13 2024, MaxMem=  1207959552 cpu:               3.1 elap:               3.2
 (Enter /software/gaussian/g16-c01/sse4/g16/l401.exe)
 ExpMin= 3.50D-02 ExpMax= 4.40D+05 ExpMxC= 1.51D+04 IAcc=3 IRadAn=         5 AccDes= 0.00D+00
 Harris functional with IExCor= 4639 and IRadAn=       5 diagonalized for initial guess.
 HarFok:  IExCor= 4639 AccDes= 0.00D+00 IRadAn=         5 IDoV= 1 UseB2=F ITyADJ=14
 ICtDFT=  3500011 ScaDFX=  1.000000  1.000000  1.000000  1.000000
 FoFCou: FMM=F IPFlag=           0 FMFlag=      100000 FMFlg1=           0
         NFxFlg=           0 DoJE=T BraDBF=F KetDBF=T FulRan=T
         wScrn=  0.000000 ICntrl=       500 IOpCl=  0 I1Cent=   200000004 NGrid=           0
         NMat0=    1 NMatS0=      1 NMatT0=    0 NMatD0=    1 NMtDS0=    0 NMtDT0=    0
 Symmetry not used in FoFCou.
 Harris En= -2970.60396041591    
 JPrj=0 DoOrth=F DoCkMO=F.
 Leave Link  401 at Wed May  1 14:28:43 2024, MaxMem=  1207959552 cpu:              30.1 elap:              30.1
 (Enter /software/gaussian/g16-c01/sse4/g16/l502.exe)
 Two-electron integral symmetry not used.
 Closed shell SCF:
 Using DIIS extrapolation, IDIIS=  1040.
 NGot=  1207959552 LenX=  1207804877 LenY=  1207729907
 Requested convergence on RMS density matrix=1.00D-08 within 128 cycles.
 Requested convergence on MAX density matrix=1.00D-06.
 Requested convergence on             energy=1.00D-06.
 No special actions if energy rises.
 Fock matrices will be formed incrementally for  20 cycles.

 Cycle   1  Pass 1  IDiag  1:
 FoFJK:  IHMeth= 1 ICntrl=       0 DoSepK=T KAlg= 0 I1Cent=           0 FoldK=F
 IRaf=         1 NMat=       1 IRICut=       1 DoRegI=T DoRafI=F ISym2E= 0 IDoP0=0 IntGTp=1.
 FoFCou: FMM=F IPFlag=           0 FMFlag=      100000 FMFlg1=           0
         NFxFlg=           0 DoJE=T BraDBF=F KetDBF=F FulRan=T
         wScrn=  0.000000 ICntrl=       500 IOpCl=  0 I1Cent=           0 NGrid=           0
         NMat0=    1 NMatS0=      1 NMatT0=    0 NMatD0=    1 NMtDS0=    0 NMtDT0=    0
 Symmetry not used in FoFCou.
 E= -3009.73491034717    
 DIIS: error= 3.20D-01 at cycle   1 NSaved=   1.
 NSaved= 1 IEnMin= 1 EnMin= -3009.73491034717     IErMin= 1 ErrMin= 3.20D-01
 ErrMax= 3.20D-01  0.00D+00 EMaxC= 1.00D-01 BMatC= 1.19D+01 BMatP= 1.19D+01
 IDIUse=3 WtCom= 0.00D+00 WtEn= 1.00D+00
 Coeff-Com:  0.100D+01
 Coeff-En:   0.100D+01
 Coeff:      0.100D+01
 Gap=     0.284 Goal=   None    Shift=    0.000
 GapD=    0.284 DampG=1.000 DampE=0.250 DampFc=0.2500 IDamp=-1.
 Damping current iteration by 2.50D-01
 RMSDP=4.56D-02 MaxDP=4.25D+00              OVMax= 2.61D-01

 Cycle   2  Pass 1  IDiag  1:
 RMSU=  4.09D-03    CP:  8.87D-01
 E= -3010.01654348726     Delta-E=       -0.281633140090 Rises=F Damp=T
 DIIS: error= 2.25D-01 at cycle   2 NSaved=   2.
 NSaved= 2 IEnMin= 2 EnMin= -3010.01654348726     IErMin= 2 ErrMin= 2.25D-01
 ErrMax= 2.25D-01  0.00D+00 EMaxC= 1.00D-01 BMatC= 5.45D+00 BMatP= 1.19D+01
 IDIUse=3 WtCom= 0.00D+00 WtEn= 1.00D+00
 Coeff-Com: -0.183D+01 0.283D+01
 Coeff-En:   0.000D+00 0.100D+01
 Coeff:      0.000D+00 0.100D+01
 Gap=     0.289 Goal=   None    Shift=    0.000
 RMSDP=3.56D-02 MaxDP=3.35D+00 DE=-2.82D-01 OVMax= 6.29D-02

 Cycle   3  Pass 1  IDiag  1:
 RMSU=  4.22D-03    CP:  5.28D-01  3.00D+00
 E= -3010.39166568241     Delta-E=       -0.375122195148 Rises=F Damp=F
 DIIS: error= 6.58D-02 at cycle   3 NSaved=   3.
 NSaved= 3 IEnMin= 3 EnMin= -3010.39166568241     IErMin= 3 ErrMin= 6.58D-02
 ErrMax= 6.58D-02  0.00D+00 EMaxC= 1.00D-01 BMatC= 7.37D-01 BMatP= 5.45D+00
 IDIUse=3 WtCom= 3.42D-01 WtEn= 6.58D-01
 Coeff-Com:  0.276D+01-0.363D+01 0.187D+01
 Coeff-En:   0.290D-01 0.000D+00 0.971D+00
 Coeff:      0.962D+00-0.124D+01 0.128D+01
 Gap=     0.260 Goal=   None    Shift=    0.000
 RMSDP=7.95D-03 MaxDP=4.46D-01 DE=-3.75D-01 OVMax= 6.72D-02

 Cycle   4  Pass 1  IDiag  1:
 RMSU=  4.94D-03    CP:  5.39D-01  2.31D+00  2.04D+00
 E= -3010.49511368797     Delta-E=       -0.103448005560 Rises=F Damp=F
 DIIS: error= 3.82D-02 at cycle   4 NSaved=   4.
 NSaved= 4 IEnMin= 4 EnMin= -3010.49511368797     IErMin= 4 ErrMin= 3.82D-02
 ErrMax= 3.82D-02  0.00D+00 EMaxC= 1.00D-01 BMatC= 2.30D-01 BMatP= 7.37D-01
 IDIUse=3 WtCom= 6.18D-01 WtEn= 3.82D-01
 Coeff-Com: -0.220D+00 0.307D+00 0.250D+00 0.663D+00
 Coeff-En:   0.000D+00 0.000D+00 0.198D+00 0.802D+00
 Coeff:     -0.136D+00 0.190D+00 0.230D+00 0.716D+00
 Gap=     0.263 Goal=   None    Shift=    0.000
 RMSDP=3.21D-03 MaxDP=2.41D-01 DE=-1.03D-01 OVMax= 2.95D-02

 Cycle   5  Pass 1  IDiag  1:
 RMSU=  1.29D-03    CP:  5.13D-01  2.67D+00  1.91D+00  9.08D-01
 E= -3010.53982396902     Delta-E=       -0.044710281054 Rises=F Damp=F
 DIIS: error= 6.73D-03 at cycle   5 NSaved=   5.
 NSaved= 5 IEnMin= 5 EnMin= -3010.53982396902     IErMin= 5 ErrMin= 6.73D-03
 ErrMax= 6.73D-03  0.00D+00 EMaxC= 1.00D-01 BMatC= 7.04D-03 BMatP= 2.30D-01
 IDIUse=3 WtCom= 9.33D-01 WtEn= 6.73D-02
 Coeff-Com: -0.137D+00 0.186D+00 0.338D-01 0.310D+00 0.607D+00
 Coeff-En:   0.000D+00 0.000D+00 0.000D+00 0.000D+00 0.100D+01
 Coeff:     -0.128D+00 0.174D+00 0.315D-01 0.289D+00 0.634D+00
 Gap=     0.252 Goal=   None    Shift=    0.000
 RMSDP=5.83D-04 MaxDP=4.68D-02 DE=-4.47D-02 OVMax= 1.05D-02

 Cycle   6  Pass 1  IDiag  1:
 RMSU=  4.34D-04    CP:  5.12D-01  2.65D+00  1.92D+00  9.02D-01  7.19D-01
 E= -3010.54123801987     Delta-E=       -0.001414050849 Rises=F Damp=F
 DIIS: error= 1.01D-03 at cycle   6 NSaved=   6.
 NSaved= 6 IEnMin= 6 EnMin= -3010.54123801987     IErMin= 6 ErrMin= 1.01D-03
 ErrMax= 1.01D-03  0.00D+00 EMaxC= 1.00D-01 BMatC= 1.22D-04 BMatP= 7.04D-03
 IDIUse=3 WtCom= 9.90D-01 WtEn= 1.01D-02
 Coeff-Com: -0.815D-01 0.109D+00-0.674D-02 0.133D+00 0.346D+00 0.500D+00
 Coeff-En:   0.000D+00 0.000D+00 0.000D+00 0.000D+00 0.000D+00 0.100D+01
 Coeff:     -0.806D-01 0.108D+00-0.668D-02 0.132D+00 0.343D+00 0.505D+00
 Gap=     0.253 Goal=   None    Shift=    0.000
 RMSDP=1.92D-04 MaxDP=1.20D-02 DE=-1.41D-03 OVMax= 4.12D-03

 Cycle   7  Pass 1  IDiag  1:
 RMSU=  9.07D-05    CP:  5.12D-01  2.64D+00  1.93D+00  9.13D-01  8.09D-01
                    CP:  8.18D-01
 E= -3010.54132408760     Delta-E=       -0.000086067725 Rises=F Damp=F
 DIIS: error= 4.89D-04 at cycle   7 NSaved=   7.
 NSaved= 7 IEnMin= 7 EnMin= -3010.54132408760     IErMin= 7 ErrMin= 4.89D-04
 ErrMax= 4.89D-04  0.00D+00 EMaxC= 1.00D-01 BMatC= 2.14D-05 BMatP= 1.22D-04
 IDIUse=3 WtCom= 9.95D-01 WtEn= 4.89D-03
 Coeff-Com: -0.326D-01 0.434D-01-0.121D-01 0.330D-01 0.106D+00 0.308D+00
 Coeff-Com:  0.554D+00
 Coeff-En:   0.000D+00 0.000D+00 0.000D+00 0.000D+00 0.000D+00 0.393D-01
 Coeff-En:   0.961D+00
 Coeff:     -0.324D-01 0.431D-01-0.120D-01 0.328D-01 0.106D+00 0.307D+00
 Coeff:      0.556D+00
 Gap=     0.253 Goal=   None    Shift=    0.000
 RMSDP=8.25D-05 MaxDP=4.82D-03 DE=-8.61D-05 OVMax= 1.78D-03

 Cycle   8  Pass 1  IDiag  1:
 RMSU=  4.91D-05    CP:  5.12D-01  2.63D+00  1.94D+00  9.20D-01  8.33D-01
                    CP:  8.35D-01  9.07D-01
 E= -3010.54134059349     Delta-E=       -0.000016505891 Rises=F Damp=F
 DIIS: error= 1.26D-04 at cycle   8 NSaved=   8.
 NSaved= 8 IEnMin= 8 EnMin= -3010.54134059349     IErMin= 8 ErrMin= 1.26D-04
 ErrMax= 1.26D-04  0.00D+00 EMaxC= 1.00D-01 BMatC= 2.23D-06 BMatP= 2.14D-05
 IDIUse=3 WtCom= 9.99D-01 WtEn= 1.26D-03
 Coeff-Com:  0.555D-02-0.762D-02-0.287D-02-0.146D-01-0.360D-01-0.490D-02
 Coeff-Com:  0.203D+00 0.857D+00
 Coeff-En:   0.000D+00 0.000D+00 0.000D+00 0.000D+00 0.000D+00 0.000D+00
 Coeff-En:   0.000D+00 0.100D+01
 Coeff:      0.554D-02-0.761D-02-0.286D-02-0.146D-01-0.359D-01-0.489D-02
 Coeff:      0.203D+00 0.858D+00
 Gap=     0.253 Goal=   None    Shift=    0.000
 RMSDP=4.73D-05 MaxDP=3.19D-03 DE=-1.65D-05 OVMax= 7.20D-04

 Cycle   9  Pass 1  IDiag  1:
 RMSU=  1.87D-05    CP:  5.12D-01  2.63D+00  1.95D+00  9.21D-01  8.35D-01
                    CP:  8.96D-01  1.09D+00  1.16D+00
 E= -3010.54134366303     Delta-E=       -0.000003069546 Rises=F Damp=F
 DIIS: error= 1.87D-05 at cycle   9 NSaved=   9.
 NSaved= 9 IEnMin= 9 EnMin= -3010.54134366303     IErMin= 9 ErrMin= 1.87D-05
 ErrMax= 1.87D-05  0.00D+00 EMaxC= 1.00D-01 BMatC= 1.86D-07 BMatP= 2.23D-06
 IDIUse=1 WtCom= 1.00D+00 WtEn= 0.00D+00
 Coeff-Com:  0.646D-02-0.868D-02 0.590D-03-0.957D-02-0.237D-01-0.386D-01
 Coeff-Com: -0.639D-02 0.270D+00 0.810D+00
 Coeff:      0.646D-02-0.868D-02 0.590D-03-0.957D-02-0.237D-01-0.386D-01
 Coeff:     -0.639D-02 0.270D+00 0.810D+00
 Gap=     0.253 Goal=   None    Shift=    0.000
 RMSDP=1.52D-05 MaxDP=7.32D-04 DE=-3.07D-06 OVMax= 4.00D-04

 Cycle  10  Pass 1  IDiag  1:
 RMSU=  7.01D-06    CP:  5.12D-01  2.63D+00  1.95D+00  9.22D-01  8.39D-01
                    CP:  9.07D-01  1.14D+00  1.27D+00  1.12D+00
 E= -3010.54134408258     Delta-E=       -0.000000419547 Rises=F Damp=F
 DIIS: error= 1.62D-05 at cycle  10 NSaved=  10.
 NSaved=10 IEnMin=10 EnMin= -3010.54134408258     IErMin=10 ErrMin= 1.62D-05
 ErrMax= 1.62D-05  0.00D+00 EMaxC= 1.00D-01 BMatC= 4.87D-08 BMatP= 1.86D-07
 IDIUse=1 WtCom= 1.00D+00 WtEn= 0.00D+00
 Coeff-Com:  0.845D-03-0.112D-02 0.306D-03-0.880D-03 0.295D-04-0.571D-02
 Coeff-Com: -0.269D-01-0.467D-01 0.258D+00 0.822D+00
 Coeff:      0.845D-03-0.112D-02 0.306D-03-0.880D-03 0.295D-04-0.571D-02
 Coeff:     -0.269D-01-0.467D-01 0.258D+00 0.822D+00
 Gap=     0.253 Goal=   None    Shift=    0.000
 RMSDP=7.17D-06 MaxDP=4.82D-04 DE=-4.20D-07 OVMax= 1.63D-04

 Cycle  11  Pass 1  IDiag  1:
 RMSU=  3.17D-06    CP:  5.12D-01  2.63D+00  1.95D+00  9.21D-01  8.38D-01
                    CP:  9.14D-01  1.14D+00  1.27D+00  1.26D+00  1.05D+00
 E= -3010.54134416104     Delta-E=       -0.000000078456 Rises=F Damp=F
 DIIS: error= 5.10D-06 at cycle  11 NSaved=  11.
 NSaved=11 IEnMin=11 EnMin= -3010.54134416104     IErMin=11 ErrMin= 5.10D-06
 ErrMax= 5.10D-06  0.00D+00 EMaxC= 1.00D-01 BMatC= 3.16D-09 BMatP= 4.87D-08
 IDIUse=1 WtCom= 1.00D+00 WtEn= 0.00D+00
 Coeff-Com: -0.198D-03 0.267D-03 0.243D-04 0.613D-03 0.245D-02 0.531D-02
 Coeff-Com:  0.328D-02-0.275D-01-0.832D-01-0.270D-01 0.113D+01
 Coeff:     -0.198D-03 0.267D-03 0.243D-04 0.613D-03 0.245D-02 0.531D-02
 Coeff:      0.328D-02-0.275D-01-0.832D-01-0.270D-01 0.113D+01
 Gap=     0.253 Goal=   None    Shift=    0.000
 RMSDP=3.62D-06 MaxDP=1.79D-04 DE=-7.85D-08 OVMax= 1.32D-04

 Cycle  12  Pass 1  IDiag  1:
 RMSU=  1.01D-06    CP:  5.12D-01  2.63D+00  1.95D+00  9.21D-01  8.38D-01
                    CP:  9.17D-01  1.14D+00  1.26D+00  1.33D+00  1.26D+00
                    CP:  1.35D+00
 E= -3010.54134418084     Delta-E=       -0.000000019804 Rises=F Damp=F
 DIIS: error= 1.72D-06 at cycle  12 NSaved=  12.
 NSaved=12 IEnMin=12 EnMin= -3010.54134418084     IErMin=12 ErrMin= 1.72D-06
 ErrMax= 1.72D-06  0.00D+00 EMaxC= 1.00D-01 BMatC= 1.65D-09 BMatP= 3.16D-09
 IDIUse=1 WtCom= 1.00D+00 WtEn= 0.00D+00
 Coeff-Com: -0.225D-03 0.299D-03-0.290D-04 0.449D-03 0.977D-03 0.356D-02
 Coeff-Com:  0.708D-02-0.582D-02-0.969D-01-0.213D+00 0.576D+00 0.727D+00
 Coeff:     -0.225D-03 0.299D-03-0.290D-04 0.449D-03 0.977D-03 0.356D-02
 Coeff:      0.708D-02-0.582D-02-0.969D-01-0.213D+00 0.576D+00 0.727D+00
 Gap=     0.253 Goal=   None    Shift=    0.000
 RMSDP=1.99D-06 MaxDP=8.49D-05 DE=-1.98D-08 OVMax= 6.01D-05

 Cycle  13  Pass 1  IDiag  1:
 RMSU=  5.72D-07    CP:  5.12D-01  2.63D+00  1.95D+00  9.21D-01  8.38D-01
                    CP:  9.19D-01  1.14D+00  1.25D+00  1.36D+00  1.33D+00
                    CP:  1.69D+00  1.24D+00
 E= -3010.54134418635     Delta-E=       -0.000000005509 Rises=F Damp=F
 DIIS: error= 6.28D-07 at cycle  13 NSaved=  13.
 NSaved=13 IEnMin=13 EnMin= -3010.54134418635     IErMin=13 ErrMin= 6.28D-07
 ErrMax= 6.28D-07  0.00D+00 EMaxC= 1.00D-01 BMatC= 1.71D-10 BMatP= 1.65D-09
 IDIUse=1 WtCom= 1.00D+00 WtEn= 0.00D+00
 Coeff-Com: -0.375D-05 0.520D-05-0.100D-04-0.989D-04-0.645D-03-0.128D-02
 Coeff-Com: -0.731D-03 0.533D-02 0.214D-01-0.517D-02-0.165D+00-0.547D-01
 Coeff-Com:  0.120D+01
 Coeff:     -0.375D-05 0.520D-05-0.100D-04-0.989D-04-0.645D-03-0.128D-02
 Coeff:     -0.731D-03 0.533D-02 0.214D-01-0.517D-02-0.165D+00-0.547D-01
 Coeff:      0.120D+01
 Gap=     0.253 Goal=   None    Shift=    0.000
 RMSDP=5.79D-07 MaxDP=2.29D-05 DE=-5.51D-09 OVMax= 4.02D-05

 Cycle  14  Pass 1  IDiag  1:
 RMSU=  2.44D-07    CP:  5.12D-01  2.63D+00  1.95D+00  9.21D-01  8.38D-01
                    CP:  9.20D-01  1.14D+00  1.25D+00  1.37D+00  1.34D+00
                    CP:  1.80D+00  1.45D+00  1.42D+00
 E= -3010.54134418757     Delta-E=       -0.000000001218 Rises=F Damp=F
 DIIS: error= 3.64D-07 at cycle  14 NSaved=  14.
 NSaved=14 IEnMin=14 EnMin= -3010.54134418757     IErMin=14 ErrMin= 3.64D-07
 ErrMax= 3.64D-07  0.00D+00 EMaxC= 1.00D-01 BMatC= 4.15D-11 BMatP= 1.71D-10
 IDIUse=1 WtCom= 1.00D+00 WtEn= 0.00D+00
 Coeff-Com:  0.193D-04-0.254D-04-0.276D-05-0.848D-04-0.308D-03-0.857D-03
 Coeff-Com: -0.123D-02 0.250D-02 0.220D-01 0.276D-01-0.141D+00-0.165D+00
 Coeff-Com:  0.407D+00 0.849D+00
 Coeff:      0.193D-04-0.254D-04-0.276D-05-0.848D-04-0.308D-03-0.857D-03
 Coeff:     -0.123D-02 0.250D-02 0.220D-01 0.276D-01-0.141D+00-0.165D+00
 Coeff:      0.407D+00 0.849D+00
 Gap=     0.253 Goal=   None    Shift=    0.000
 RMSDP=3.13D-07 MaxDP=1.42D-05 DE=-1.22D-09 OVMax= 1.78D-05

 Cycle  15  Pass 1  IDiag  1:
 RMSU=  8.45D-08    CP:  5.12D-01  2.63D+00  1.95D+00  9.21D-01  8.38D-01
                    CP:  9.20D-01  1.14D+00  1.25D+00  1.37D+00  1.34D+00
                    CP:  1.85D+00  1.53D+00  1.65D+00  1.18D+00
 E= -3010.54134418776     Delta-E=       -0.000000000192 Rises=F Damp=F
 DIIS: error= 1.52D-07 at cycle  15 NSaved=  15.
 NSaved=15 IEnMin=15 EnMin= -3010.54134418776     IErMin=15 ErrMin= 1.52D-07
 ErrMax= 1.52D-07  0.00D+00 EMaxC= 1.00D-01 BMatC= 9.75D-12 BMatP= 4.15D-11
 IDIUse=1 WtCom= 1.00D+00 WtEn= 0.00D+00
 Coeff-Com:  0.113D-04-0.152D-04 0.168D-05-0.328D-05 0.857D-04 0.103D-03
 Coeff-Com: -0.144D-03-0.697D-03 0.124D-02 0.873D-02 0.109D-02-0.487D-01
 Coeff-Com: -0.178D+00 0.324D+00 0.892D+00
 Coeff:      0.113D-04-0.152D-04 0.168D-05-0.328D-05 0.857D-04 0.103D-03
 Coeff:     -0.144D-03-0.697D-03 0.124D-02 0.873D-02 0.109D-02-0.487D-01
 Coeff:     -0.178D+00 0.324D+00 0.892D+00
 Gap=     0.253 Goal=   None    Shift=    0.000
 RMSDP=1.57D-07 MaxDP=6.90D-06 DE=-1.92D-10 OVMax= 8.76D-06

 Cycle  16  Pass 1  IDiag  1:
 RMSU=  4.33D-08    CP:  5.12D-01  2.63D+00  1.95D+00  9.21D-01  8.38D-01
                    CP:  9.20D-01  1.14D+00  1.25D+00  1.37D+00  1.34D+00
                    CP:  1.87D+00  1.54D+00  1.79D+00  1.41D+00  1.29D+00
 E= -3010.54134418782     Delta-E=       -0.000000000055 Rises=F Damp=F
 DIIS: error= 6.33D-08 at cycle  16 NSaved=  16.
 NSaved=16 IEnMin=16 EnMin= -3010.54134418782     IErMin=16 ErrMin= 6.33D-08
 ErrMax= 6.33D-08  0.00D+00 EMaxC= 1.00D-01 BMatC= 9.30D-13 BMatP= 9.75D-12
 IDIUse=1 WtCom= 1.00D+00 WtEn= 0.00D+00
 Coeff-Com:  0.105D-05-0.144D-05 0.106D-05 0.987D-05 0.648D-04 0.148D-03
 Coeff-Com:  0.105D-03-0.608D-03-0.250D-02-0.671D-03 0.200D-01 0.740D-02
 Coeff-Com: -0.104D+00-0.514D-02 0.223D+00 0.862D+00
 Coeff:      0.105D-05-0.144D-05 0.106D-05 0.987D-05 0.648D-04 0.148D-03
 Coeff:      0.105D-03-0.608D-03-0.250D-02-0.671D-03 0.200D-01 0.740D-02
 Coeff:     -0.104D+00-0.514D-02 0.223D+00 0.862D+00
 Gap=     0.253 Goal=   None    Shift=    0.000
 RMSDP=3.83D-08 MaxDP=1.32D-06 DE=-5.55D-11 OVMax= 2.36D-06

 Cycle  17  Pass 1  IDiag  1:
 RMSU=  1.26D-08    CP:  5.12D-01  2.63D+00  1.95D+00  9.21D-01  8.37D-01
                    CP:  9.20D-01  1.14D+00  1.25D+00  1.37D+00  1.34D+00
                    CP:  1.88D+00  1.53D+00  1.81D+00  1.47D+00  1.53D+00
                    CP:  1.18D+00
 E= -3010.54134418785     Delta-E=       -0.000000000032 Rises=F Damp=F
 DIIS: error= 2.46D-08 at cycle  17 NSaved=  17.
 NSaved=17 IEnMin=17 EnMin= -3010.54134418785     IErMin=17 ErrMin= 2.46D-08
 ErrMax= 2.46D-08  0.00D+00 EMaxC= 1.00D-01 BMatC= 1.79D-13 BMatP= 9.30D-13
 IDIUse=1 WtCom= 1.00D+00 WtEn= 0.00D+00
 Coeff-Com: -0.754D-06 0.101D-05 0.108D-06 0.105D-05-0.470D-05 0.548D-05
 Coeff-Com:  0.394D-04 0.305D-04-0.562D-03-0.124D-02 0.277D-02 0.855D-02
 Coeff-Com:  0.526D-02-0.526D-01-0.120D+00 0.199D+00 0.959D+00
 Coeff:     -0.754D-06 0.101D-05 0.108D-06 0.105D-05-0.470D-05 0.548D-05
 Coeff:      0.394D-04 0.305D-04-0.562D-03-0.124D-02 0.277D-02 0.855D-02
 Coeff:      0.526D-02-0.526D-01-0.120D+00 0.199D+00 0.959D+00
 Gap=     0.253 Goal=   None    Shift=    0.000
 RMSDP=2.49D-08 MaxDP=1.19D-06 DE=-3.18D-11 OVMax= 1.31D-06

 Cycle  18  Pass 1  IDiag  1:
 RMSU=  5.95D-09    CP:  5.12D-01  2.63D+00  1.95D+00  9.21D-01  8.37D-01
                    CP:  9.20D-01  1.14D+00  1.25D+00  1.37D+00  1.34D+00
                    CP:  1.88D+00  1.53D+00  1.83D+00  1.51D+00  1.61D+00
                    CP:  1.43D+00  1.38D+00
 E= -3010.54134418784     Delta-E=        0.000000000006 Rises=F Damp=F
 DIIS: error= 8.62D-09 at cycle  18 NSaved=  18.
 NSaved=18 IEnMin=17 EnMin= -3010.54134418785     IErMin=18 ErrMin= 8.62D-09
 ErrMax= 8.62D-09  0.00D+00 EMaxC= 1.00D-01 BMatC= 3.86D-14 BMatP= 1.79D-13
 IDIUse=1 WtCom= 1.00D+00 WtEn= 0.00D+00
 Coeff-Com: -0.574D-07 0.800D-07-0.115D-06-0.190D-05-0.139D-04-0.263D-04
 Coeff-Com: -0.667D-05 0.133D-03 0.299D-03-0.340D-03-0.300D-02 0.119D-02
 Coeff-Com:  0.233D-01-0.107D-01-0.756D-01-0.122D+00 0.268D+00 0.918D+00
 Coeff:     -0.574D-07 0.800D-07-0.115D-06-0.190D-05-0.139D-04-0.263D-04
 Coeff:     -0.667D-05 0.133D-03 0.299D-03-0.340D-03-0.300D-02 0.119D-02
 Coeff:      0.233D-01-0.107D-01-0.756D-01-0.122D+00 0.268D+00 0.918D+00
 Gap=     0.253 Goal=   None    Shift=    0.000
 RMSDP=9.75D-09 MaxDP=6.54D-07 DE= 6.37D-12 OVMax= 3.43D-07

 SCF Done:  E(RwB97XD) =  -3010.54134419     A.U. after   18 cycles
            NFock= 18  Conv=0.98D-08     -V/T= 2.0016
 KE= 3.005847501932D+03 PE=-8.633486819393D+03 EE= 1.876440135389D+03
 Leave Link  502 at Wed May  1 14:45:24 2024, MaxMem=  1207959552 cpu:            1000.7 elap:            1000.7
 (Enter /software/gaussian/g16-c01/sse4/g16/l601.exe)
 Copying SCF densities to generalized density rwf, IOpCl= 0 IROHF=0.

 **********************************************************************

            Population analysis using the SCF Density.

 **********************************************************************

 Alpha  occ. eigenvalues -- -483.31616 -62.86630 -56.66333 -56.65748 -56.65744
 Alpha  occ. eigenvalues --  -19.49633 -19.49556 -14.89023 -10.58870 -10.58742
 Alpha  occ. eigenvalues --  -10.58573 -10.58360 -10.57340 -10.53488  -9.02428
 Alpha  occ. eigenvalues --   -6.85131  -6.83220  -6.83200  -2.95030  -2.94524
 Alpha  occ. eigenvalues --   -2.94506  -2.92978  -2.92978  -1.53378  -1.36400
 Alpha  occ. eigenvalues --   -1.23745  -1.15303  -1.12682  -1.05093  -1.02901
 Alpha  occ. eigenvalues --   -0.96365  -0.92261  -0.87613  -0.83460  -0.82725
 Alpha  occ. eigenvalues --   -0.82473  -0.79250  -0.79010  -0.76799  -0.73188
 Alpha  occ. eigenvalues --   -0.69999  -0.68398  -0.64661  -0.61074  -0.60780
 Alpha  occ. eigenvalues --   -0.60119  -0.59498  -0.56584  -0.55701
 Alpha virt. eigenvalues --   -0.30383  -0.24141  -0.16350  -0.14745  -0.09795
 Alpha virt. eigenvalues --   -0.07244  -0.06847  -0.05772  -0.05584  -0.03975
 Alpha virt. eigenvalues --   -0.03297  -0.02721  -0.02221  -0.00799  -0.00266
 Alpha virt. eigenvalues --   -0.00080   0.00640   0.01159   0.01881   0.02251
 Alpha virt. eigenvalues --    0.02967   0.03874   0.04047   0.04480   0.04780
 Alpha virt. eigenvalues --    0.05596   0.06214   0.06330   0.08037   0.08498
 Alpha virt. eigenvalues --    0.09102   0.09411   0.09454   0.10278   0.10422
 Alpha virt. eigenvalues --    0.11050   0.11190   0.12255   0.13751   0.14305
 Alpha virt. eigenvalues --    0.15327   0.16159   0.16337   0.16730   0.17119
 Alpha virt. eigenvalues --    0.18509   0.19079   0.19355   0.20529   0.20847
 Alpha virt. eigenvalues --    0.21677   0.23459   0.25922   0.28623   0.29503
 Alpha virt. eigenvalues --    0.30318   0.31409   0.32439   0.33213   0.33758
 Alpha virt. eigenvalues --    0.36105   0.36693   0.38006   0.39809   0.41075
 Alpha virt. eigenvalues --    0.41565   0.42098   0.42576   0.44938   0.45419
 Alpha virt. eigenvalues --    0.46371   0.49420   0.49666   0.50864   0.51964
 Alpha virt. eigenvalues --    0.52895   0.53966   0.55651   0.56082   0.58032
 Alpha virt. eigenvalues --    0.60838   0.61402   0.63599   0.66352   0.67455
 Alpha virt. eigenvalues --    0.69245   0.69636   0.72223   0.72674   0.73325
 Alpha virt. eigenvalues --    0.73747   0.76828   0.78081   0.81967   0.83018
 Alpha virt. eigenvalues --    0.85155   0.85729   0.90208   0.91463   0.95445
 Alpha virt. eigenvalues --    0.95797   0.99232   1.02751   1.03530   1.05183
 Alpha virt. eigenvalues --    1.06632   1.08107   1.08862   1.09157   1.10819
 Alpha virt. eigenvalues --    1.18198   1.22225   1.24640   1.31922   1.35289
 Alpha virt. eigenvalues --    1.35778   1.36899   1.44157   1.52809   1.55125
 Alpha virt. eigenvalues --    1.55901   1.56236   1.59291   1.60599   1.65310
 Alpha virt. eigenvalues --    1.67250   1.68663   1.71955   1.72624   1.77804
 Alpha virt. eigenvalues --    1.80429   1.84169   1.85666   1.92752   1.94749
 Alpha virt. eigenvalues --    1.96433   2.00513   2.02105   2.06043   2.07038
 Alpha virt. eigenvalues --    2.08498   2.13659   2.18904   2.20656   2.28514
 Alpha virt. eigenvalues --    2.35363   2.38912   2.41214   2.42251   2.51281
 Alpha virt. eigenvalues --    2.55703   2.61674   2.64622   2.66446   2.68585
 Alpha virt. eigenvalues --    2.70235   2.73084   2.75506   2.77397   2.80675
 Alpha virt. eigenvalues --    2.92516   2.95179   2.97091   3.04602   3.07257
 Alpha virt. eigenvalues --    3.11333   3.13595   3.17928   3.20510   3.23019
 Alpha virt. eigenvalues --    3.23460   3.36659   3.46686   3.49064   3.51620
 Alpha virt. eigenvalues --    3.54677   3.66388   3.70377   3.81023   3.85966
 Alpha virt. eigenvalues --    4.08596   4.08823   4.16230   4.21488   4.40422
 Alpha virt. eigenvalues --    4.42279   4.55822   4.57165   4.89213   4.91842
 Alpha virt. eigenvalues --    5.00510   5.04677   5.59061   6.11828   6.64294
 Alpha virt. eigenvalues --    7.47282   7.48849   7.58587  23.20271  23.60188
 Alpha virt. eigenvalues --   23.68956  23.78365  23.94996  24.00154  35.28944
 Alpha virt. eigenvalues --   47.90814  49.81772  49.90582 289.80130 289.81797
 Alpha virt. eigenvalues --  289.942291020.91217
          Condensed to atoms (all electrons):
               1          2          3          4          5          6
     1  C    8.515708  -2.255923   0.412026  -1.432262  -0.707350   0.304551
     2  C   -2.255923  12.928822  -2.049772  -2.722247   1.002035  -0.016273
     3  C    0.412026  -2.049772  12.839197  -2.722045  -1.332485   0.019615
     4  C   -1.432262  -2.722247  -2.722045  13.796961   1.248983   0.010000
     5  C   -0.707350   1.002035  -1.332485   1.248983   7.327456   0.024569
     6  H    0.304551  -0.016273   0.019615   0.010000   0.024569   0.321202
     7  H    0.058800   0.245531   0.080609  -0.033070  -0.021085  -0.001830
     8  H    0.001392  -0.010359   0.062656   0.268102  -0.009674   0.000002
     9  H    0.022871  -0.005130   0.000143  -0.004542   0.320260  -0.001929
    10  N   -0.109456   0.323064  -0.921845   0.278650   0.035877  -0.000534
    11  O    0.020272  -0.035617  -0.257081  -0.034766  -0.052364  -0.000018
    12  O    0.275614  -0.042121  -0.280168  -0.047283  -0.043059  -0.000019
    13  C    1.434201  -1.893257   0.818742  -2.882596  -1.834139  -0.008797
    14  H   -0.001558  -0.012378   0.009563  -0.052815  -0.057688  -0.000058
    15  Br   0.057924  -0.000031   0.057355   0.080563   0.069831  -0.000393
               7          8          9         10         11         12
     1  C    0.058800   0.001392   0.022871  -0.109456   0.020272   0.275614
     2  C    0.245531  -0.010359  -0.005130   0.323064  -0.035617  -0.042121
     3  C    0.080609   0.062656   0.000143  -0.921845  -0.257081  -0.280168
     4  C   -0.033070   0.268102  -0.004542   0.278650  -0.034766  -0.047283
     5  C   -0.021085  -0.009674   0.320260   0.035877  -0.052364  -0.043059
     6  H   -0.001830   0.000002  -0.001929  -0.000534  -0.000018  -0.000019
     7  H    0.314911   0.000008   0.000014  -0.026602  -0.001515   0.018300
     8  H    0.000008   0.308714   0.000116  -0.023466   0.018941  -0.000923
     9  H    0.000014   0.000116   0.295650   0.000433   0.000003   0.000005
    10  N   -0.026602  -0.023466   0.000433   7.228830   0.240406   0.206914
    11  O   -0.001515   0.018941   0.000003   0.240406   7.848246  -0.010601
    12  O    0.018300  -0.000923   0.000005   0.206914  -0.010601   7.883295
    13  C    0.013861   0.026677  -0.008541  -0.129273   0.266988   0.044815
    14  H   -0.000015  -0.004754  -0.004740  -0.000898  -0.000188  -0.000069
    15  Br  -0.000182   0.000099   0.000920   0.002205   0.000712   0.001958
              13         14         15
     1  C    1.434201  -0.001558   0.057924
     2  C   -1.893257  -0.012378  -0.000031
     3  C    0.818742   0.009563   0.057355
     4  C   -2.882596  -0.052815   0.080563
     5  C   -1.834139  -0.057688   0.069831
     6  H   -0.008797  -0.000058  -0.000393
     7  H    0.013861  -0.000015  -0.000182
     8  H    0.026677  -0.004754   0.000099
     9  H   -0.008541  -0.004740   0.000920
    10  N   -0.129273  -0.000898   0.002205
    11  O    0.266988  -0.000188   0.000712
    12  O    0.044815  -0.000069   0.001958
    13  C   10.276789   0.416105  -0.084862
    14  H    0.416105   0.330845  -0.038057
    15  Br  -0.084862  -0.038057  34.634212
 Mulliken charges:
               1
     1  C   -0.596810
     2  C    0.543655
     3  C   -0.736510
     4  C    0.248368
     5  C    0.028835
     6  H    0.349912
     7  H    0.352264
     8  H    0.362468
     9  H    0.384467
    10  N   -0.104306
    11  O   -0.003419
    12  O   -0.006659
    13  C   -0.456715
    14  H    0.416703
    15  Br   0.217747
 Sum of Mulliken charges =   1.00000
 Mulliken charges with hydrogens summed into heavy atoms:
               1
     1  C   -0.246899
     2  C    0.895919
     3  C   -0.736510
     4  C    0.610836
     5  C    0.413302
    10  N   -0.104306
    11  O   -0.003419
    12  O   -0.006659
    13  C   -0.040011
    15  Br   0.217747
 Electronic spatial extent (au):  <R**2>=           2801.8628
 Charge=              1.0000 electrons
 Dipole moment (field-independent basis, Debye):
    X=             -3.1386    Y=             -0.8511    Z=             -0.2109  Tot=              3.2587
 Quadrupole moment (field-independent basis, Debye-Ang):
   XX=            -76.7307   YY=            -51.7523   ZZ=            -62.0650
   XY=              1.6574   XZ=              1.7023   YZ=              2.2000
 Traceless Quadrupole moment (field-independent basis, Debye-Ang):
   XX=            -13.2147   YY=             11.7637   ZZ=              1.4510
   XY=              1.6574   XZ=              1.7023   YZ=              2.2000
 Octapole moment (field-independent basis, Debye-Ang**2):
  XXX=           -331.3992  YYY=             85.6959  ZZZ=             75.8499  XYY=            -81.5612
  XXY=             28.9825  XXZ=             32.0475  XZZ=            -80.7218  YZZ=             14.8546
  YYZ=             24.1446  XYZ=             -4.4755
 Hexadecapole moment (field-independent basis, Debye-Ang**3):
 XXXX=          -2416.6135 YYYY=           -672.3573 ZZZZ=           -343.1473 XXXY=            -68.1399
 XXXZ=            -17.7000 YYYX=            -57.1062 YYYZ=           -151.7146 ZZZX=            -15.1084
 ZZZY=           -132.0311 XXYY=           -466.5440 XXZZ=           -372.3083 YYZZ=           -160.0780
 XXYZ=            -53.1188 YYXZ=              0.5930 ZZXY=             -6.2522
 N-N= 7.406578378842D+02 E-N=-8.633486821498D+03  KE= 3.005847501932D+03
 No NMR shielding tensors so no spin-rotation constants.
 Leave Link  601 at Wed May  1 14:45:31 2024, MaxMem=  1207959552 cpu:               7.6 elap:               7.7
 (Enter /software/gaussian/g16-c01/sse4/g16/l9999.exe)
 Unable to Open any file for archive entry.
 1\1\GINC-BHX0021\SP\RwB97XD\6-311+G(d)\C6H5Br1N1O2(1+)\BWEIGHT\01-May-
 2024\0\\#P wB97XD/6-311+G* NoSymm #P Field=X+77\\TitleMe\\1,1\C,0,0.02
 95,1.3397,0.0682\C,0,1.4348,1.2867,0.0064\C,0,2.1118,0.0511,-0.0054\C,
 0,1.4451,-1.1372,0.0312\C,0,-0.6879,0.1682,0.11\H,0,-0.4713,2.2984,0.0
 781\H,0,2.0273,2.1965,-0.0322\H,0,1.9897,-2.0764,0.0232\H,0,-1.7716,0.
 1804,0.1582\N,0,3.5864,0.051,-0.0675\O,0,4.1471,-1.0597,-0.0881\O,0,4.
 145,1.1639,-0.0901\C,0,-0.0236,-1.1458,0.0835\H,0,-0.4367,-1.8725,0.78
 89\Br,0,-0.5359,-1.8697,-1.7408\\Version=ES64L-G16RevC.01\HF=-3010.541
 3442\RMSD=9.750e-09\Dipole=-3.1413435,0.8132501,1.0632002\Quadrupole=-
 9.8248011,8.7460528,1.0787483,1.2322008,1.2656158,1.6356777\PG=C01 [X(
 C6H5Br1N1O2)]\\@
 The archive entry for this job was punched.


 IT WAS AN ACT OF DESPARATION. FOR SIX YEARS I HAD STRUGGLED WITH THE
 BLACKBODY THEORY. I KNEW THE PROBLEM WAS FUNDAMENTAL, AND I KNEW
 THE ANSWER. I HAD TO FIND A THEORETICAL EXPLANATION AT ANY COST,
 EXCEPT FOR THE INVIOLABLITY OF THE TWO LAWS OF THERMODYNAMICS.
   -- MAX PLANCK, 1931
 Job cpu time:       0 days  0 hours 17 minutes 48.8 seconds.
 Elapsed time:       0 days  0 hours 17 minutes 48.8 seconds.
 File lengths (MBytes):  RWF=     40 Int=      0 D2E=      0 Chk=     32 Scr=      1
 Normal termination of Gaussian 16 at Wed May  1 14:45:33 2024.
