 Entering Gaussian System, Link 0=g16
 Initial command:
 /software/gaussian/g16-c01/sse4/g16/l1.exe "/local_scratch/24665411/Gau-7085.inp" -scrdir="/local_scratch/24665411/"
 Entering Link 1 = /software/gaussian/g16-c01/sse4/g16/l1.exe PID=      7087.
  
 Copyright (c) 1988-2019, Gaussian, Inc.  All Rights Reserved.
  
 This is part of the Gaussian(R) 16 program.  It is based on
 the Gaussian(R) 09 system (copyright 2009, Gaussian, Inc.),
 the Gaussian(R) 03 system (copyright 2003, Gaussian, Inc.),
 the Gaussian(R) 98 system (copyright 1998, Gaussian, Inc.),
 the Gaussian(R) 94 system (copyright 1995, Gaussian, Inc.),
 the Gaussian 92(TM) system (copyright 1992, Gaussian, Inc.),
 the Gaussian 90(TM) system (copyright 1990, Gaussian, Inc.),
 the Gaussian 88(TM) system (copyright 1988, Gaussian, Inc.),
 the Gaussian 86(TM) system (copyright 1986, Carnegie Mellon
 University), and the Gaussian 82(TM) system (copyright 1983,
 Carnegie Mellon University). Gaussian is a federally registered
 trademark of Gaussian, Inc.
  
 This software contains proprietary and confidential information,
 including trade secrets, belonging to Gaussian, Inc.
  
 This software is provided under written license and may be
 used, copied, transmitted, or stored only in accord with that
 written license.
  
 The following legend is applicable only to US Government
 contracts under FAR:
  
                    RESTRICTED RIGHTS LEGEND
  
 Use, reproduction and disclosure by the US Government is
 subject to restrictions as set forth in subparagraphs (a)
 and (c) of the Commercial Computer Software - Restricted
 Rights clause in FAR 52.227-19.
  
 Gaussian, Inc.
 340 Quinnipiac St., Bldg. 40, Wallingford CT 06492
  
  
 ---------------------------------------------------------------
 Warning -- This program may not be used in any manner that
 competes with the business of Gaussian, Inc. or will provide
 assistance to any competitor of Gaussian, Inc.  The licensee
 of this program is prohibited from giving any competitor of
 Gaussian, Inc. access to this program.  By using this program,
 the user acknowledges that Gaussian, Inc. is engaged in the
 business of creating and licensing software in the field of
 computational chemistry and represents and warrants to the
 licensee that it is not a competitor of Gaussian, Inc. and that
 it will not use this program in any manner prohibited above.
 ---------------------------------------------------------------
  

 Cite this work as:
 Gaussian 16, Revision C.01,
 M. J. Frisch, G. W. Trucks, H. B. Schlegel, G. E. Scuseria, 
 M. A. Robb, J. R. Cheeseman, G. Scalmani, V. Barone, 
 G. A. Petersson, H. Nakatsuji, X. Li, M. Caricato, A. V. Marenich, 
 J. Bloino, B. G. Janesko, R. Gomperts, B. Mennucci, H. P. Hratchian, 
 J. V. Ortiz, A. F. Izmaylov, J. L. Sonnenberg, D. Williams-Young, 
 F. Ding, F. Lipparini, F. Egidi, J. Goings, B. Peng, A. Petrone, 
 T. Henderson, D. Ranasinghe, V. G. Zakrzewski, J. Gao, N. Rega, 
 G. Zheng, W. Liang, M. Hada, M. Ehara, K. Toyota, R. Fukuda, 
 J. Hasegawa, M. Ishida, T. Nakajima, Y. Honda, O. Kitao, H. Nakai, 
 T. Vreven, K. Throssell, J. A. Montgomery, Jr., J. E. Peralta, 
 F. Ogliaro, M. J. Bearpark, J. J. Heyd, E. N. Brothers, K. N. Kudin, 
 V. N. Staroverov, T. A. Keith, R. Kobayashi, J. Normand, 
 K. Raghavachari, A. P. Rendell, J. C. Burant, S. S. Iyengar, 
 J. Tomasi, M. Cossi, J. M. Millam, M. Klene, C. Adamo, R. Cammi, 
 J. W. Ochterski, R. L. Martin, K. Morokuma, O. Farkas, 
 J. B. Foresman, and D. J. Fox, Gaussian, Inc., Wallingford CT, 2019.
 
 ******************************************
 Gaussian 16:  ES64L-G16RevC.01  3-Jul-2019
                 2-May-2024 
 ******************************************
 %chk=geometry.chk
 %mem=1GB
 %nprocshared=12
 Will use up to   12 processors via shared memory.
 ----------------------------------------
 #P wB97XD/6-311+G* NoSymm #P Field=Z+272
 ----------------------------------------
 1/38=1,172=1/1;
 2/12=2,15=1,17=6,18=5,40=1/2;
 3/5=4,6=6,7=11,11=2,14=3,15=272,25=1,30=1,74=-58/1,2,3;
 4//1;
 5/5=2,38=5/2;
 6/7=2,8=2,9=2,10=2,28=1/1;
 99/5=1,9=1/99;
 Leave Link    1 at Thu May  2 13:58:19 2024, MaxMem=   134217728 cpu:               1.3 elap:               1.3
 (Enter /software/gaussian/g16-c01/sse4/g16/l101.exe)
 -------
 TitleMe
 -------
 Symbolic Z-matrix:
 Charge =  1 Multiplicity = 1
 C                     0.5193    1.233    -0.0319 
 C                     1.9445    1.2692   -0.0367 
 C                     2.6204    0.0928   -0.025 
 C                    -0.196     0.0301    0.001 
 H                    -0.0207    2.1742   -0.0434 
 H                     2.4828    2.2089   -0.0361 
 H                    -1.2777    0.0399    0.0117 
 N                     4.0921    0.0959    0.0366 
 O                     4.6393   -1.0217    0.1446 
 O                     4.6649    1.1984   -0.0233 
 C                     0.4943   -1.1671    0.021 
 H                    -0.0325   -2.1149    0.0545 
 C                     1.9629   -1.2165   -0.0211 
 H                     2.4436   -1.9631    0.6151 
 Br                    2.173    -1.9491   -1.9062 
 
 ITRead=  0  0  0  0  0  0  0  0  0  0  0  0  0  0  0
 MicOpt= -1 -1 -1 -1 -1 -1 -1 -1 -1 -1 -1 -1 -1 -1 -1
 NAtoms=     15 NQM=       15 NQMF=       0 NMMI=      0 NMMIF=      0
                NMic=       0 NMicF=      0.
                    Isotopes and Nuclear Properties:
 (Nuclear quadrupole moments (NQMom) in fm**2, nuclear magnetic moments (NMagM)
  in nuclear magnetons)

  Atom         1           2           3           4           5           6           7           8           9          10
 IAtWgt=          12          12          12          12           1           1           1          14          16          16
 AtmWgt=  12.0000000  12.0000000  12.0000000  12.0000000   1.0078250   1.0078250   1.0078250  14.0030740  15.9949146  15.9949146
 NucSpn=           0           0           0           0           1           1           1           2           0           0
 AtZEff=  -0.0000000  -0.0000000  -0.0000000  -0.0000000  -0.0000000  -0.0000000  -0.0000000  -0.0000000  -0.0000000  -0.0000000
 NQMom=    0.0000000   0.0000000   0.0000000   0.0000000   0.0000000   0.0000000   0.0000000   2.0440000   0.0000000   0.0000000
 NMagM=    0.0000000   0.0000000   0.0000000   0.0000000   2.7928460   2.7928460   2.7928460   0.4037610   0.0000000   0.0000000
 AtZNuc=   6.0000000   6.0000000   6.0000000   6.0000000   1.0000000   1.0000000   1.0000000   7.0000000   8.0000000   8.0000000

  Atom        11          12          13          14          15
 IAtWgt=          12           1          12           1          79
 AtmWgt=  12.0000000   1.0078250  12.0000000   1.0078250  78.9183361
 NucSpn=           0           1           0           1           3
 AtZEff=  -0.0000000  -0.0000000  -0.0000000  -0.0000000  -0.0000000
 NQMom=    0.0000000   0.0000000   0.0000000   0.0000000  31.3000000
 NMagM=    0.0000000   2.7928460   0.0000000   2.7928460   2.1063990
 AtZNuc=   6.0000000   1.0000000   6.0000000   1.0000000  35.0000000
 Leave Link  101 at Thu May  2 13:58:21 2024, MaxMem=   134217728 cpu:               1.4 elap:               1.4
 (Enter /software/gaussian/g16-c01/sse4/g16/l202.exe)
                          Input orientation:                          
 ---------------------------------------------------------------------
 Center     Atomic      Atomic             Coordinates (Angstroms)
 Number     Number       Type             X           Y           Z
 ---------------------------------------------------------------------
      1          6           0        0.519300    1.233000   -0.031900
      2          6           0        1.944500    1.269200   -0.036700
      3          6           0        2.620400    0.092800   -0.025000
      4          6           0       -0.196000    0.030100    0.001000
      5          1           0       -0.020700    2.174200   -0.043400
      6          1           0        2.482800    2.208900   -0.036100
      7          1           0       -1.277700    0.039900    0.011700
      8          7           0        4.092100    0.095900    0.036600
      9          8           0        4.639300   -1.021700    0.144600
     10          8           0        4.664900    1.198400   -0.023300
     11          6           0        0.494300   -1.167100    0.021000
     12          1           0       -0.032500   -2.114900    0.054500
     13          6           0        1.962900   -1.216500   -0.021100
     14          1           0        2.443600   -1.963100    0.615100
     15         35           0        2.173000   -1.949100   -1.906200
 ---------------------------------------------------------------------
                    Distance matrix (angstroms):
                    1          2          3          4          5
     1  C    0.000000
     2  C    1.425668   0.000000
     3  C    2.390549   1.356796   0.000000
     4  C    1.399895   2.473566   2.817218   0.000000
     5  H    1.085168   2.163581   3.362733   2.151712   0.000000
     6  H    2.192654   1.082960   2.120598   3.453189   2.503751
     7  H    2.157452   3.449071   3.898632   1.081797   2.477564
     8  N    3.750012   2.448304   1.472992   4.288753   4.608780
     9  O    4.699917   3.541615   2.312322   4.950458   5.653735
    10  O    4.145753   2.721354   2.324292   4.999386   4.786171
    11  C    2.400813   2.835836   2.471794   1.382101   3.381369
    12  H    3.394169   3.920329   3.452266   2.151887   4.290233
    13  C    2.843264   2.485817   1.465124   2.493060   3.928360
    14  H    3.786370   3.334922   2.160489   3.364142   4.860416
    15  Br   4.046416   3.728900   2.812194   3.628609   5.028314
                    6          7          8          9         10
     6  H    0.000000
     7  H    4.341452   0.000000
     8  N    2.657047   5.370150   0.000000
     9  O    3.888434   6.012948   1.249048   0.000000
    10  O    2.404752   6.054572   1.243863   2.226587   0.000000
    11  C    3.918516   2.144043   3.813080   4.149391   4.794941
    12  H    5.003018   2.489080   4.679774   4.798846   5.748876
    13  C    3.464662   3.475788   2.501842   2.688591   3.623886
    14  H    4.222698   4.268978   2.700314   2.434893   3.916224
    15  Br   4.569706   4.420610   3.411663   3.338935   4.434144
                   11         12         13         14         15
    11  C    0.000000
    12  H    1.084880   0.000000
    13  C    1.470034   2.189625   0.000000
    14  H    2.187771   2.543302   1.092353   0.000000
    15  Br   2.672762   2.955683   2.033334   2.535818   0.000000
 Symmetry turned off by external request.
 Stoichiometry    C6H5BrNO2(1+)
 Framework group  C1[X(C6H5BrNO2)]
 Deg. of freedom    39
 Full point group                 C1      NOp   1
 Rotational constants (GHZ):           1.1632986           0.9594224           0.5957624
 Leave Link  202 at Thu May  2 13:58:23 2024, MaxMem=   134217728 cpu:               1.2 elap:               1.2
 (Enter /software/gaussian/g16-c01/sse4/g16/l301.exe)
 Standard basis: 6-311+G(d) (5D, 7F)
 Ernie: Thresh=  0.10000D-02 Tol=  0.10000D-05 Strict=F.
 The following finite field(s) will be applied:
 An electric field of              0.0000  0.0000  0.0272
   261 basis functions,   443 primitive gaussians,   273 cartesian basis functions
    49 alpha electrons       49 beta electrons
       nuclear repulsion energy       772.8945969580 Hartrees.
 IExCor= 4639 DFT=T Ex+Corr=wB97XD ExCW=0 ScaHFX=  1.000000
 ScaDFX=  1.000000  1.000000  1.000000  1.000000 ScalE2=  1.000000  1.000000
 IRadAn=      5 IRanWt=     -1 IRanGd=            0 ICorTp=0 IEmpDi=121
 HFx  wShort=  0.000000 wLong=  0.200000 cFull=  0.222036 cShort=  0.000000 cLong=  0.777964
 DFx  wShort=  0.000000 wLong=  0.200000 cFull=  0.000000 cShort=  0.000000 cLong=  1.000000
 NAtoms=   15 NActive=   15 NUniq=   15 SFac= 1.00D+00 NAtFMM=   60 NAOKFM=F Big=F
 Integral buffers will be    131072 words long.
 Raffenetti 2 integral format.
 Two-electron integral symmetry is turned off.
 R6Disp:  Grimme-D2 Dispersion energy=       -0.0080346408 Hartrees.
 Nuclear repulsion after empirical dispersion term =      772.8865623173 Hartrees.
 Leave Link  301 at Thu May  2 13:58:24 2024, MaxMem=   134217728 cpu:               1.1 elap:               1.1
 (Enter /software/gaussian/g16-c01/sse4/g16/l302.exe)
 NPDir=0 NMtPBC=     1 NCelOv=     1 NCel=       1 NClECP=     1 NCelD=      1
         NCelK=      1 NCelE2=     1 NClLst=     1 CellRange=     0.0.
 One-electron integrals computed using PRISM.
 NBasis=   261 RedAO= T EigKep=  2.52D-06  NBF=   261
 NBsUse=   261 1.00D-06 EigRej= -1.00D+00 NBFU=   261
 Precomputing XC quadrature grid using
 IXCGrd= 4 IRadAn=           5 IRanWt=          -1 IRanGd=           0 AccXCQ= 0.00D+00.
 Generated NRdTot=       0 NPtTot=           0 NUsed=           0 NTot=          32
 NSgBfM=   273   273   273   273   273 MxSgAt=    15 MxSgA2=    15.
 Leave Link  302 at Thu May  2 13:58:46 2024, MaxMem=   134217728 cpu:              21.6 elap:              21.6
 (Enter /software/gaussian/g16-c01/sse4/g16/l303.exe)
 DipDrv:  MaxL=1.
 The nuclear repulsion energy is now       769.5226635642 hartrees.
 Leave Link  303 at Thu May  2 13:58:49 2024, MaxMem=   134217728 cpu:               3.3 elap:               3.3
 (Enter /software/gaussian/g16-c01/sse4/g16/l401.exe)
 ExpMin= 3.50D-02 ExpMax= 4.40D+05 ExpMxC= 1.51D+04 IAcc=3 IRadAn=         5 AccDes= 0.00D+00
 Harris functional with IExCor= 4639 and IRadAn=       5 diagonalized for initial guess.
 HarFok:  IExCor= 4639 AccDes= 0.00D+00 IRadAn=         5 IDoV= 1 UseB2=F ITyADJ=14
 ICtDFT=  3500011 ScaDFX=  1.000000  1.000000  1.000000  1.000000
 FoFCou: FMM=F IPFlag=           0 FMFlag=      100000 FMFlg1=           0
         NFxFlg=           0 DoJE=T BraDBF=F KetDBF=T FulRan=T
         wScrn=  0.000000 ICntrl=       500 IOpCl=  0 I1Cent=   200000004 NGrid=           0
         NMat0=    1 NMatS0=      1 NMatT0=    0 NMatD0=    1 NMtDS0=    0 NMtDT0=    0
 Symmetry not used in FoFCou.
 Harris En= -2970.67125688494    
 JPrj=0 DoOrth=F DoCkMO=F.
 Leave Link  401 at Thu May  2 13:59:20 2024, MaxMem=   134217728 cpu:              30.8 elap:              30.8
 (Enter /software/gaussian/g16-c01/sse4/g16/l502.exe)
 Two-electron integral symmetry not used.
 Closed shell SCF:
 Using DIIS extrapolation, IDIIS=  1040.
 NGot=   134217728 LenX=   134063053 LenY=   133988083
 Requested convergence on RMS density matrix=1.00D-08 within 128 cycles.
 Requested convergence on MAX density matrix=1.00D-06.
 Requested convergence on             energy=1.00D-06.
 No special actions if energy rises.
 Fock matrices will be formed incrementally for  20 cycles.

 Cycle   1  Pass 1  IDiag  1:
 FoFJK:  IHMeth= 1 ICntrl=       0 DoSepK=T KAlg= 0 I1Cent=           0 FoldK=F
 IRaf=         1 NMat=       1 IRICut=       1 DoRegI=T DoRafI=F ISym2E= 0 IDoP0=0 IntGTp=1.
 FoFCou: FMM=F IPFlag=           0 FMFlag=      100000 FMFlg1=           0
         NFxFlg=           0 DoJE=T BraDBF=F KetDBF=F FulRan=T
         wScrn=  0.000000 ICntrl=       500 IOpCl=  0 I1Cent=           0 NGrid=           0
         NMat0=    1 NMatS0=      1 NMatT0=    0 NMatD0=    1 NMtDS0=    0 NMtDT0=    0
 Symmetry not used in FoFCou.
 E= -3009.53891924697    
 DIIS: error= 2.92D-01 at cycle   1 NSaved=   1.
 NSaved= 1 IEnMin= 1 EnMin= -3009.53891924697     IErMin= 1 ErrMin= 2.92D-01
 ErrMax= 2.92D-01  0.00D+00 EMaxC= 1.00D-01 BMatC= 1.23D+01 BMatP= 1.23D+01
 IDIUse=3 WtCom= 0.00D+00 WtEn= 1.00D+00
 Coeff-Com:  0.100D+01
 Coeff-En:   0.100D+01
 Coeff:      0.100D+01
 Gap=     0.368 Goal=   None    Shift=    0.000
 GapD=    0.368 DampG=1.000 DampE=0.250 DampFc=0.2500 IDamp=-1.
 Damping current iteration by 2.50D-01
 RMSDP=3.68D-01 MaxDP=4.01D+01              OVMax= 3.62D-01

 Cycle   2  Pass 1  IDiag  1:
 RMSU=  1.21D-02    CP:  8.00D-01
 E= -3009.90539893992     Delta-E=       -0.366479692945 Rises=F Damp=T
 DIIS: error= 2.20D-01 at cycle   2 NSaved=   2.
 NSaved= 2 IEnMin= 2 EnMin= -3009.90539893992     IErMin= 2 ErrMin= 2.20D-01
 ErrMax= 2.20D-01  0.00D+00 EMaxC= 1.00D-01 BMatC= 5.47D+00 BMatP= 1.23D+01
 IDIUse=3 WtCom= 0.00D+00 WtEn= 1.00D+00
 Coeff-Com: -0.172D+01 0.272D+01
 Coeff-En:   0.000D+00 0.100D+01
 Coeff:      0.000D+00 0.100D+01
 Gap=     0.241 Goal=   None    Shift=    0.000
 RMSDP=2.63D-01 MaxDP=2.90D+01 DE=-3.66D-01 OVMax= 1.69D-01

 Cycle   3  Pass 1  IDiag  1:
 RMSU=  9.52D-03    CP:  2.28D-01  3.00D+00
 E= -3010.33973481340     Delta-E=       -0.434335873485 Rises=F Damp=F
 DIIS: error= 6.82D-02 at cycle   3 NSaved=   3.
 NSaved= 3 IEnMin= 3 EnMin= -3010.33973481340     IErMin= 3 ErrMin= 6.82D-02
 ErrMax= 6.82D-02  0.00D+00 EMaxC= 1.00D-01 BMatC= 8.55D-01 BMatP= 5.47D+00
 IDIUse=3 WtCom= 3.18D-01 WtEn= 6.82D-01
 EnCoef did   100 forward-backward iterations
 Coeff-Com:  0.224D+01-0.292D+01 0.168D+01
 Coeff-En:   0.105D+00 0.816D-03 0.894D+00
 Coeff:      0.785D+00-0.928D+00 0.114D+01
 Gap=     0.297 Goal=   None    Shift=    0.000
 RMSDP=4.12D-02 MaxDP=5.11D+00 DE=-4.34D-01 OVMax= 1.70D-01

 Cycle   4  Pass 1  IDiag  1:
 RMSU=  1.11D-02    CP:  3.13D-01  3.00D+00  1.77D+00
 E= -3010.50900326320     Delta-E=       -0.169268449798 Rises=F Damp=F
 DIIS: error= 3.39D-02 at cycle   4 NSaved=   4.
 NSaved= 4 IEnMin= 4 EnMin= -3010.50900326320     IErMin= 4 ErrMin= 3.39D-02
 ErrMax= 3.39D-02  0.00D+00 EMaxC= 1.00D-01 BMatC= 2.00D-01 BMatP= 8.55D-01
 IDIUse=3 WtCom= 6.61D-01 WtEn= 3.39D-01
 Coeff-Com: -0.217D+00 0.303D+00 0.213D+00 0.700D+00
 Coeff-En:   0.000D+00 0.000D+00 0.162D+00 0.838D+00
 Coeff:     -0.143D+00 0.201D+00 0.196D+00 0.747D+00
 Gap=     0.240 Goal=   None    Shift=    0.000
 RMSDP=2.79D-02 MaxDP=3.70D+00 DE=-1.69D-01 OVMax= 7.25D-02

 Cycle   5  Pass 1  IDiag  1:
 RMSU=  4.52D-03    CP:  2.54D-01  3.00D+00  1.40D+00  5.70D-01
 E= -3010.55919523858     Delta-E=       -0.050191975376 Rises=F Damp=F
 DIIS: error= 9.02D-03 at cycle   5 NSaved=   5.
 NSaved= 5 IEnMin= 5 EnMin= -3010.55919523858     IErMin= 5 ErrMin= 9.02D-03
 ErrMax= 9.02D-03  0.00D+00 EMaxC= 1.00D-01 BMatC= 1.32D-02 BMatP= 2.00D-01
 IDIUse=3 WtCom= 9.10D-01 WtEn= 9.02D-02
 Coeff-Com: -0.232D+00 0.315D+00 0.331D-01 0.455D+00 0.429D+00
 Coeff-En:   0.000D+00 0.000D+00 0.000D+00 0.000D+00 0.100D+01
 Coeff:     -0.211D+00 0.287D+00 0.302D-01 0.414D+00 0.481D+00
 Gap=     0.221 Goal=   None    Shift=    0.000
 RMSDP=6.21D-03 MaxDP=8.22D-01 DE=-5.02D-02 OVMax= 3.46D-02

 Cycle   6  Pass 1  IDiag  1:
 RMSU=  1.40D-03    CP:  2.67D-01  3.00D+00  1.55D+00  6.95D-01  8.16D-01
 E= -3010.56522576438     Delta-E=       -0.006030525801 Rises=F Damp=F
 DIIS: error= 3.22D-03 at cycle   6 NSaved=   6.
 NSaved= 6 IEnMin= 6 EnMin= -3010.56522576438     IErMin= 6 ErrMin= 3.22D-03
 ErrMax= 3.22D-03  0.00D+00 EMaxC= 1.00D-01 BMatC= 8.55D-04 BMatP= 1.32D-02
 IDIUse=3 WtCom= 9.68D-01 WtEn= 3.22D-02
 Coeff-Com: -0.139D+00 0.187D+00-0.136D-01 0.211D+00 0.310D+00 0.445D+00
 Coeff-En:   0.000D+00 0.000D+00 0.000D+00 0.000D+00 0.125D-01 0.988D+00
 Coeff:     -0.134D+00 0.181D+00-0.131D-01 0.204D+00 0.300D+00 0.462D+00
 Gap=     0.222 Goal=   None    Shift=    0.000
 RMSDP=1.67D-03 MaxDP=2.00D-01 DE=-6.03D-03 OVMax= 1.09D-02

 Cycle   7  Pass 1  IDiag  1:
 RMSU=  3.97D-04    CP:  2.63D-01  3.00D+00  1.52D+00  6.71D-01  9.62D-01
                    CP:  1.03D+00
 E= -3010.56600270974     Delta-E=       -0.000776945359 Rises=F Damp=F
 DIIS: error= 4.83D-04 at cycle   7 NSaved=   7.
 NSaved= 7 IEnMin= 7 EnMin= -3010.56600270974     IErMin= 7 ErrMin= 4.83D-04
 ErrMax= 4.83D-04  0.00D+00 EMaxC= 1.00D-01 BMatC= 5.31D-05 BMatP= 8.55D-04
 IDIUse=3 WtCom= 9.95D-01 WtEn= 4.83D-03
 Coeff-Com: -0.356D-01 0.472D-01-0.201D-01 0.175D-01 0.332D-01 0.152D+00
 Coeff-Com:  0.806D+00
 Coeff-En:   0.000D+00 0.000D+00 0.000D+00 0.000D+00 0.000D+00 0.000D+00
 Coeff-En:   0.100D+01
 Coeff:     -0.354D-01 0.469D-01-0.200D-01 0.174D-01 0.330D-01 0.151D+00
 Coeff:      0.807D+00
 Gap=     0.224 Goal=   None    Shift=    0.000
 RMSDP=8.58D-04 MaxDP=1.01D-01 DE=-7.77D-04 OVMax= 1.06D-02

 Cycle   8  Pass 1  IDiag  1:
 RMSU=  1.97D-04    CP:  2.62D-01  3.00D+00  1.52D+00  6.66D-01  1.05D+00
                    CP:  1.16D+00  1.37D+00
 E= -3010.56621447902     Delta-E=       -0.000211769281 Rises=F Damp=F
 DIIS: error= 3.20D-04 at cycle   8 NSaved=   8.
 NSaved= 8 IEnMin= 8 EnMin= -3010.56621447902     IErMin= 8 ErrMin= 3.20D-04
 ErrMax= 3.20D-04  0.00D+00 EMaxC= 1.00D-01 BMatC= 1.79D-05 BMatP= 5.31D-05
 IDIUse=3 WtCom= 9.97D-01 WtEn= 3.20D-03
 Coeff-Com:  0.872D-02-0.122D-01-0.825D-02-0.343D-01-0.634D-01-0.852D-01
 Coeff-Com:  0.295D+00 0.900D+00
 Coeff-En:   0.000D+00 0.000D+00 0.000D+00 0.000D+00 0.000D+00 0.000D+00
 Coeff-En:   0.000D+00 0.100D+01
 Coeff:      0.869D-02-0.122D-01-0.823D-02-0.342D-01-0.632D-01-0.849D-01
 Coeff:      0.294D+00 0.900D+00
 Gap=     0.224 Goal=   None    Shift=    0.000
 RMSDP=4.32D-04 MaxDP=4.38D-02 DE=-2.12D-04 OVMax= 8.88D-03

 Cycle   9  Pass 1  IDiag  1:
 RMSU=  8.52D-05    CP:  2.62D-01  3.00D+00  1.52D+00  6.65D-01  1.10D+00
                    CP:  1.30D+00  1.94D+00  1.66D+00
 E= -3010.56633014764     Delta-E=       -0.000115668621 Rises=F Damp=F
 DIIS: error= 1.10D-04 at cycle   9 NSaved=   9.
 NSaved= 9 IEnMin= 9 EnMin= -3010.56633014764     IErMin= 9 ErrMin= 1.10D-04
 ErrMax= 1.10D-04  0.00D+00 EMaxC= 1.00D-01 BMatC= 4.08D-06 BMatP= 1.79D-05
 IDIUse=3 WtCom= 9.99D-01 WtEn= 1.10D-03
 Coeff-Com:  0.556D-02-0.726D-02 0.405D-02-0.424D-02-0.164D-01-0.719D-01
 Coeff-Com: -0.286D+00 0.134D+00 0.124D+01
 Coeff-En:   0.000D+00 0.000D+00 0.000D+00 0.000D+00 0.000D+00 0.000D+00
 Coeff-En:   0.000D+00 0.000D+00 0.100D+01
 Coeff:      0.556D-02-0.726D-02 0.405D-02-0.424D-02-0.164D-01-0.718D-01
 Coeff:     -0.286D+00 0.134D+00 0.124D+01
 Gap=     0.224 Goal=   None    Shift=    0.000
 RMSDP=3.90D-04 MaxDP=2.35D-02 DE=-1.16D-04 OVMax= 9.32D-03

 Cycle  10  Pass 1  IDiag  1:
 RMSU=  1.44D-04    CP:  2.62D-01  3.00D+00  1.51D+00  6.57D-01  1.14D+00
                    CP:  1.28D+00  2.27D+00  2.73D+00  2.18D+00
 E= -3010.56638352605     Delta-E=       -0.000053378411 Rises=F Damp=F
 DIIS: error= 4.38D-05 at cycle  10 NSaved=  10.
 NSaved=10 IEnMin=10 EnMin= -3010.56638352605     IErMin=10 ErrMin= 4.38D-05
 ErrMax= 4.38D-05  0.00D+00 EMaxC= 1.00D-01 BMatC= 7.10D-07 BMatP= 4.08D-06
 IDIUse=1 WtCom= 1.00D+00 WtEn= 0.00D+00
 Coeff-Com: -0.353D-02 0.485D-02 0.942D-03 0.738D-02 0.126D-01 0.176D-01
 Coeff-Com: -0.430D-01-0.132D+00 0.396D-02 0.113D+01
 Coeff:     -0.353D-02 0.485D-02 0.942D-03 0.738D-02 0.126D-01 0.176D-01
 Coeff:     -0.430D-01-0.132D+00 0.396D-02 0.113D+01
 Gap=     0.224 Goal=   None    Shift=    0.000
 RMSDP=1.88D-04 MaxDP=1.29D-02 DE=-5.34D-05 OVMax= 3.36D-03

 Cycle  11  Pass 1  IDiag  1:
 RMSU=  3.99D-05    CP:  2.62D-01  3.00D+00  1.50D+00  6.54D-01  1.14D+00
                    CP:  1.23D+00  2.34D+00  3.00D+00  2.85D+00  1.55D+00
 E= -3010.56639104153     Delta-E=       -0.000007515482 Rises=F Damp=F
 DIIS: error= 2.45D-05 at cycle  11 NSaved=  11.
 NSaved=11 IEnMin=11 EnMin= -3010.56639104153     IErMin=11 ErrMin= 2.45D-05
 ErrMax= 2.45D-05  0.00D+00 EMaxC= 1.00D-01 BMatC= 3.07D-07 BMatP= 7.10D-07
 IDIUse=1 WtCom= 1.00D+00 WtEn= 0.00D+00
 Coeff-Com: -0.827D-03 0.107D-02-0.237D-03 0.247D-02 0.732D-02 0.221D-01
 Coeff-Com:  0.691D-01-0.927D-01-0.381D+00 0.439D+00 0.934D+00
 Coeff:     -0.827D-03 0.107D-02-0.237D-03 0.247D-02 0.732D-02 0.221D-01
 Coeff:      0.691D-01-0.927D-01-0.381D+00 0.439D+00 0.934D+00
 Gap=     0.223 Goal=   None    Shift=    0.000
 RMSDP=1.34D-04 MaxDP=8.75D-03 DE=-7.52D-06 OVMax= 2.35D-03

 Cycle  12  Pass 1  IDiag  1:
 RMSU=  3.49D-05    CP:  2.62D-01  3.00D+00  1.50D+00  6.52D-01  1.15D+00
                    CP:  1.20D+00  2.39D+00  3.00D+00  3.00D+00  2.03D+00
                    CP:  2.30D+00
 E= -3010.56639320556     Delta-E=       -0.000002164026 Rises=F Damp=F
 DIIS: error= 1.09D-05 at cycle  12 NSaved=  12.
 NSaved=12 IEnMin=12 EnMin= -3010.56639320556     IErMin=12 ErrMin= 1.09D-05
 ErrMax= 1.09D-05  0.00D+00 EMaxC= 1.00D-01 BMatC= 3.30D-08 BMatP= 3.07D-07
 IDIUse=1 WtCom= 1.00D+00 WtEn= 0.00D+00
 Coeff-Com: -0.418D-04 0.356D-04-0.240D-03-0.657D-05 0.180D-03 0.258D-02
 Coeff-Com:  0.236D-01-0.162D-01-0.901D-01-0.220D-01 0.220D+00 0.882D+00
 Coeff:     -0.418D-04 0.356D-04-0.240D-03-0.657D-05 0.180D-03 0.258D-02
 Coeff:      0.236D-01-0.162D-01-0.901D-01-0.220D-01 0.220D+00 0.882D+00
 Gap=     0.223 Goal=   None    Shift=    0.000
 RMSDP=4.44D-05 MaxDP=3.78D-03 DE=-2.16D-06 OVMax= 6.00D-04

 Cycle  13  Pass 1  IDiag  1:
 RMSU=  7.27D-06    CP:  2.62D-01  3.00D+00  1.50D+00  6.52D-01  1.15D+00
                    CP:  1.20D+00  2.40D+00  3.00D+00  3.00D+00  2.16D+00
                    CP:  2.60D+00  1.29D+00
 E= -3010.56639336221     Delta-E=       -0.000000156656 Rises=F Damp=F
 DIIS: error= 4.43D-06 at cycle  13 NSaved=  13.
 NSaved=13 IEnMin=13 EnMin= -3010.56639336221     IErMin=13 ErrMin= 4.43D-06
 ErrMax= 4.43D-06  0.00D+00 EMaxC= 1.00D-01 BMatC= 6.69D-09 BMatP= 3.30D-08
 IDIUse=1 WtCom= 1.00D+00 WtEn= 0.00D+00
 Coeff-Com:  0.141D-03-0.190D-03-0.750D-04-0.596D-03-0.152D-02-0.334D-02
 Coeff-Com: -0.368D-02 0.116D-01 0.473D-01-0.927D-01-0.112D+00 0.319D+00
 Coeff-Com:  0.836D+00
 Coeff:      0.141D-03-0.190D-03-0.750D-04-0.596D-03-0.152D-02-0.334D-02
 Coeff:     -0.368D-02 0.116D-01 0.473D-01-0.927D-01-0.112D+00 0.319D+00
 Coeff:      0.836D+00
 Gap=     0.223 Goal=   None    Shift=    0.000
 RMSDP=1.41D-05 MaxDP=1.14D-03 DE=-1.57D-07 OVMax= 1.83D-04

 Cycle  14  Pass 1  IDiag  1:
 RMSU=  4.45D-06    CP:  2.62D-01  3.00D+00  1.50D+00  6.52D-01  1.15D+00
                    CP:  1.20D+00  2.40D+00  3.00D+00  3.00D+00  2.19D+00
                    CP:  2.66D+00  1.34D+00  1.39D+00
 E= -3010.56639339316     Delta-E=       -0.000000030948 Rises=F Damp=F
 DIIS: error= 2.73D-06 at cycle  14 NSaved=  14.
 NSaved=14 IEnMin=14 EnMin= -3010.56639339316     IErMin=14 ErrMin= 2.73D-06
 ErrMax= 2.73D-06  0.00D+00 EMaxC= 1.00D-01 BMatC= 1.55D-09 BMatP= 6.69D-09
 IDIUse=1 WtCom= 1.00D+00 WtEn= 0.00D+00
 Coeff-Com:  0.873D-04-0.114D-03 0.336D-04-0.199D-03-0.452D-03-0.137D-02
 Coeff-Com: -0.473D-02 0.605D-02 0.295D-01-0.269D-01-0.710D-01-0.719D-01
 Coeff-Com:  0.267D+00 0.874D+00
 Coeff:      0.873D-04-0.114D-03 0.336D-04-0.199D-03-0.452D-03-0.137D-02
 Coeff:     -0.473D-02 0.605D-02 0.295D-01-0.269D-01-0.710D-01-0.719D-01
 Coeff:      0.267D+00 0.874D+00
 Gap=     0.223 Goal=   None    Shift=    0.000
 RMSDP=5.58D-06 MaxDP=4.63D-04 DE=-3.09D-08 OVMax= 9.65D-05

 Cycle  15  Pass 1  IDiag  1:
 RMSU=  1.16D-06    CP:  2.62D-01  3.00D+00  1.50D+00  6.52D-01  1.15D+00
                    CP:  1.20D+00  2.41D+00  3.00D+00  3.00D+00  2.21D+00
                    CP:  2.69D+00  1.37D+00  1.63D+00  1.42D+00
 E= -3010.56639340228     Delta-E=       -0.000000009113 Rises=F Damp=F
 DIIS: error= 1.29D-06 at cycle  15 NSaved=  15.
 NSaved=15 IEnMin=15 EnMin= -3010.56639340228     IErMin=15 ErrMin= 1.29D-06
 ErrMax= 1.29D-06  0.00D+00 EMaxC= 1.00D-01 BMatC= 3.46D-10 BMatP= 1.55D-09
 IDIUse=1 WtCom= 1.00D+00 WtEn= 0.00D+00
 Coeff-Com: -0.917D-06 0.198D-05 0.237D-04 0.654D-04 0.192D-03 0.329D-03
 Coeff-Com: -0.623D-04-0.748D-03-0.302D-02 0.121D-01 0.311D-02-0.853D-01
 Coeff-Com: -0.685D-01 0.226D+00 0.915D+00
 Coeff:     -0.917D-06 0.198D-05 0.237D-04 0.654D-04 0.192D-03 0.329D-03
 Coeff:     -0.623D-04-0.748D-03-0.302D-02 0.121D-01 0.311D-02-0.853D-01
 Coeff:     -0.685D-01 0.226D+00 0.915D+00
 Gap=     0.223 Goal=   None    Shift=    0.000
 RMSDP=3.29D-06 MaxDP=2.72D-04 DE=-9.11D-09 OVMax= 4.90D-05

 Cycle  16  Pass 1  IDiag  1:
 RMSU=  6.33D-07    CP:  2.62D-01  3.00D+00  1.50D+00  6.52D-01  1.15D+00
                    CP:  1.20D+00  2.41D+00  3.00D+00  3.00D+00  2.22D+00
                    CP:  2.70D+00  1.39D+00  1.75D+00  1.57D+00  1.39D+00
 E= -3010.56639340536     Delta-E=       -0.000000003079 Rises=F Damp=F
 DIIS: error= 6.50D-07 at cycle  16 NSaved=  16.
 NSaved=16 IEnMin=16 EnMin= -3010.56639340536     IErMin=16 ErrMin= 6.50D-07
 ErrMax= 6.50D-07  0.00D+00 EMaxC= 1.00D-01 BMatC= 1.18D-10 BMatP= 3.46D-10
 IDIUse=1 WtCom= 1.00D+00 WtEn= 0.00D+00
 Coeff-Com: -0.470D-04 0.626D-04-0.901D-05 0.946D-04 0.187D-03 0.479D-03
 Coeff-Com:  0.147D-02-0.193D-02-0.104D-01 0.138D-01 0.227D-01-0.633D-02
 Coeff-Com: -0.103D+00-0.242D+00 0.259D+00 0.107D+01
 Coeff:     -0.470D-04 0.626D-04-0.901D-05 0.946D-04 0.187D-03 0.479D-03
 Coeff:      0.147D-02-0.193D-02-0.104D-01 0.138D-01 0.227D-01-0.633D-02
 Coeff:     -0.103D+00-0.242D+00 0.259D+00 0.107D+01
 Gap=     0.223 Goal=   None    Shift=    0.000
 RMSDP=1.73D-06 MaxDP=1.21D-04 DE=-3.08D-09 OVMax= 4.89D-05

 Cycle  17  Pass 1  IDiag  1:
 RMSU=  3.21D-07    CP:  2.62D-01  3.00D+00  1.50D+00  6.52D-01  1.15D+00
                    CP:  1.20D+00  2.41D+00  3.00D+00  3.00D+00  2.22D+00
                    CP:  2.71D+00  1.40D+00  1.82D+00  1.65D+00  1.73D+00
                    CP:  1.84D+00
 E= -3010.56639340679     Delta-E=       -0.000000001438 Rises=F Damp=F
 DIIS: error= 2.78D-07 at cycle  17 NSaved=  17.
 NSaved=17 IEnMin=17 EnMin= -3010.56639340679     IErMin=17 ErrMin= 2.78D-07
 ErrMax= 2.78D-07  0.00D+00 EMaxC= 1.00D-01 BMatC= 2.88D-11 BMatP= 1.18D-10
 IDIUse=1 WtCom= 1.00D+00 WtEn= 0.00D+00
 Coeff-Com: -0.151D-04 0.198D-04-0.842D-05 0.120D-04-0.181D-05 0.219D-04
 Coeff-Com:  0.420D-03-0.289D-03-0.212D-02 0.476D-04 0.564D-02 0.191D-01
 Coeff-Com: -0.708D-03-0.111D+00-0.194D+00 0.179D+00 0.110D+01
 Coeff:     -0.151D-04 0.198D-04-0.842D-05 0.120D-04-0.181D-05 0.219D-04
 Coeff:      0.420D-03-0.289D-03-0.212D-02 0.476D-04 0.564D-02 0.191D-01
 Coeff:     -0.708D-03-0.111D+00-0.194D+00 0.179D+00 0.110D+01
 Gap=     0.223 Goal=   None    Shift=    0.000
 RMSDP=1.10D-06 MaxDP=1.15D-04 DE=-1.44D-09 OVMax= 2.55D-05

 Cycle  18  Pass 1  IDiag  1:
 RMSU=  1.29D-07    CP:  2.62D-01  3.00D+00  1.50D+00  6.52D-01  1.15D+00
                    CP:  1.20D+00  2.41D+00  3.00D+00  3.00D+00  2.22D+00
                    CP:  2.71D+00  1.41D+00  1.85D+00  1.65D+00  1.85D+00
                    CP:  2.45D+00  1.90D+00
 E= -3010.56639340717     Delta-E=       -0.000000000377 Rises=F Damp=F
 DIIS: error= 1.19D-07 at cycle  18 NSaved=  18.
 NSaved=18 IEnMin=18 EnMin= -3010.56639340717     IErMin=18 ErrMin= 1.19D-07
 ErrMax= 1.19D-07  0.00D+00 EMaxC= 1.00D-01 BMatC= 6.68D-12 BMatP= 2.88D-11
 IDIUse=1 WtCom= 1.00D+00 WtEn= 0.00D+00
 Coeff-Com:  0.292D-05-0.392D-05-0.118D-05-0.145D-04-0.456D-04-0.124D-03
 Coeff-Com: -0.242D-03 0.407D-03 0.179D-02-0.347D-02-0.276D-02 0.790D-02
 Coeff-Com:  0.260D-01 0.216D-01-0.129D+00-0.194D+00 0.370D+00 0.902D+00
 Coeff:      0.292D-05-0.392D-05-0.118D-05-0.145D-04-0.456D-04-0.124D-03
 Coeff:     -0.242D-03 0.407D-03 0.179D-02-0.347D-02-0.276D-02 0.790D-02
 Coeff:      0.260D-01 0.216D-01-0.129D+00-0.194D+00 0.370D+00 0.902D+00
 Gap=     0.223 Goal=   None    Shift=    0.000
 RMSDP=5.32D-07 MaxDP=5.98D-05 DE=-3.77D-10 OVMax= 1.00D-05

 Cycle  19  Pass 1  IDiag  1:
 RMSU=  5.01D-08    CP:  2.62D-01  3.00D+00  1.50D+00  6.52D-01  1.15D+00
                    CP:  1.20D+00  2.41D+00  3.00D+00  3.00D+00  2.22D+00
                    CP:  2.72D+00  1.41D+00  1.86D+00  1.63D+00  1.86D+00
                    CP:  2.67D+00  2.38D+00  1.49D+00
 E= -3010.56639340721     Delta-E=       -0.000000000037 Rises=F Damp=F
 DIIS: error= 7.73D-08 at cycle  19 NSaved=  19.
 NSaved=19 IEnMin=19 EnMin= -3010.56639340721     IErMin=19 ErrMin= 7.73D-08
 ErrMax= 7.73D-08  0.00D+00 EMaxC= 1.00D-01 BMatC= 1.25D-12 BMatP= 6.68D-12
 IDIUse=1 WtCom= 1.00D+00 WtEn= 0.00D+00
 Coeff-Com: -0.871D-06 0.123D-05 0.167D-06 0.103D-07-0.718D-06-0.178D-04
 Coeff-Com: -0.112D-03 0.108D-03 0.555D-03-0.681D-03-0.105D-02-0.282D-02
 Coeff-Com:  0.387D-02 0.220D-01 0.166D-01-0.636D-01-0.172D+00 0.205D+00
 Coeff-Com:  0.992D+00
 Coeff:     -0.871D-06 0.123D-05 0.167D-06 0.103D-07-0.718D-06-0.178D-04
 Coeff:     -0.112D-03 0.108D-03 0.555D-03-0.681D-03-0.105D-02-0.282D-02
 Coeff:      0.387D-02 0.220D-01 0.166D-01-0.636D-01-0.172D+00 0.205D+00
 Coeff:      0.992D+00
 Gap=     0.223 Goal=   None    Shift=    0.000
 RMSDP=1.70D-07 MaxDP=8.30D-06 DE=-3.68D-11 OVMax= 4.02D-06

 Cycle  20  Pass 1  IDiag  1:
 RMSU=  2.53D-08    CP:  2.62D-01  3.00D+00  1.50D+00  6.52D-01  1.15D+00
                    CP:  1.20D+00  2.41D+00  3.00D+00  3.00D+00  2.22D+00
                    CP:  2.72D+00  1.42D+00  1.86D+00  1.62D+00  1.85D+00
                    CP:  2.77D+00  2.57D+00  1.73D+00  1.36D+00
 E= -3010.56639340723     Delta-E=       -0.000000000022 Rises=F Damp=F
 DIIS: error= 2.03D-08 at cycle  20 NSaved=  20.
 NSaved=20 IEnMin=20 EnMin= -3010.56639340723     IErMin=20 ErrMin= 2.03D-08
 ErrMax= 2.03D-08  0.00D+00 EMaxC= 1.00D-01 BMatC= 1.00D-13 BMatP= 1.25D-12
 IDIUse=1 WtCom= 1.00D+00 WtEn= 0.00D+00
 Coeff-Com: -0.387D-06 0.524D-06 0.174D-06 0.198D-05 0.759D-05 0.159D-04
 Coeff-Com:  0.191D-04-0.464D-04-0.185D-03 0.406D-03 0.338D-03-0.169D-02
 Coeff-Com: -0.270D-02-0.133D-03 0.217D-01 0.166D-01-0.846D-01-0.816D-01
 Coeff-Com:  0.162D+00 0.970D+00
 Coeff:     -0.387D-06 0.524D-06 0.174D-06 0.198D-05 0.759D-05 0.159D-04
 Coeff:      0.191D-04-0.464D-04-0.185D-03 0.406D-03 0.338D-03-0.169D-02
 Coeff:     -0.270D-02-0.133D-03 0.217D-01 0.166D-01-0.846D-01-0.816D-01
 Coeff:      0.162D+00 0.970D+00
 Gap=     0.223 Goal=   None    Shift=    0.000
 RMSDP=6.73D-08 MaxDP=7.97D-06 DE=-2.18D-11 OVMax= 7.24D-07

 Cycle  21  Pass 1  IDiag  1:
 Restarting incremental Fock formation.
 E= -3010.56639340724     Delta-E=       -0.000000000010 Rises=F Damp=F
 DIIS: error= 6.97D-09 at cycle  21 NSaved=  20.
 NSaved=20 IEnMin=20 EnMin= -3010.56639340724     IErMin=20 ErrMin= 6.97D-09
 ErrMax= 6.97D-09  0.00D+00 EMaxC= 1.00D-01 BMatC= 1.66D-14 BMatP= 1.00D-13
 IDIUse=1 WtCom= 1.00D+00 WtEn= 0.00D+00
 Coeff-Com: -0.548D-08 0.991D-08 0.443D-06 0.211D-05 0.660D-05 0.194D-04
 Coeff-Com: -0.251D-04-0.112D-03 0.191D-03 0.193D-03-0.315D-03-0.979D-03
 Coeff-Com: -0.231D-02 0.550D-02 0.114D-01-0.722D-02-0.460D-01-0.697D-01
 Coeff-Com:  0.275D+00 0.835D+00
 Coeff:     -0.548D-08 0.991D-08 0.443D-06 0.211D-05 0.660D-05 0.194D-04
 Coeff:     -0.251D-04-0.112D-03 0.191D-03 0.193D-03-0.315D-03-0.979D-03
 Coeff:     -0.231D-02 0.550D-02 0.114D-01-0.722D-02-0.460D-01-0.697D-01
 Coeff:      0.275D+00 0.835D+00
 Gap=     0.223 Goal=   None    Shift=    0.000
 RMSDP=9.86D-09 MaxDP=1.08D-06 DE=-1.00D-11 OVMax= 1.17D-07

 Cycle  22  Pass 1  IDiag  1:
 RMSU=  7.41D-09    CP:  1.00D+00
 E= -3010.56639340727     Delta-E=       -0.000000000034 Rises=F Damp=F
 DIIS: error= 4.50D-09 at cycle  22 NSaved=  20.
 NSaved=20 IEnMin=20 EnMin= -3010.56639340727     IErMin=20 ErrMin= 4.50D-09
 ErrMax= 4.50D-09  0.00D+00 EMaxC= 1.00D-01 BMatC= 1.46D-15 BMatP= 1.66D-14
 IDIUse=1 WtCom= 1.00D+00 WtEn= 0.00D+00
 Large coefficients: NSaved= 20 BigCof=    0.00 CofMax=   10.00 Det=-7.68D-15
 Inversion failed.  Reducing to 19 matrices.
 Large coefficients: NSaved= 19 BigCof=    0.00 CofMax=   10.00 Det=-7.76D-15
 Inversion failed.  Reducing to 18 matrices.
 Large coefficients: NSaved= 18 BigCof=    0.00 CofMax=   10.00 Det=-8.77D-15
 Inversion failed.  Reducing to 17 matrices.
 Large coefficients: NSaved= 17 BigCof=    0.00 CofMax=   10.00 Det=-8.92D-15
 Inversion failed.  Reducing to 16 matrices.
 Large coefficients: NSaved= 16 BigCof=    0.00 CofMax=   10.00 Det=-9.32D-15
 Inversion failed.  Reducing to 15 matrices.
 Coeff-Com: -0.189D-05-0.283D-05 0.848D-05 0.119D-04 0.160D-04 0.953D-04
 Coeff-Com: -0.339D-03-0.856D-03-0.112D-03 0.560D-02 0.313D-02-0.248D-01
 Coeff-Com: -0.434D-01 0.105D+00 0.956D+00
 Coeff:     -0.189D-05-0.283D-05 0.848D-05 0.119D-04 0.160D-04 0.953D-04
 Coeff:     -0.339D-03-0.856D-03-0.112D-03 0.560D-02 0.313D-02-0.248D-01
 Coeff:     -0.434D-01 0.105D+00 0.956D+00
 Gap=     0.223 Goal=   None    Shift=    0.000
 RMSDP=3.86D-09 MaxDP=3.18D-07 DE=-3.37D-11 OVMax= 4.98D-08

 SCF Done:  E(RwB97XD) =  -3010.56639341     A.U. after   22 cycles
            NFock= 22  Conv=0.39D-08     -V/T= 2.0016
 KE= 3.005787920073D+03 PE=-8.694953227035D+03 EE= 1.909076249990D+03
 Leave Link  502 at Thu May  2 14:21:09 2024, MaxMem=   134217728 cpu:            1308.8 elap:            1308.9
 (Enter /software/gaussian/g16-c01/sse4/g16/l601.exe)
 Copying SCF densities to generalized density rwf, IOpCl= 0 IROHF=0.

 **********************************************************************

            Population analysis using the SCF Density.

 **********************************************************************

 Alpha  occ. eigenvalues -- -483.27203 -62.82137 -56.61911 -56.61243 -56.61213
 Alpha  occ. eigenvalues --  -19.45675 -19.45668 -14.85011 -10.57686 -10.55733
 Alpha  occ. eigenvalues --  -10.55657 -10.55021 -10.51940 -10.51388  -8.97878
 Alpha  occ. eigenvalues --   -6.80765  -6.78597  -6.78505  -2.90617  -2.90066
 Alpha  occ. eigenvalues --   -2.89993  -2.88261  -2.88259  -1.49318  -1.32303
 Alpha  occ. eigenvalues --   -1.20693  -1.11373  -1.10281  -1.02004  -0.98215
 Alpha  occ. eigenvalues --   -0.93591  -0.89107  -0.84000  -0.79891  -0.79200
 Alpha  occ. eigenvalues --   -0.78848  -0.76560  -0.75324  -0.74072  -0.69821
 Alpha  occ. eigenvalues --   -0.66976  -0.66052  -0.60744  -0.57754  -0.56780
 Alpha  occ. eigenvalues --   -0.56028  -0.55324  -0.51131  -0.50375
 Alpha virt. eigenvalues --   -0.28037  -0.19536  -0.15357  -0.12995  -0.11567
 Alpha virt. eigenvalues --   -0.10787  -0.10558  -0.07055  -0.06356  -0.05148
 Alpha virt. eigenvalues --   -0.03038  -0.01458   0.00077   0.00120   0.01106
 Alpha virt. eigenvalues --    0.02297   0.03234   0.03643   0.04784   0.06004
 Alpha virt. eigenvalues --    0.06497   0.06803   0.07592   0.08237   0.08512
 Alpha virt. eigenvalues --    0.08778   0.09651   0.10371   0.10576   0.11872
 Alpha virt. eigenvalues --    0.12308   0.12782   0.13570   0.13974   0.15203
 Alpha virt. eigenvalues --    0.15651   0.16611   0.17121   0.17813   0.18508
 Alpha virt. eigenvalues --    0.19226   0.19621   0.20027   0.20802   0.21839
 Alpha virt. eigenvalues --    0.22096   0.23234   0.23899   0.24107   0.25532
 Alpha virt. eigenvalues --    0.26585   0.27189   0.30169   0.31838   0.33526
 Alpha virt. eigenvalues --    0.34370   0.35525   0.36702   0.37955   0.39477
 Alpha virt. eigenvalues --    0.40450   0.40884   0.42251   0.42527   0.44451
 Alpha virt. eigenvalues --    0.45491   0.46052   0.47785   0.48544   0.49636
 Alpha virt. eigenvalues --    0.50545   0.51978   0.53161   0.54435   0.55260
 Alpha virt. eigenvalues --    0.56420   0.58066   0.59490   0.59942   0.61727
 Alpha virt. eigenvalues --    0.63055   0.64239   0.67208   0.69768   0.71133
 Alpha virt. eigenvalues --    0.72737   0.73213   0.74224   0.75505   0.76372
 Alpha virt. eigenvalues --    0.77101   0.78600   0.80982   0.86615   0.87395
 Alpha virt. eigenvalues --    0.88586   0.90165   0.92725   0.96216   0.99888
 Alpha virt. eigenvalues --    1.01435   1.04291   1.05311   1.07237   1.08227
 Alpha virt. eigenvalues --    1.10134   1.13251   1.14222   1.15116   1.19263
 Alpha virt. eigenvalues --    1.21749   1.23717   1.29539   1.35000   1.37751
 Alpha virt. eigenvalues --    1.38419   1.40504   1.45325   1.56640   1.58042
 Alpha virt. eigenvalues --    1.58502   1.60974   1.62711   1.65360   1.67606
 Alpha virt. eigenvalues --    1.69347   1.73184   1.74847   1.76774   1.81092
 Alpha virt. eigenvalues --    1.85428   1.86818   1.88749   1.98598   1.99970
 Alpha virt. eigenvalues --    2.00146   2.04401   2.05645   2.08999   2.11370
 Alpha virt. eigenvalues --    2.15296   2.16732   2.23695   2.24805   2.28776
 Alpha virt. eigenvalues --    2.34996   2.40985   2.42604   2.45577   2.54850
 Alpha virt. eigenvalues --    2.59412   2.64603   2.67543   2.70241   2.72328
 Alpha virt. eigenvalues --    2.74646   2.77125   2.78702   2.81377   2.83854
 Alpha virt. eigenvalues --    2.95040   2.99391   3.02642   3.07489   3.10619
 Alpha virt. eigenvalues --    3.16354   3.17843   3.18957   3.23306   3.27227
 Alpha virt. eigenvalues --    3.29149   3.38978   3.48218   3.51433   3.55522
 Alpha virt. eigenvalues --    3.58902   3.69535   3.74898   3.85316   3.89075
 Alpha virt. eigenvalues --    4.14567   4.15513   4.23584   4.27897   4.45358
 Alpha virt. eigenvalues --    4.47957   4.56344   4.60843   4.94118   4.96851
 Alpha virt. eigenvalues --    5.05822   5.10197   5.62622   6.15683   6.72511
 Alpha virt. eigenvalues --    7.53657   7.55863   7.65812  23.23939  23.62939
 Alpha virt. eigenvalues --   23.74174  23.79939  23.97290  24.03735  35.32156
 Alpha virt. eigenvalues --   47.98280  49.85783  49.94444 289.85832 289.88162
 Alpha virt. eigenvalues --  290.007321020.99333
          Condensed to atoms (all electrons):
               1          2          3          4          5          6
     1  C    8.023023  -1.045500   0.170254   0.129534   0.294134   0.052501
     2  C   -1.045500  22.729369  -2.332901   0.535090   0.006337   0.202982
     3  C    0.170254  -2.332901  26.205656  -1.601599  -0.008866   0.104065
     4  C    0.129534   0.535090  -1.601599   6.580762   0.030265  -0.012078
     5  H    0.294134   0.006337  -0.008866   0.030265   0.333366  -0.001703
     6  H    0.052501   0.202982   0.104065  -0.012078  -0.001703   0.313854
     7  H    0.012345  -0.025200   0.007487   0.324753  -0.002249   0.000009
     8  N   -0.136861  -0.955930  -3.312430   0.026730   0.000240  -0.034250
     9  O    0.060844   0.902572   0.736741  -0.016347  -0.000031  -0.002681
    10  O    0.214233  -0.309133  -0.351038  -0.006590  -0.000001   0.021597
    11  C    1.008099  -0.188199   3.067166  -0.458195  -0.035846   0.008635
    12  H   -0.023436   0.034662  -0.004934   0.029902   0.000111  -0.000029
    13  C   -2.579558 -13.489923 -16.478710   0.842411   0.038275  -0.002713
    14  H    0.022855   0.055648   0.176328  -0.020462  -0.000096   0.000188
    15  Br  -0.019079  -0.378414  -0.371170  -0.033663   0.001108  -0.000650
               7          8          9         10         11         12
     1  C    0.012345  -0.136861   0.060844   0.214233   1.008099  -0.023436
     2  C   -0.025200  -0.955930   0.902572  -0.309133  -0.188199   0.034662
     3  C    0.007487  -3.312430   0.736741  -0.351038   3.067166  -0.004934
     4  C    0.324753   0.026730  -0.016347  -0.006590  -0.458195   0.029902
     5  H   -0.002249   0.000240  -0.000031  -0.000001  -0.035846   0.000111
     6  H    0.000009  -0.034250  -0.002681   0.021597   0.008635  -0.000029
     7  H    0.342115   0.000317  -0.000042   0.000017  -0.003706  -0.002029
     8  N    0.000317   8.238728  -0.263384   0.270293  -0.345503   0.000783
     9  O   -0.000042  -0.263384   8.125285  -0.039636   0.272848   0.000243
    10  O    0.000017   0.270293  -0.039636   7.817165  -0.036027  -0.000064
    11  C   -0.003706  -0.345503   0.272848  -0.036027   9.009186   0.280714
    12  H   -0.002029   0.000783   0.000243  -0.000064   0.280714   0.337080
    13  C    0.017684   3.643004  -1.814932   0.333923  -6.359240  -0.001834
    14  H   -0.000033  -0.071150   0.029924  -0.001800   0.099794  -0.009224
    15  Br   0.000289   0.239425  -0.081136   0.014729  -0.056715   0.006612
              13         14         15
     1  C   -2.579558   0.022855  -0.019079
     2  C  -13.489923   0.055648  -0.378414
     3  C  -16.478710   0.176328  -0.371170
     4  C    0.842411  -0.020462  -0.033663
     5  H    0.038275  -0.000096   0.001108
     6  H   -0.002713   0.000188  -0.000650
     7  H    0.017684  -0.000033   0.000289
     8  N    3.643004  -0.071150   0.239425
     9  O   -1.814932   0.029924  -0.081136
    10  O    0.333923  -0.001800   0.014729
    11  C   -6.359240   0.099794  -0.056715
    12  H   -0.001834  -0.009224   0.006612
    13  C   41.462260  -0.023938   0.879510
    14  H   -0.023938   0.478730  -0.060287
    15  Br   0.879510  -0.060287  34.409288
 Mulliken charges:
               1
     1  C   -0.183389
     2  C    0.258541
     3  C   -0.006050
     4  C   -0.350510
     5  H    0.344953
     6  H    0.350273
     7  H    0.328244
     8  N   -0.300013
     9  O    0.089732
    10  O    0.072332
    11  C   -0.263012
    12  H    0.351445
    13  C   -0.466220
    14  H    0.323523
    15  Br   0.450152
 Sum of Mulliken charges =   1.00000
 Mulliken charges with hydrogens summed into heavy atoms:
               1
     1  C    0.161563
     2  C    0.608814
     3  C   -0.006050
     4  C   -0.022266
     8  N   -0.300013
     9  O    0.089732
    10  O    0.072332
    11  C    0.088432
    13  C   -0.142697
    15  Br   0.450152
 Electronic spatial extent (au):  <R**2>=           3940.6515
 Charge=              1.0000 electrons
 Dipole moment (field-independent basis, Debye):
    X=              3.2313    Y=             -2.0628    Z=             -5.7459  Tot=              6.9073
 Quadrupole moment (field-independent basis, Debye-Ang):
   XX=            -67.8902   YY=            -49.4133   ZZ=            -56.4913
   XY=             -5.3474   XZ=            -12.8334   YZ=              7.2942
 Traceless Quadrupole moment (field-independent basis, Debye-Ang):
   XX=             -9.9586   YY=              8.5183   ZZ=              1.4403
   XY=             -5.3474   XZ=            -12.8334   YZ=              7.2942
 Octapole moment (field-independent basis, Debye-Ang**2):
  XXX=           -517.4746  YYY=             83.6536  ZZZ=             58.0309  XYY=           -131.2986
  XXY=             19.1753  XXZ=             -6.5350  XZZ=           -119.3228  YZZ=              4.0860
  YYZ=              9.3925  XYZ=             18.9633
 Hexadecapole moment (field-independent basis, Debye-Ang**3):
 XXXX=          -3489.0989 YYYY=           -683.9176 ZZZZ=           -340.0384 XXXY=            168.7011
 XXXZ=             72.7123 YYYX=            166.2402 YYYZ=           -141.6053 ZZZX=            114.8269
 ZZZY=           -105.5778 XXYY=           -612.2498 XXZZ=           -494.5878 YYZZ=           -142.3205
 XXYZ=            -12.9912 YYXZ=             14.1937 ZZXY=              0.0454
 N-N= 7.695226635642D+02 E-N=-8.694953226779D+03  KE= 3.005787920073D+03
 No NMR shielding tensors so no spin-rotation constants.
 Leave Link  601 at Thu May  2 14:21:17 2024, MaxMem=   134217728 cpu:               7.6 elap:               7.6
 (Enter /software/gaussian/g16-c01/sse4/g16/l9999.exe)
 Unable to Open any file for archive entry.
 1\1\GINC-BHX0021\SP\RwB97XD\6-311+G(d)\C6H5Br1N1O2(1+)\BWEIGHT\02-May-
 2024\0\\#P wB97XD/6-311+G* NoSymm #P Field=Z+272\\TitleMe\\1,1\C,0,0.5
 193,1.233,-0.0319\C,0,1.9445,1.2692,-0.0367\C,0,2.6204,0.0928,-0.025\C
 ,0,-0.196,0.0301,0.001\H,0,-0.0207,2.1742,-0.0434\H,0,2.4828,2.2089,-0
 .0361\H,0,-1.2777,0.0399,0.0117\N,0,4.0921,0.0959,0.0366\O,0,4.6393,-1
 .0217,0.1446\O,0,4.6649,1.1984,-0.0233\C,0,0.4943,-1.1671,0.021\H,0,-0
 .0325,-2.1149,0.0545\C,0,1.9629,-1.2165,-0.0211\H,0,2.4436,-1.9631,0.6
 151\Br,0,2.173,-1.9491,-1.9062\\Version=ES64L-G16RevC.01\HF=-3010.5663
 934\RMSD=3.856e-09\Dipole=-3.0579403,0.4165652,-1.0113896\Quadrupole=-
 7.4039821,6.3331293,1.0708528,-3.9756603,-9.5413159,5.4230379\PG=C01 [
 X(C6H5Br1N1O2)]\\@
 The archive entry for this job was punched.


 This summer one third of the nation will be ill-housed
 ill-nourished and ill-clad. Only they call it a vacation.
 -- Jonas Salk
 Job cpu time:       0 days  0 hours 22 minutes 57.9 seconds.
 Elapsed time:       0 days  0 hours 22 minutes 57.9 seconds.
 File lengths (MBytes):  RWF=     40 Int=      0 D2E=      0 Chk=     32 Scr=      1
 Normal termination of Gaussian 16 at Thu May  2 14:21:18 2024.
