 Entering Gaussian System, Link 0=g16
 Initial command:
 /software/gaussian/g16-a03/l1.exe "/local_scratch/6484817/Gau-29883.inp" -scrdir="/local_scratch/6484817/"
 Entering Link 1 = /software/gaussian/g16-a03/l1.exe PID=     29929.
  
 Copyright (c) 1988,1990,1992,1993,1995,1998,2003,2009,2016,
            Gaussian, Inc.  All Rights Reserved.
  
 This is part of the Gaussian(R) 16 program.  It is based on
 the Gaussian(R) 09 system (copyright 2009, Gaussian, Inc.),
 the Gaussian(R) 03 system (copyright 2003, Gaussian, Inc.),
 the Gaussian(R) 98 system (copyright 1998, Gaussian, Inc.),
 the Gaussian(R) 94 system (copyright 1995, Gaussian, Inc.),
 the Gaussian 92(TM) system (copyright 1992, Gaussian, Inc.),
 the Gaussian 90(TM) system (copyright 1990, Gaussian, Inc.),
 the Gaussian 88(TM) system (copyright 1988, Gaussian, Inc.),
 the Gaussian 86(TM) system (copyright 1986, Carnegie Mellon
 University), and the Gaussian 82(TM) system (copyright 1983,
 Carnegie Mellon University). Gaussian is a federally registered
 trademark of Gaussian, Inc.
  
 This software contains proprietary and confidential information,
 including trade secrets, belonging to Gaussian, Inc.
  
 This software is provided under written license and may be
 used, copied, transmitted, or stored only in accord with that
 written license.
  
 The following legend is applicable only to US Government
 contracts under FAR:
  
                    RESTRICTED RIGHTS LEGEND
  
 Use, reproduction and disclosure by the US Government is
 subject to restrictions as set forth in subparagraphs (a)
 and (c) of the Commercial Computer Software - Restricted
 Rights clause in FAR 52.227-19.
  
 Gaussian, Inc.
 340 Quinnipiac St., Bldg. 40, Wallingford CT 06492
  
  
 ---------------------------------------------------------------
 Warning -- This program may not be used in any manner that
 competes with the business of Gaussian, Inc. or will provide
 assistance to any competitor of Gaussian, Inc.  The licensee
 of this program is prohibited from giving any competitor of
 Gaussian, Inc. access to this program.  By using this program,
 the user acknowledges that Gaussian, Inc. is engaged in the
 business of creating and licensing software in the field of
 computational chemistry and represents and warrants to the
 licensee that it is not a competitor of Gaussian, Inc. and that
 it will not use this program in any manner prohibited above.
 ---------------------------------------------------------------
  

 Cite this work as:
 Gaussian 16, Revision A.03,
 M. J. Frisch, G. W. Trucks, H. B. Schlegel, G. E. Scuseria, 
 M. A. Robb, J. R. Cheeseman, G. Scalmani, V. Barone, 
 G. A. Petersson, H. Nakatsuji, X. Li, M. Caricato, A. V. Marenich, 
 J. Bloino, B. G. Janesko, R. Gomperts, B. Mennucci, H. P. Hratchian, 
 J. V. Ortiz, A. F. Izmaylov, J. L. Sonnenberg, D. Williams-Young, 
 F. Ding, F. Lipparini, F. Egidi, J. Goings, B. Peng, A. Petrone, 
 T. Henderson, D. Ranasinghe, V. G. Zakrzewski, J. Gao, N. Rega, 
 G. Zheng, W. Liang, M. Hada, M. Ehara, K. Toyota, R. Fukuda, 
 J. Hasegawa, M. Ishida, T. Nakajima, Y. Honda, O. Kitao, H. Nakai, 
 T. Vreven, K. Throssell, J. A. Montgomery, Jr., J. E. Peralta, 
 F. Ogliaro, M. J. Bearpark, J. J. Heyd, E. N. Brothers, K. N. Kudin, 
 V. N. Staroverov, T. A. Keith, R. Kobayashi, J. Normand, 
 K. Raghavachari, A. P. Rendell, J. C. Burant, S. S. Iyengar, 
 J. Tomasi, M. Cossi, J. M. Millam, M. Klene, C. Adamo, R. Cammi, 
 J. W. Ochterski, R. L. Martin, K. Morokuma, O. Farkas, 
 J. B. Foresman, and D. J. Fox, Gaussian, Inc., Wallingford CT, 2016.
 
 ******************************************
 Gaussian 16:  ES64L-G16RevA.03 25-Dec-2016
                17-Sep-2021 
 ******************************************
 %chk=geometry.chk
 %mem=2GB
 %nprocshared=1
 Will use up to    1 processors via shared memory.
 --------------------------------------------------------------------
 #p B3LYP/6-311+G** #p TD=(singlets,nstates=30)IOp(6/8=3) IOp(9/40=4)
 --------------------------------------------------------------------
 1/38=1,172=1/1;
 2/12=2,17=6,18=5,40=1/2;
 3/5=4,6=6,7=111,11=9,25=1,30=1,74=-5/1,2,3,8;
 4//1;
 5/5=2,38=5/2;
 8/6=1,10=2,108=30/1;
 9/40=4,41=30,42=1,48=1,70=2/14;
 6/7=2,8=3,9=2,10=2/1;
 99/5=1,9=1/99;
 Leave Link    1 at Fri Sep 17 10:52:05 2021, MaxMem=   268435456 cpu:               0.0 elap:               0.2
 (Enter /software/gaussian/g16-a03/l101.exe)
 --------------------------------------------
 Scan Step 86, Bond Length 0.9299999999999999
 --------------------------------------------
 Symbolic Z-matrix:
 Charge =  0 Multiplicity = 1
 C                     0.        0.       -0.52736 
 H                     0.        0.93726  -1.11871 
 H                     0.       -0.93726  -1.11871 
 O                     0.        0.        0.40264 
 
 ITRead=  0  0  0  0
 MicOpt= -1 -1 -1 -1
 NAtoms=      4 NQM=        4 NQMF=       0 NMMI=      0 NMMIF=      0
                NMic=       0 NMicF=      0.
                    Isotopes and Nuclear Properties:
 (Nuclear quadrupole moments (NQMom) in fm**2, nuclear magnetic moments (NMagM)
  in nuclear magnetons)

  Atom         1           2           3           4
 IAtWgt=          12           1           1          16
 AtmWgt=  12.0000000   1.0078250   1.0078250  15.9949146
 NucSpn=           0           1           1           0
 AtZEff=  -0.0000000  -0.0000000  -0.0000000  -0.0000000
 NQMom=    0.0000000   0.0000000   0.0000000   0.0000000
 NMagM=    0.0000000   2.7928460   2.7928460   0.0000000
 AtZNuc=   6.0000000   1.0000000   1.0000000   8.0000000
 Leave Link  101 at Fri Sep 17 10:52:06 2021, MaxMem=   268435456 cpu:               0.1 elap:               0.1
 (Enter /software/gaussian/g16-a03/l202.exe)
                          Input orientation:                          
 ---------------------------------------------------------------------
 Center     Atomic      Atomic             Coordinates (Angstroms)
 Number     Number       Type             X           Y           Z
 ---------------------------------------------------------------------
      1          6           0        0.000000    0.000000   -0.527360
      2          1           0        0.000000    0.937260   -1.118710
      3          1           0        0.000000   -0.937260   -1.118710
      4          8           0        0.000000    0.000000    0.402640
 ---------------------------------------------------------------------
                    Distance matrix (angstroms):
                    1          2          3          4
     1  C    0.000000
     2  H    1.108220   0.000000
     3  H    1.108220   1.874520   0.000000
     4  O    0.930000   1.786886   1.786886   0.000000
 Stoichiometry    CH2O
 Framework group  C2V[C2(CO),SGV(H2)]
 Deg. of freedom     3
 Full point group                 C2V     NOp   4
 Largest Abelian subgroup         C2V     NOp   4
 Largest concise Abelian subgroup C2      NOp   2
                         Standard orientation:                         
 ---------------------------------------------------------------------
 Center     Atomic      Atomic             Coordinates (Angstroms)
 Number     Number       Type             X           Y           Z
 ---------------------------------------------------------------------
      1          6           0        0.000000   -0.000000   -0.391081
      2          1           0        0.000000    0.937260   -0.982431
      3          1           0       -0.000000   -0.937260   -0.982431
      4          8           0        0.000000    0.000000    0.538919
 ---------------------------------------------------------------------
 Rotational constants (GHZ):         285.4183527          60.8893554          50.1835192
 Leave Link  202 at Fri Sep 17 10:52:06 2021, MaxMem=   268435456 cpu:               0.0 elap:               0.1
 (Enter /software/gaussian/g16-a03/l301.exe)
 Standard basis: 6-311+G(d,p) (5D, 7F)
 Ernie: Thresh=  0.10000D-02 Tol=  0.10000D-05 Strict=F.
 There are    29 symmetry adapted cartesian basis functions of A1  symmetry.
 There are     3 symmetry adapted cartesian basis functions of A2  symmetry.
 There are    11 symmetry adapted cartesian basis functions of B1  symmetry.
 There are    15 symmetry adapted cartesian basis functions of B2  symmetry.
 There are    27 symmetry adapted basis functions of A1  symmetry.
 There are     3 symmetry adapted basis functions of A2  symmetry.
 There are    11 symmetry adapted basis functions of B1  symmetry.
 There are    15 symmetry adapted basis functions of B2  symmetry.
    56 basis functions,    88 primitive gaussians,    58 cartesian basis functions
     8 alpha electrons        8 beta electrons
       nuclear repulsion energy        38.0630150167 Hartrees.
 IExCor=  402 DFT=T Ex+Corr=B3LYP ExCW=0 ScaHFX=  0.200000
 ScaDFX=  0.800000  0.720000  1.000000  0.810000 ScalE2=  1.000000  1.000000
 IRadAn=      5 IRanWt=     -1 IRanGd=            0 ICorTp=0 IEmpDi=  4
 NAtoms=    4 NActive=    4 NUniq=    3 SFac= 1.78D+00 NAtFMM=   60 NAOKFM=F Big=F
 Integral buffers will be    131072 words long.
 Regular integral format.
 Two-electron integral symmetry is turned on.
 Leave Link  301 at Fri Sep 17 10:52:06 2021, MaxMem=   268435456 cpu:               0.1 elap:               0.1
 (Enter /software/gaussian/g16-a03/l302.exe)
 NPDir=0 NMtPBC=     1 NCelOv=     1 NCel=       1 NClECP=     1 NCelD=      1
         NCelK=      1 NCelE2=     1 NClLst=     1 CellRange=     0.0.
 One-electron integrals computed using PRISM.
 One-electron integral symmetry used in STVInt
 NBasis=    56 RedAO= T EigKep=  1.51D-03  NBF=    27     3    11    15
 NBsUse=    56 1.00D-06 EigRej= -1.00D+00 NBFU=    27     3    11    15
 Precomputing XC quadrature grid using
 IXCGrd= 4 IRadAn=           5 IRanWt=          -1 IRanGd=           0 AccXCQ= 0.00D+00.
 Generated NRdTot=       0 NPtTot=           0 NUsed=           0 NTot=          32
 NSgBfM=    58    58    58    58    58 MxSgAt=     4 MxSgA2=     4.
 Leave Link  302 at Fri Sep 17 10:52:06 2021, MaxMem=   268435456 cpu:               0.1 elap:               0.1
 (Enter /software/gaussian/g16-a03/l303.exe)
 DipDrv:  MaxL=1.
 Leave Link  303 at Fri Sep 17 10:52:06 2021, MaxMem=   268435456 cpu:               0.0 elap:               0.0
 (Enter /software/gaussian/g16-a03/l308.exe)
 Leave Link  308 at Fri Sep 17 10:52:06 2021, MaxMem=   268435456 cpu:               0.0 elap:               0.0
 (Enter /software/gaussian/g16-a03/l401.exe)
 ExpMin= 4.38D-02 ExpMax= 8.59D+03 ExpMxC= 1.30D+03 IAcc=3 IRadAn=         5 AccDes= 0.00D+00
 Harris functional with IExCor=  402 and IRadAn=       5 diagonalized for initial guess.
 HarFok:  IExCor=  402 AccDes= 0.00D+00 IRadAn=         5 IDoV= 1 UseB2=F ITyADJ=14
 ICtDFT=  3500011 ScaDFX=  1.000000  1.000000  1.000000  1.000000
 FoFCou: FMM=F IPFlag=           0 FMFlag=      100000 FMFlg1=           0
         NFxFlg=           0 DoJE=T BraDBF=F KetDBF=T FulRan=T
         wScrn=  0.000000 ICntrl=       500 IOpCl=  0 I1Cent=   200000004 NGrid=           0
         NMat0=    1 NMatS0=      1 NMatT0=    0 NMatD0=    1 NMtDS0=    0 NMtDT0=    0
 Petite list used in FoFCou.
 Harris En= -114.390743738504    
 JPrj=0 DoOrth=F DoCkMO=F.
 Initial guess orbital symmetries:
       Occupied  (A1) (A1) (A1) (B2) (A1) (B1) (A1) (B2)
       Virtual   (B1) (A1) (B2) (A1) (B1) (A1) (A1) (B2) (B2) (B1)
                 (A1) (A1) (A1) (B1) (B2) (B2) (A1) (A1) (A2) (B1)
                 (B2) (A1) (A1) (B1) (B2) (A1) (B2) (A2) (B1) (A1)
                 (A1) (B2) (A1) (B2) (B1) (A1) (A1) (A2) (B2) (A1)
                 (B1) (B2) (A1) (B1) (B2) (A1) (A1) (A1)
 The electronic state of the initial guess is 1-A1.
 Leave Link  401 at Fri Sep 17 10:52:06 2021, MaxMem=   268435456 cpu:               0.3 elap:               0.3
 (Enter /software/gaussian/g16-a03/l502.exe)
 Keep R1 ints in memory in symmetry-blocked form, NReq=2159909.
 FoFCou: FMM=F IPFlag=           0 FMFlag=           0 FMFlg1=           0
         NFxFlg=           0 DoJE=F BraDBF=F KetDBF=F FulRan=T
         wScrn=  0.000000 ICntrl=       600 IOpCl=  0 I1Cent=           0 NGrid=           0
         NMat0=    1 NMatS0=   1596 NMatT0=    0 NMatD0=    1 NMtDS0=    0 NMtDT0=    0
 Petite list used in FoFCou.
 Closed shell SCF:
 Using DIIS extrapolation, IDIIS=  1040.
 NGot=   268435456 LenX=   268074384 LenY=   268070579
 Requested convergence on RMS density matrix=1.00D-08 within 128 cycles.
 Requested convergence on MAX density matrix=1.00D-06.
 Requested convergence on             energy=1.00D-06.
 No special actions if energy rises.

 Cycle   1  Pass 1  IDiag  1:
 E= -114.198777980703    
 DIIS: error= 6.81D-02 at cycle   1 NSaved=   1.
 NSaved= 1 IEnMin= 1 EnMin= -114.198777980703     IErMin= 1 ErrMin= 6.81D-02
 ErrMax= 6.81D-02  0.00D+00 EMaxC= 1.00D-01 BMatC= 1.90D-01 BMatP= 1.90D-01
 IDIUse=3 WtCom= 3.19D-01 WtEn= 6.81D-01
 Coeff-Com:  0.100D+01
 Coeff-En:   0.100D+01
 Coeff:      0.100D+01
 Gap=     0.162 Goal=   None    Shift=    0.000
 GapD=    0.162 DampG=1.000 DampE=0.500 DampFc=0.5000 IDamp=-1.
 Damping current iteration by 5.00D-01
 RMSDP=1.23D-02 MaxDP=1.57D-01              OVMax= 2.59D-01

 Cycle   2  Pass 1  IDiag  1:
 E= -114.240523760796     Delta-E=       -0.041745780093 Rises=F Damp=T
 DIIS: error= 1.70D-02 at cycle   2 NSaved=   2.
 NSaved= 2 IEnMin= 2 EnMin= -114.240523760796     IErMin= 2 ErrMin= 1.70D-02
 ErrMax= 1.70D-02  0.00D+00 EMaxC= 1.00D-01 BMatC= 1.07D-02 BMatP= 1.90D-01
 IDIUse=3 WtCom= 8.30D-01 WtEn= 1.70D-01
 Coeff-Com:  0.116D+00 0.884D+00
 Coeff-En:   0.267D+00 0.733D+00
 Coeff:      0.142D+00 0.858D+00
 Gap=     0.276 Goal=   None    Shift=    0.000
 RMSDP=3.02D-03 MaxDP=3.93D-02 DE=-4.17D-02 OVMax= 1.53D-01

 Cycle   3  Pass 1  IDiag  1:
 E= -114.314159894374     Delta-E=       -0.073636133577 Rises=F Damp=F
 DIIS: error= 1.37D-02 at cycle   3 NSaved=   3.
 NSaved= 3 IEnMin= 3 EnMin= -114.314159894374     IErMin= 3 ErrMin= 1.37D-02
 ErrMax= 1.37D-02  0.00D+00 EMaxC= 1.00D-01 BMatC= 6.03D-03 BMatP= 1.07D-02
 IDIUse=3 WtCom= 8.63D-01 WtEn= 1.37D-01
 Coeff-Com: -0.151D-02 0.421D+00 0.581D+00
 Coeff-En:   0.000D+00 0.000D+00 0.100D+01
 Coeff:     -0.130D-02 0.363D+00 0.639D+00
 Gap=     0.257 Goal=   None    Shift=    0.000
 RMSDP=1.06D-03 MaxDP=1.70D-02 DE=-7.36D-02 OVMax= 3.14D-02

 Cycle   4  Pass 1  IDiag  1:
 E= -114.317934043001     Delta-E=       -0.003774148627 Rises=F Damp=F
 DIIS: error= 4.21D-03 at cycle   4 NSaved=   4.
 NSaved= 4 IEnMin= 4 EnMin= -114.317934043001     IErMin= 4 ErrMin= 4.21D-03
 ErrMax= 4.21D-03  0.00D+00 EMaxC= 1.00D-01 BMatC= 5.99D-04 BMatP= 6.03D-03
 IDIUse=3 WtCom= 9.58D-01 WtEn= 4.21D-02
 Coeff-Com: -0.159D-01 0.599D-01 0.285D+00 0.671D+00
 Coeff-En:   0.000D+00 0.000D+00 0.240D-01 0.976D+00
 Coeff:     -0.152D-01 0.574D-01 0.274D+00 0.684D+00
 Gap=     0.257 Goal=   None    Shift=    0.000
 RMSDP=2.88D-04 MaxDP=6.40D-03 DE=-3.77D-03 OVMax= 6.37D-03

 Cycle   5  Pass 1  IDiag  1:
 E= -114.318394860876     Delta-E=       -0.000460817875 Rises=F Damp=F
 DIIS: error= 2.19D-04 at cycle   5 NSaved=   5.
 NSaved= 5 IEnMin= 5 EnMin= -114.318394860876     IErMin= 5 ErrMin= 2.19D-04
 ErrMax= 2.19D-04  0.00D+00 EMaxC= 1.00D-01 BMatC= 2.54D-06 BMatP= 5.99D-04
 IDIUse=3 WtCom= 9.98D-01 WtEn= 2.19D-03
 Coeff-Com: -0.637D-03-0.195D-02 0.224D-01 0.109D+00 0.871D+00
 Coeff-En:   0.000D+00 0.000D+00 0.000D+00 0.000D+00 0.100D+01
 Coeff:     -0.635D-03-0.194D-02 0.224D-01 0.109D+00 0.871D+00
 Gap=     0.257 Goal=   None    Shift=    0.000
 RMSDP=3.49D-05 MaxDP=4.74D-04 DE=-4.61D-04 OVMax= 5.64D-04

 Cycle   6  Pass 1  IDiag  1:
 E= -114.318397342167     Delta-E=       -0.000002481292 Rises=F Damp=F
 DIIS: error= 1.71D-05 at cycle   6 NSaved=   6.
 NSaved= 6 IEnMin= 6 EnMin= -114.318397342167     IErMin= 6 ErrMin= 1.71D-05
 ErrMax= 1.71D-05  0.00D+00 EMaxC= 1.00D-01 BMatC= 1.01D-08 BMatP= 2.54D-06
 IDIUse=1 WtCom= 1.00D+00 WtEn= 0.00D+00
 Coeff-Com:  0.218D-03-0.668D-03-0.746D-03 0.352D-02 0.598D-01 0.938D+00
 Coeff:      0.218D-03-0.668D-03-0.746D-03 0.352D-02 0.598D-01 0.938D+00
 Gap=     0.257 Goal=   None    Shift=    0.000
 RMSDP=1.85D-06 MaxDP=1.97D-05 DE=-2.48D-06 OVMax= 3.55D-05

 Cycle   7  Pass 1  IDiag  1:
 E= -114.318397350658     Delta-E=       -0.000000008491 Rises=F Damp=F
 DIIS: error= 1.06D-06 at cycle   7 NSaved=   7.
 NSaved= 7 IEnMin= 7 EnMin= -114.318397350658     IErMin= 7 ErrMin= 1.06D-06
 ErrMax= 1.06D-06  0.00D+00 EMaxC= 1.00D-01 BMatC= 4.17D-11 BMatP= 1.01D-08
 IDIUse=1 WtCom= 1.00D+00 WtEn= 0.00D+00
 Coeff-Com:  0.209D-05-0.713D-05-0.130D-03-0.657D-03-0.600D-02 0.108D-01
 Coeff-Com:  0.996D+00
 Coeff:      0.209D-05-0.713D-05-0.130D-03-0.657D-03-0.600D-02 0.108D-01
 Coeff:      0.996D+00
 Gap=     0.257 Goal=   None    Shift=    0.000
 RMSDP=2.36D-07 MaxDP=2.52D-06 DE=-8.49D-09 OVMax= 4.08D-06

 Cycle   8  Pass 1  IDiag  1:
 E= -114.318397350711     Delta-E=       -0.000000000053 Rises=F Damp=F
 DIIS: error= 2.28D-07 at cycle   8 NSaved=   8.
 NSaved= 8 IEnMin= 8 EnMin= -114.318397350711     IErMin= 8 ErrMin= 2.28D-07
 ErrMax= 2.28D-07  0.00D+00 EMaxC= 1.00D-01 BMatC= 1.73D-12 BMatP= 4.17D-11
 IDIUse=1 WtCom= 1.00D+00 WtEn= 0.00D+00
 Coeff-Com: -0.289D-05 0.459D-05 0.791D-05-0.745D-04-0.937D-03-0.768D-02
 Coeff-Com:  0.103D+00 0.906D+00
 Coeff:     -0.289D-05 0.459D-05 0.791D-05-0.745D-04-0.937D-03-0.768D-02
 Coeff:      0.103D+00 0.906D+00
 Gap=     0.257 Goal=   None    Shift=    0.000
 RMSDP=3.11D-08 MaxDP=3.70D-07 DE=-5.26D-11 OVMax= 7.43D-07

 Cycle   9  Pass 1  IDiag  1:
 E= -114.318397350712     Delta-E=       -0.000000000001 Rises=F Damp=F
 DIIS: error= 2.21D-08 at cycle   9 NSaved=   9.
 NSaved= 9 IEnMin= 9 EnMin= -114.318397350712     IErMin= 9 ErrMin= 2.21D-08
 ErrMax= 2.21D-08  0.00D+00 EMaxC= 1.00D-01 BMatC= 2.53D-14 BMatP= 1.73D-12
 IDIUse=1 WtCom= 1.00D+00 WtEn= 0.00D+00
 Coeff-Com: -0.170D-06 0.574D-06 0.753D-06-0.116D-05-0.232D-04-0.675D-03
 Coeff-Com: -0.904D-02 0.955D-01 0.914D+00
 Coeff:     -0.170D-06 0.574D-06 0.753D-06-0.116D-05-0.232D-04-0.675D-03
 Coeff:     -0.904D-02 0.955D-01 0.914D+00
 Gap=     0.257 Goal=   None    Shift=    0.000
 RMSDP=4.30D-09 MaxDP=4.52D-08 DE=-1.19D-12 OVMax= 8.08D-08

 SCF Done:  E(RB3LYP) =  -114.318397351     A.U. after    9 cycles
            NFock=  9  Conv=0.43D-08     -V/T= 1.9849
 KE= 1.160652657788D+02 PE=-3.458686484301D+02 EE= 7.742197028386D+01
 Leave Link  502 at Fri Sep 17 10:52:08 2021, MaxMem=   268435456 cpu:               1.6 elap:               2.0
 (Enter /software/gaussian/g16-a03/l801.exe)
 DoSCS=F DFT=T ScalE2(SS,OS)=  1.000000  1.000000
 ExpMin= 4.38D-02 ExpMax= 8.59D+03 ExpMxC= 1.30D+03 IAcc=3 IRadAn=         5 AccDes= 0.00D+00
 HarFok:  IExCor=  205 AccDes= 0.00D+00 IRadAn=         5 IDoV=-2 UseB2=F ITyADJ=14
 ICtDFT= 12500011 ScaDFX=  1.000000  1.000000  1.000000  1.000000
 Largest valence mixing into a core orbital is  4.79D-05
 Largest core mixing into a valence orbital is  7.82D-06
 Range of M.O.s used for correlation:     3    56
 NBasis=    56 NAE=     8 NBE=     8 NFC=     2 NFV=     0
 NROrb=     54 NOA=     6 NOB=     6 NVA=    48 NVB=    48

 **** Warning!!: The largest alpha MO coefficient is  0.10154090D+02

 Leave Link  801 at Fri Sep 17 10:52:08 2021, MaxMem=   268435456 cpu:               0.2 elap:               0.2
 (Enter /software/gaussian/g16-a03/l914.exe)
 RHF ground state
 Keep R1, R2, and R3 ints in memory in symmetry-blocked form, NReq=6042848.
 FoFCou: FMM=F IPFlag=           0 FMFlag=           0 FMFlg1=           0
         NFxFlg=           0 DoJE=F BraDBF=F KetDBF=F FulRan=T
         wScrn=  0.000000 ICntrl=       600 IOpCl=  0 I1Cent=           0 NGrid=           0
         NMat0=    1 NMatS0=   1596 NMatT0=    0 NMatD0=    1 NMtDS0=    0 NMtDT0=    0
 Petite list used in FoFCou.
 MDV=   268435456 DFT=T DoStab=F Mixed=T DoRPA=T DoScal=F NonHer=T
 Making orbital integer symmetry assigments:
 Orbital symmetries:
       Occupied  (A1) (A1) (A1) (A1) (B2) (B1) (A1) (B2)
       Virtual   (B1) (A1) (A1) (B2) (B1) (A1) (A1) (B2) (B1) (B2)
                 (A1) (A1) (A1) (B1) (B2) (B2) (A1) (A1) (A2) (B1)
                 (B2) (A1) (B1) (A1) (B2) (A1) (B2) (A2) (B1) (A1)
                 (A1) (B2) (A1) (B2) (B1) (A1) (A1) (A2) (B2) (A1)
                 (B1) (B2) (A1) (B1) (B2) (A1) (A1) (A1)
   120 initial guesses have been made.
 Convergence on wavefunction:    0.001000000000000
 Davidson Disk Diagonalization:  ConvIn= 1.00D-03 SkipCon=T Conv= 1.00D-03.
 Max sub-space:  1728 roots to seek:   120 dimension of matrix:          576
 Iteration     1 Dimension   120 NMult     0 NNew    120
 CISAX will form   120 AO SS matrices at one time.
 NMat=   120 NSing=   120 JSym2X=-1.
 New state     11 was old state     12
 New state     12 was old state     11
 New state     14 was old state     15
 New state     15 was old state     16
 New state     16 was old state     17
 New state     17 was old state     21
 New state     18 was old state     14
 New state     19 was old state     18
 New state     20 was old state     19
 New state     21 was old state     20
 New state     22 was old state     24
 New state     23 was old state     22
 New state     24 was old state     25
 New state     25 was old state     23
 New state     26 was old state     28
 New state     28 was old state     31
 Excitation Energies [eV] at current iteration:
 Root      1 :     5.415635179448796
 Root      2 :     6.084919634239153
 Root      3 :     6.873733570202243
 Root      4 :     7.010368810897521
 Root      5 :     7.665901554335921
 Root      6 :    10.045412514665310
 Root      7 :    10.373752900483370
 Root      8 :    11.380961775840220
 Root      9 :    11.457409861332480
 Root     10 :    12.117936174259950
 Root     11 :    12.752134303582810
 Root     12 :    12.770302154629790
 Root     13 :    13.418397096120040
 Root     14 :    13.853836787787880
 Root     15 :    14.070641056061300
 Root     16 :    14.151033701100390
 Root     17 :    14.466588324391520
 Root     18 :    14.621972134258950
 Root     19 :    14.729352712946490
 Root     20 :    14.730711218775480
 Root     21 :    14.958398146861010
 Root     22 :    15.187349910422260
 Root     23 :    15.334438072658680
 Root     24 :    15.696115879693890
 Root     25 :    15.779411940112580
 Root     26 :    16.001401429630270
 Root     27 :    16.211363057851890
 Root     28 :    16.554813957688680
 Root     29 :    16.649712554320580
 Root     30 :    16.672624555712270
 Root     31 :    16.882783355869270
 Root     32 :    16.964212344894670
 Root     33 :    17.123163847453750
 Root     34 :    17.490535606631350
 Root     35 :    17.883840702472990
 Root     36 :    18.106606103945900
 Root     37 :    18.327497497622400
 Root     38 :    18.485320409072060
 Root     39 :    18.594737681679540
 Root     40 :    18.780603106256310
 Root     41 :    19.024432387009080
 Root     42 :    19.213313546511150
 Root     43 :    19.313610283143480
 Root     44 :    19.432151420907020
 Root     45 :    19.512047549885180
 Root     46 :    19.669691058470980
 Root     47 :    20.011912876617640
 Root     48 :    20.058334282609100
 Root     49 :    20.193260123116830
 Root     50 :    20.380273858116100
 Root     51 :    20.524140484196960
 Root     52 :    20.702749472044410
 Root     53 :    20.869390022700550
 Root     54 :    21.255609034745590
 Root     55 :    21.273004953197960
 Root     56 :    21.507988822275380
 Root     57 :    21.920766638689190
 Root     58 :    22.023297328903200
 Root     59 :    22.598087830566280
 Root     60 :    22.754682713743970
 Root     61 :    23.044161123763780
 Root     62 :    24.125948961846920
 Root     63 :    24.214501109189720
 Root     64 :    24.987677166542690
 Root     65 :    25.275693584261370
 Root     66 :    26.343539538025970
 Root     67 :    26.467154407864470
 Root     68 :    26.900376959608350
 Root     69 :    26.933567650556410
 Root     70 :    27.185470838993080
 Root     71 :    27.942396508732340
 Root     72 :    28.268668802339600
 Root     73 :    28.286379059574220
 Root     74 :    28.906557236099380
 Root     75 :    28.985461221989460
 Root     76 :    29.450928179597640
 Root     77 :    29.670985394400600
 Root     78 :    29.984940653589210
 Root     79 :    30.299844670658680
 Root     80 :    30.691919544449830
 Root     81 :    31.641942404706760
 Root     82 :    31.886828750900800
 Root     83 :    32.410854590383290
 Root     84 :    32.503742081274120
 Root     85 :    32.708058237754720
 Root     86 :    33.021685070857890
 Root     87 :    33.141580288717360
 Root     88 :    33.215634733985030
 Root     89 :    33.413664625587940
 Root     90 :    33.746034452558720
 Root     91 :    34.066819506324510
 Root     92 :    34.329006115018000
 Root     93 :    34.809312388490160
 Root     94 :    36.122176709630400
 Root     95 :    36.471547051986860
 Root     96 :    37.174333938668110
 Root     97 :    37.474924878213660
 Root     98 :    38.098110173423830
 Root     99 :    38.278427352041130
 Root    100 :    38.735653777958460
 Root    101 :    38.789168046722040
 Root    102 :    38.827462812757550
 Root    103 :    39.381479603275810
 Root    104 :    39.439838366924570
 Root    105 :    39.637477782221570
 Root    106 :    39.760113680614470
 Root    107 :    39.772049202658750
 Root    108 :    40.340347224122730
 Root    109 :    40.497312958673480
 Root    110 :    41.021823200487450
 Root    111 :    41.250730225081160
 Root    112 :    41.787371271895990
 Root    113 :    41.935448133698690
 Root    114 :    42.351200642737570
 Root    115 :    42.470445319837220
 Root    116 :    42.502075987592560
 Root    117 :    42.640335149554750
 Root    118 :    42.800546560914570
 Root    119 :    42.968876988750350
 Root    120 :    46.729165001869070
 Iteration     2 Dimension   180 NMult   120 NNew     60
 CISAX will form    60 AO SS matrices at one time.
 NMat=    60 NSing=    60 JSym2X=-1.
 Root      1 not converged, maximum delta is    0.005475433627153
 Root      2 not converged, maximum delta is    0.003266011139826
 Root      3 not converged, maximum delta is    0.002675686671439
 Root      4 not converged, maximum delta is    0.004117469943617
 Root      5 not converged, maximum delta is    0.002827509039866
 Root      6 not converged, maximum delta is    0.007988821149301
 Root      7 not converged, maximum delta is    0.003892774760025
 Root      8 not converged, maximum delta is    0.006887817568268
 Root      9 not converged, maximum delta is    0.001653868554473
 Root     10 not converged, maximum delta is    0.004100315558545
 Root     11 not converged, maximum delta is    0.014846768119214
 Root     12 not converged, maximum delta is    0.003768194978287
 Root     13 not converged, maximum delta is    0.007069204827086
 Root     14 not converged, maximum delta is    0.001286380804663
 Root     15 not converged, maximum delta is    0.013356638531127
 Root     16 not converged, maximum delta is    0.003284870407065
 Root     17 not converged, maximum delta is    0.006240497972162
 Root     18 not converged, maximum delta is    0.042705266659234
 Root     19 not converged, maximum delta is    0.010233304255213
 Root     20 not converged, maximum delta is    0.003087072691600
 Root     21 not converged, maximum delta is    0.019941482347795
 Root     22 not converged, maximum delta is    0.027538813548682
 Root     23 not converged, maximum delta is    0.026559675554653
 Root     24 not converged, maximum delta is    0.032143303830732
 Root     25 not converged, maximum delta is    0.025003446218437
 Root     26 not converged, maximum delta is    0.036329832944414
 Root     27 not converged, maximum delta is    0.007424372908221
 Root     28 not converged, maximum delta is    0.057825918773645
 Root     29 not converged, maximum delta is    0.095266680273406
 Root     30 not converged, maximum delta is    0.007796794673970
 Excitation Energies [eV] at current iteration:
 Root      1 :     5.404961096021010   Change is   -0.010674083427787
 Root      2 :     6.081615443710755   Change is   -0.003304190528397
 Root      3 :     6.868814630143352   Change is   -0.004918940058890
 Root      4 :     7.006636609017537   Change is   -0.003732201879984
 Root      5 :     7.663145894241316   Change is   -0.002755660094606
 Root      6 :    10.029488790839430   Change is   -0.015923723825884
 Root      7 :    10.371909712551640   Change is   -0.001843187931733
 Root      8 :    11.365364547034090   Change is   -0.015597228806128
 Root      9 :    11.456109360352060   Change is   -0.001300500980415
 Root     10 :    12.109947263500000   Change is   -0.007988910759957
 Root     11 :    12.688800831497220   Change is   -0.063333472085598
 Root     12 :    12.762243171393320   Change is   -0.008058983236470
 Root     13 :    13.407164576889050   Change is   -0.011232519230994
 Root     14 :    13.852878219934470   Change is   -0.000958567853403
 Root     15 :    14.061202085435720   Change is   -0.009438970625583
 Root     16 :    14.142876140217990   Change is   -0.008157560882405
 Root     17 :    14.461062447059810   Change is   -0.005525877331707
 Root     18 :    14.523134001975600   Change is   -0.098838132283342
 Root     19 :    14.727695859196010   Change is   -0.001656853750473
 Root     20 :    14.730186703467650   Change is   -0.000524515307826
 Root     21 :    14.928044934691370   Change is   -0.030353212169641
 Root     22 :    15.169922747985580   Change is   -0.017427162436678
 Root     23 :    15.330383309670630   Change is   -0.004054762988054
 Root     24 :    15.671692829637890   Change is   -0.024423050056002
 Root     25 :    15.704366082340330   Change is   -0.075045857772246
 Root     26 :    15.983166985585890   Change is   -0.018234444044385
 Root     27 :    16.206716840274900   Change is   -0.004646217576985
 Root     28 :    16.539617894756440   Change is   -0.015196062932245
 Root     29 :    16.630401962503850   Change is   -0.019310591816738
 Root     30 :    16.654666270628660   Change is   -0.017958285083607
 Iteration     3 Dimension   240 NMult   180 NNew     60
 CISAX will form    60 AO SS matrices at one time.
 NMat=    60 NSing=    60 JSym2X=-1.
 Root      1 has converged.
 Root      2 has converged.
 Root      3 has converged.
 Root      4 has converged.
 Root      5 has converged.
 Root      6 has converged.
 Root      7 has converged.
 Root      8 has converged.
 Root      9 has converged.
 Root     10 has converged.
 Root     11 has converged.
 Root     12 has converged.
 Root     13 has converged.
 Root     14 has converged.
 Root     15 has converged.
 Root     16 has converged.
 Root     17 has converged.
 Root     18 has converged.
 Root     19 has converged.
 Root     20 has converged.
 Root     21 has converged.
 Root     22 has converged.
 Root     23 has converged.
 Root     24 has converged.
 Root     25 has converged.
 Root     26 has converged.
 Root     27 has converged.
 Root     28 has converged.
 Root     29 has converged.
 Root     30 has converged.
 Excitation Energies [eV] at current iteration:
 Root      1 :     5.404958214776861   Change is   -0.000002881244149
 Root      2 :     6.081613516349444   Change is   -0.000001927361312
 Root      3 :     6.868812624011669   Change is   -0.000002006131684
 Root      4 :     7.006634549227383   Change is   -0.000002059790155
 Root      5 :     7.663145119703223   Change is   -0.000000774538092
 Root      6 :    10.029484209624030   Change is   -0.000004581215397
 Root      7 :    10.371907729731380   Change is   -0.000001982820249
 Root      8 :    11.365346133165250   Change is   -0.000018413868843
 Root      9 :    11.456108109884440   Change is   -0.000001250467622
 Root     10 :    12.109933359945710   Change is   -0.000013903554289
 Root     11 :    12.688652848338520   Change is   -0.000147983158695
 Root     12 :    12.762232318833880   Change is   -0.000010852559449
 Root     13 :    13.407139268092400   Change is   -0.000025308796649
 Root     14 :    13.852875063856090   Change is   -0.000003156078386
 Root     15 :    14.061182092465400   Change is   -0.000019992970318
 Root     16 :    14.142861002635800   Change is   -0.000015137582184
 Root     17 :    14.461056990910660   Change is   -0.000005456149153
 Root     18 :    14.522882398047670   Change is   -0.000251603927932
 Root     19 :    14.727689789061750   Change is   -0.000006070134268
 Root     20 :    14.730186179504090   Change is   -0.000000523963564
 Root     21 :    14.927948719389820   Change is   -0.000096215301548
 Root     22 :    15.169896376622340   Change is   -0.000026371363239
 Root     23 :    15.330377438808970   Change is   -0.000005870861661
 Root     24 :    15.671606098361190   Change is   -0.000086731276700
 Root     25 :    15.704226706809660   Change is   -0.000139375530671
 Root     26 :    15.983123261706840   Change is   -0.000043723879051
 Root     27 :    16.206702933450070   Change is   -0.000013906824826
 Root     28 :    16.539562227765900   Change is   -0.000055666990533
 Root     29 :    16.630323802824380   Change is   -0.000078159679467
 Root     30 :    16.654638387630470   Change is   -0.000027882998185
 Convergence achieved on expansion vectors.
 ***********************************************************************
 Excited states from <AA,BB:AA,BB> singles matrix:
 ***********************************************************************
 
 1PDM for each excited state written to RWF  633
 Ground to excited state transition densities written to RWF  633
 Ground to excited state transition electric dipole moments (Au):
       state          X           Y           Z        Dip. S.      Osc.
         1        -0.0000      0.0000      0.0000      0.0000      0.0000
         2         0.0000      0.7280     -0.0000      0.5300      0.0790
         3         0.0000      0.3545      0.0000      0.1257      0.0211
         4         0.0000      0.0000     -0.5201      0.2705      0.0464
         5        -0.0000     -0.0000      0.0000      0.0000      0.0000
         6         0.0000      1.0582      0.0000      1.1198      0.2752
         7        -0.0000      0.2953      0.0000      0.0872      0.0222
         8         0.0000     -0.0000      0.0256      0.0007      0.0002
         9         0.0000      0.0000      0.0000      0.0000      0.0000
        10        -0.0000     -0.0000     -0.7633      0.5826      0.1728
        11        -0.0648     -0.0000      0.0000      0.0042      0.0013
        12        -0.0000     -0.3590     -0.0000      0.1289      0.0403
        13        -0.0000      0.0000     -0.0570      0.0032      0.0011
        14        -0.3442     -0.0000     -0.0000      0.1185      0.0402
        15         0.0000      0.0000      0.7654      0.5859      0.2018
        16         0.0000     -0.3568      0.0000      0.1273      0.0441
        17         0.0000     -0.0000     -0.0000      0.0000      0.0000
        18         0.0000      0.0000      0.4747      0.2253      0.0802
        19         0.2204      0.0000     -0.0000      0.0486      0.0175
        20        -0.0000      0.0000     -0.0000      0.0000      0.0000
        21        -0.2158     -0.0000      0.0000      0.0466      0.0170
        22        -0.0000     -0.2704      0.0000      0.0731      0.0272
        23        -0.0000     -0.4256     -0.0000      0.1811      0.0680
        24         0.0000     -0.0000      0.5865      0.3439      0.1321
        25        -0.6545      0.0000      0.0000      0.4284      0.1648
        26        -0.0000      0.0000      0.0320      0.0010      0.0004
        27        -0.0000      0.1696     -0.0000      0.0287      0.0114
        28        -0.0000      0.0000      0.2376      0.0565      0.0229
        29         0.0000      0.0000      0.4984      0.2484      0.1012
        30         0.0000     -0.1088      0.0000      0.0118      0.0048
 Ground to excited state transition velocity dipole moments (Au):
       state          X           Y           Z        Dip. S.      Osc.
         1         0.0000     -0.0000      0.0000      0.0000      0.0000
         2        -0.0000     -0.1590     -0.0000      0.0253      0.0754
         3        -0.0000     -0.0918     -0.0000      0.0084      0.0222
         4        -0.0000     -0.0000      0.1278      0.0163      0.0423
         5         0.0000      0.0000     -0.0000      0.0000      0.0000
         6        -0.0000     -0.3935      0.0000      0.1549      0.2801
         7         0.0000     -0.0803     -0.0000      0.0064      0.0113
         8         0.0000      0.0000     -0.0143      0.0002      0.0003
         9         0.0000     -0.0000     -0.0000      0.0000      0.0000
        10         0.0000     -0.0000      0.3409      0.1162      0.1741
        11         0.0204      0.0000     -0.0000      0.0004      0.0006
        12         0.0000      0.1742     -0.0000      0.0303      0.0431
        13         0.0000     -0.0000      0.0272      0.0007      0.0010
        14         0.1789      0.0000     -0.0000      0.0320      0.0419
        15        -0.0000     -0.0000     -0.3955      0.1564      0.2018
        16        -0.0000      0.1856      0.0000      0.0344      0.0442
        17        -0.0000      0.0000      0.0000      0.0000      0.0000
        18         0.0000     -0.0000     -0.2464      0.0607      0.0758
        19        -0.1251     -0.0000      0.0000      0.0156      0.0193
        20         0.0000     -0.0000      0.0000      0.0000      0.0000
        21         0.1104      0.0000     -0.0000      0.0122      0.0148
        22         0.0000      0.1389     -0.0000      0.0193      0.0231
        23         0.0000      0.2396     -0.0000      0.0574      0.0679
        24        -0.0000      0.0000     -0.3390      0.1149      0.1330
        25         0.3862     -0.0000     -0.0000      0.1492      0.1723
        26         0.0000     -0.0000     -0.0226      0.0005      0.0006
        27         0.0000     -0.1050      0.0000      0.0110      0.0123
        28         0.0000     -0.0000     -0.1520      0.0231      0.0253
        29        -0.0000     -0.0000     -0.3010      0.0906      0.0989
        30        -0.0000      0.0706     -0.0000      0.0050      0.0054
 Ground to excited state transition magnetic dipole moments (Au):
       state          X           Y           Z
         1        -0.0000     -0.0000      1.2753
         2        -0.4367     -0.0000     -0.0000
         3         0.7957      0.0000     -0.0000
         4         0.0000     -0.0000     -0.0000
         5        -0.0000     -0.0000     -0.3680
         6        -0.7990     -0.0000     -0.0000
         7        -0.9726      0.0000     -0.0000
         8         0.0000     -0.0000      0.0000
         9         0.0000      0.0000      0.1050
        10         0.0000     -0.0000     -0.0000
        11        -0.0000     -1.1445      0.0000
        12        -0.4443      0.0000      0.0000
        13         0.0000     -0.0000     -0.0000
        14        -0.0000     -0.0486     -0.0000
        15         0.0000      0.0000     -0.0000
        16        -0.3160     -0.0000     -0.0000
        17        -0.0000      0.0000     -0.3508
        18        -0.0000      0.0000     -0.0000
        19        -0.0000     -0.3379      0.0000
        20        -0.0000      0.0000      0.0757
        21         0.0000      0.7870     -0.0000
        22         1.2423     -0.0000     -0.0000
        23         0.1390     -0.0000      0.0000
        24         0.0000      0.0000      0.0000
        25        -0.0000     -0.4643     -0.0000
        26         0.0000      0.0000     -0.0000
        27        -0.1086     -0.0000     -0.0000
        28        -0.0000      0.0000      0.0000
        29        -0.0000     -0.0000     -0.0000
        30         0.0628     -0.0000     -0.0000
 Ground to excited state transition velocity quadrupole moments (Au):
       state          XX          YY          ZZ          XY          XZ          YZ
         1         0.0000     -0.0000      0.0000     -0.2231     -0.0000      0.0000
         2        -0.0000      0.0000     -0.0000      0.0000     -0.0000      0.5213
         3        -0.0000     -0.0000     -0.0000     -0.0000      0.0000      0.2432
         4        -0.1737     -0.6244     -0.2016     -0.0000      0.0000      0.0000
         5        -0.0000      0.0000     -0.0000     -0.1208     -0.0000      0.0000
         6         0.0000     -0.0000      0.0000     -0.0000      0.0000      0.9193
         7        -0.0000     -0.0000     -0.0000      0.0000      0.0000     -0.1320
         8         0.1409      0.7146      0.7082      0.0000     -0.0000     -0.0000
         9         0.0000     -0.0000     -0.0000      0.2549      0.0000      0.0000
        10         0.1591     -0.5518     -0.6316      0.0000     -0.0000      0.0000
        11        -0.0000     -0.0000     -0.0000      0.0000     -0.4530      0.0000
        12         0.0000     -0.0000     -0.0000      0.0000      0.0000      0.0709
        13         0.1488      0.3925      0.5102      0.0000     -0.0000      0.0000
        14        -0.0000      0.0000      0.0000      0.0000     -0.0116      0.0000
        15         0.0883      0.1102      0.1365     -0.0000     -0.0000      0.0000
        16        -0.0000     -0.0000      0.0000     -0.0000     -0.0000      0.0936
        17        -0.0000     -0.0000     -0.0000      0.2897      0.0000     -0.0000
        18         0.7239      0.6347      0.1849      0.0000      0.0000      0.0000
        19         0.0000      0.0000      0.0000      0.0000     -0.3929      0.0000
        20         0.0000     -0.0000      0.0000      0.2178      0.0000      0.0000
        21         0.0000      0.0000      0.0000     -0.0000      0.3377     -0.0000
        22         0.0000     -0.0000     -0.0000     -0.0000     -0.0000     -0.1859
        23        -0.0000      0.0000      0.0000     -0.0000     -0.0000     -0.2526
        24        -0.0333      0.6338      0.2639     -0.0000      0.0000      0.0000
        25        -0.0000      0.0000      0.0000     -0.0000     -0.5060      0.0000
        26        -0.3044      0.2404     -0.4125     -0.0000      0.0000      0.0000
        27         0.0000     -0.0000     -0.0000      0.0000     -0.0000     -0.3114
        28        -0.4356     -0.0250     -0.0572      0.0000     -0.0000      0.0000
        29         0.0003     -0.0432      1.0190      0.0000      0.0000      0.0000
        30         0.0000     -0.0000      0.0000     -0.0000      0.0000     -0.4155
 <0|del|b> * <b|rxdel|0> + <0|del|b> * <b|delr+rdel|0>
 Rotatory Strengths (R) in cgs (10**-40 erg-esu-cm/Gauss)
       state          XX          YY          ZZ    R(velocity)    E-M Angle
         1         0.0000      0.0000      0.0000      0.0000       90.00
         2         0.0000     -0.0000      0.0000      0.0000       90.00
         3         0.0000     -0.0000     -0.0000     -0.0000       90.00
         4        -0.0000      0.0000     -0.0000     -0.0000       90.00
         5         0.0000      0.0000     -0.0000      0.0000       90.00
         6         0.0000     -0.0000      0.0000      0.0000       90.00
         7         0.0000     -0.0000     -0.0000     -0.0000       90.00
         8        -0.0000      0.0000     -0.0000     -0.0000       90.00
         9        -0.0000      0.0000     -0.0000     -0.0000       90.00
        10         0.0000     -0.0000      0.0000     -0.0000       90.00
        11        -0.0000     -0.0000     -0.0000     -0.0000       90.00
        12         0.0000     -0.0000     -0.0000     -0.0000       90.00
        13         0.0000     -0.0000      0.0000     -0.0000       90.00
        14        -0.0000     -0.0000     -0.0000     -0.0000       90.00
        15         0.0000     -0.0000      0.0000      0.0000       90.00
        16         0.0000      0.0000      0.0000      0.0000       90.00
        17        -0.0000     -0.0000      0.0000     -0.0000       90.00
        18         0.0000      0.0000     -0.0000      0.0000       90.00
        19        -0.0000      0.0000      0.0000      0.0000       90.00
        20         0.0000     -0.0000     -0.0000      0.0000       90.00
        21         0.0000      0.0000      0.0000      0.0000       90.00
        22         0.0000      0.0000      0.0000      0.0000       90.00
        23        -0.0000     -0.0000     -0.0000     -0.0000       90.00
        24         0.0000     -0.0000      0.0000     -0.0000       90.00
        25        -0.0000      0.0000     -0.0000     -0.0000       90.00
        26         0.0000      0.0000     -0.0000      0.0000       90.00
        27        -0.0000     -0.0000      0.0000      0.0000       90.00
        28        -0.0000     -0.0000     -0.0000     -0.0000       90.00
        29        -0.0000      0.0000      0.0000      0.0000       90.00
        30        -0.0000      0.0000     -0.0000     -0.0000       90.00
 1/2[<0|r|b>*<b|rxdel|0> + (<0|rxdel|b>*<b|r|0>)*]
 Rotatory Strengths (R) in cgs (10**-40 erg-esu-cm/Gauss)
       state          XX          YY          ZZ     R(length)
         1        -0.0000      0.0000     -0.0000     -0.0000
         2         0.0000      0.0000     -0.0000      0.0000
         3        -0.0000     -0.0000      0.0000     -0.0000
         4        -0.0000      0.0000     -0.0000     -0.0000
         5        -0.0000     -0.0000      0.0000      0.0000
         6         0.0000      0.0000      0.0000      0.0000
         7        -0.0000     -0.0000      0.0000     -0.0000
         8        -0.0000     -0.0000     -0.0000     -0.0000
         9        -0.0000     -0.0000     -0.0000     -0.0000
        10         0.0000     -0.0000     -0.0000     -0.0000
        11        -0.0000     -0.0000     -0.0000     -0.0000
        12        -0.0000      0.0000      0.0000      0.0000
        13         0.0000      0.0000     -0.0000     -0.0000
        14        -0.0000     -0.0000     -0.0000     -0.0000
        15        -0.0000     -0.0000      0.0000      0.0000
        16         0.0000     -0.0000      0.0000     -0.0000
        17         0.0000      0.0000     -0.0000     -0.0000
        18         0.0000     -0.0000      0.0000      0.0000
        19         0.0000      0.0000      0.0000      0.0000
        20        -0.0000     -0.0000      0.0000      0.0000
        21         0.0000      0.0000      0.0000      0.0000
        22         0.0000     -0.0000      0.0000      0.0000
        23         0.0000     -0.0000      0.0000     -0.0000
        24        -0.0000      0.0000     -0.0000     -0.0000
        25        -0.0000      0.0000      0.0000     -0.0000
        26         0.0000     -0.0000      0.0000      0.0000
        27        -0.0000      0.0000     -0.0000      0.0000
        28        -0.0000     -0.0000     -0.0000     -0.0000
        29         0.0000      0.0000      0.0000      0.0000
        30        -0.0000     -0.0000      0.0000     -0.0000
  1/2[<0|del|b>*<b|r|0> + (<0|r|b>*<b|del|0>)*] (Au)
       state          X           Y           Z        Dip. S.   Osc.(frdel)
         1        -0.0000     -0.0000      0.0000     -0.0000     -0.0000
         2        -0.0000     -0.1157      0.0000      0.1157      0.0772
         3        -0.0000     -0.0325     -0.0000      0.0325      0.0217
         4        -0.0000     -0.0000     -0.0665      0.0665      0.0443
         5        -0.0000     -0.0000     -0.0000      0.0000      0.0000
         6        -0.0000     -0.4165      0.0000      0.4165      0.2776
         7        -0.0000     -0.0237     -0.0000      0.0237      0.0158
         8         0.0000     -0.0000     -0.0004      0.0004      0.0002
         9         0.0000     -0.0000     -0.0000      0.0000      0.0000
        10        -0.0000      0.0000     -0.2602      0.2602      0.1735
        11        -0.0013     -0.0000     -0.0000      0.0013      0.0009
        12        -0.0000     -0.0625      0.0000      0.0625      0.0417
        13        -0.0000     -0.0000     -0.0015      0.0015      0.0010
        14        -0.0616     -0.0000      0.0000      0.0616      0.0411
        15        -0.0000     -0.0000     -0.3028      0.3028      0.2018
        16        -0.0000     -0.0662      0.0000      0.0662      0.0441
        17        -0.0000     -0.0000     -0.0000      0.0000      0.0000
        18         0.0000     -0.0000     -0.1169      0.1169      0.0780
        19        -0.0276     -0.0000     -0.0000      0.0276      0.0184
        20        -0.0000     -0.0000     -0.0000      0.0000      0.0000
        21        -0.0238     -0.0000     -0.0000      0.0238      0.0159
        22        -0.0000     -0.0376     -0.0000      0.0376      0.0251
        23        -0.0000     -0.1019      0.0000      0.1019      0.0680
        24        -0.0000     -0.0000     -0.1988      0.1988      0.1325
        25        -0.2528     -0.0000     -0.0000      0.2528      0.1685
        26        -0.0000     -0.0000     -0.0007      0.0007      0.0005
        27        -0.0000     -0.0178     -0.0000      0.0178      0.0119
        28        -0.0000     -0.0000     -0.0361      0.0361      0.0241
        29        -0.0000     -0.0000     -0.1500      0.1500      0.1000
        30        -0.0000     -0.0077     -0.0000      0.0077      0.0051

 Excitation energies and oscillator strengths:
 
 Excited State   1:      Singlet-A2     5.4050 eV  229.39 nm  f=0.0000  <S**2>=0.000
       3 -> 27         0.00295
       3 -> 36         0.00237
       3 -> 46         0.00139
       4 -> 27         0.00335
       4 -> 36        -0.00074
       4 -> 46        -0.00078
       5 ->  9         0.01117
       5 -> 13        -0.00947
       5 -> 17         0.00616
       5 -> 22        -0.00341
       5 -> 28         0.00323
       5 -> 31         0.00227
       5 -> 37         0.00378
       5 -> 43         0.00058
       5 -> 52         0.00077
       6 -> 12        -0.00059
       6 -> 16        -0.00132
       6 -> 18        -0.00070
       6 -> 23         0.00177
       6 -> 24         0.00070
       6 -> 29        -0.00049
       6 -> 33         0.00029
       6 -> 35         0.00055
       6 -> 40        -0.00015
       6 -> 42         0.00049
       6 -> 47         0.00066
       6 -> 50        -0.00017
       6 -> 53         0.00031
       7 -> 27         0.00092
       7 -> 36        -0.00037
       7 -> 46         0.00131
       8 ->  9         0.69597
       8 -> 13        -0.12088
       8 -> 17         0.02907
       8 -> 22        -0.00949
       8 -> 28         0.00566
       8 -> 31         0.00348
       8 -> 37        -0.00217
       8 -> 43        -0.00024
       8 -> 52         0.00104
       3 <- 27         0.00215
       3 <- 36         0.00202
       3 <- 46         0.00145
       4 <- 27         0.00392
       4 <- 36        -0.00040
       4 <- 46        -0.00075
       5 <-  9         0.00026
       5 <- 13        -0.00112
       5 <- 17        -0.00014
       5 <- 22         0.00032
       5 <- 28        -0.00016
       5 <- 31        -0.00111
       5 <- 37         0.00170
       5 <- 43         0.00044
       5 <- 49         0.00012
       5 <- 52         0.00020
       6 <- 12        -0.00095
       6 <- 16         0.00265
       6 <- 18        -0.00308
       6 <- 23         0.00515
       6 <- 24        -0.00147
       6 <- 29         0.00182
       6 <- 33        -0.00102
       6 <- 35         0.00215
       6 <- 40        -0.00021
       6 <- 42         0.00094
       6 <- 47         0.00050
       6 <- 53         0.00083
       7 <- 27         0.00111
       7 <- 36        -0.00041
       7 <- 46         0.00103
       8 <-  9        -0.01088
       8 <- 13         0.00802
       8 <- 17        -0.00405
       8 <- 22         0.00055
       8 <- 28        -0.00041
       8 <- 31         0.00260
       8 <- 37        -0.00228
       8 <- 52         0.00032
 This state for optimization and/or second-order correction.
 Total Energy, E(TD-HF/TD-DFT) =  -114.119768791    
 Copying the excited state density for this state as the 1-particle RhoCI density.
 
 Excited State   2:      Singlet-B2     6.0816 eV  203.87 nm  f=0.0790  <S**2>=0.000
       3 -> 12         0.00096
       3 -> 18         0.00110
       3 -> 24         0.00119
       3 -> 29        -0.00017
       3 -> 35        -0.00014
       3 -> 42         0.00012
       3 -> 50        -0.00014
       4 -> 12        -0.00583
       4 -> 16         0.00078
       4 -> 18         0.00184
       4 -> 23        -0.00278
       4 -> 24         0.00404
       4 -> 29        -0.00043
       4 -> 33        -0.00097
       4 -> 35         0.00089
       4 -> 40        -0.00021
       4 -> 42         0.00044
       5 -> 10         0.00073
       5 -> 11        -0.00749
       5 -> 14         0.00572
       5 -> 15         0.00155
       5 -> 19         0.00369
       5 -> 20        -0.00095
       5 -> 21         0.00325
       5 -> 25         0.00103
       5 -> 26         0.00138
       5 -> 30         0.00241
       5 -> 34         0.00015
       5 -> 38        -0.00073
       5 -> 39         0.00018
       5 -> 41         0.00030
       5 -> 44         0.00045
       5 -> 45        -0.00058
       5 -> 48         0.00035
       6 -> 27         0.00088
       6 -> 36         0.00010
       6 -> 46         0.00084
       7 -> 12         0.00210
       7 -> 16         0.00202
       7 -> 18         0.00416
       7 -> 23        -0.00241
       7 -> 24         0.00227
       7 -> 35        -0.00013
       7 -> 42        -0.00038
       7 -> 47         0.00037
       7 -> 50         0.00051
       8 -> 10         0.70616
       8 -> 11        -0.02246
       8 -> 14        -0.01415
       8 -> 15         0.01142
       8 -> 19         0.01973
       8 -> 20         0.00861
       8 -> 21        -0.00717
       8 -> 25         0.00078
       8 -> 26         0.00070
       8 -> 30         0.00014
       8 -> 32         0.00255
       8 -> 34         0.00168
       8 -> 38         0.00075
       8 -> 39        -0.00057
       8 -> 41        -0.00028
       8 -> 44        -0.00054
       8 -> 45        -0.00102
       8 -> 48         0.00028
       8 -> 54        -0.00015
       3 <- 12         0.00030
       3 <- 16        -0.00017
       3 <- 18         0.00061
       3 <- 23        -0.00016
       3 <- 24         0.00085
       3 <- 29        -0.00016
       3 <- 35        -0.00014
       4 <- 12         0.00011
       4 <- 16         0.00041
       4 <- 18         0.00269
       4 <- 23        -0.00168
       4 <- 24         0.00304
       4 <- 29        -0.00034
       4 <- 33        -0.00071
       4 <- 35         0.00066
       4 <- 40        -0.00023
       4 <- 42         0.00017
       5 <- 10         0.00220
       5 <- 14         0.00442
       5 <- 15         0.00161
       5 <- 19         0.00093
       5 <- 20        -0.00022
       5 <- 21         0.00191
       5 <- 25         0.00167
       5 <- 26         0.00128
       5 <- 30         0.00087
       5 <- 32        -0.00039
       5 <- 38        -0.00051
       5 <- 39         0.00016
       5 <- 41         0.00036
       5 <- 44         0.00030
       5 <- 45        -0.00050
       5 <- 48         0.00030
       6 <- 27         0.00068
       6 <- 46         0.00071
       7 <- 12         0.00059
       7 <- 16         0.00153
       7 <- 18         0.00161
       7 <- 23        -0.00095
       7 <- 24         0.00101
       7 <- 29         0.00062
       7 <- 33        -0.00012
       7 <- 35         0.00011
       7 <- 42        -0.00034
       7 <- 47         0.00034
       7 <- 50         0.00055
       8 <- 10        -0.00396
       8 <- 11        -0.00166
       8 <- 14        -0.01179
       8 <- 15        -0.00146
       8 <- 19        -0.00090
       8 <- 20        -0.00031
       8 <- 21        -0.00398
       8 <- 25        -0.00307
       8 <- 26         0.00059
       8 <- 30        -0.00055
       8 <- 32         0.00122
       8 <- 34         0.00158
       8 <- 38         0.00077
       8 <- 39        -0.00047
       8 <- 41        -0.00015
       8 <- 44        -0.00048
       8 <- 45        -0.00071
       8 <- 48         0.00028
 
 Excited State   3:      Singlet-B2     6.8688 eV  180.50 nm  f=0.0211  <S**2>=0.000
       3 -> 12        -0.00013
       3 -> 16         0.00069
       3 -> 23         0.00018
       3 -> 24         0.00041
       3 -> 29         0.00108
       3 -> 33         0.00014
       3 -> 35        -0.00030
       3 -> 42        -0.00032
       3 -> 47         0.00020
       3 -> 50         0.00023
       4 -> 12         0.00294
       4 -> 16         0.00364
       4 -> 18         0.00245
       4 -> 23        -0.00150
       4 -> 24         0.00361
       4 -> 29        -0.00113
       4 -> 33         0.00056
       4 -> 35        -0.00021
       4 -> 40        -0.00023
       4 -> 47         0.00015
       4 -> 50         0.00014
       5 -> 10        -0.00574
       5 -> 11         0.00014
       5 -> 14         0.00352
       5 -> 15         0.00512
       5 -> 19        -0.00358
       5 -> 20        -0.00115
       5 -> 21         0.00129
       5 -> 25         0.00107
       5 -> 26        -0.00125
       5 -> 30         0.00078
       5 -> 32        -0.00205
       5 -> 34        -0.00060
       5 -> 39        -0.00069
       5 -> 41        -0.00078
       5 -> 44         0.00011
       5 -> 45         0.00062
       5 -> 48        -0.00045
       5 -> 51        -0.00024
       6 -> 27        -0.00079
       6 -> 36        -0.00131
       6 -> 46        -0.00115
       7 -> 12        -0.00301
       7 -> 16         0.00054
       7 -> 18        -0.00238
       7 -> 23         0.00137
       7 -> 24        -0.00022
       7 -> 33        -0.00029
       7 -> 35         0.00128
       7 -> 40        -0.00034
       7 -> 42         0.00071
       7 -> 47        -0.00067
       7 -> 50        -0.00063
       7 -> 53         0.00015
       8 -> 10         0.02296
       8 -> 11         0.70573
       8 -> 14        -0.01604
       8 -> 15        -0.02220
       8 -> 19        -0.01907
       8 -> 20         0.01452
       8 -> 21        -0.00253
       8 -> 25         0.00032
       8 -> 30        -0.00169
       8 -> 32         0.00024
       8 -> 34         0.00042
       8 -> 38        -0.00013
       8 -> 39        -0.00052
       8 -> 41        -0.00137
       8 -> 45         0.00074
       8 -> 48        -0.00070
       8 -> 51        -0.00019
       8 -> 54         0.00017
       3 <- 12         0.00026
       3 <- 16         0.00057
       3 <- 18         0.00039
       3 <- 24         0.00048
       3 <- 29         0.00070
       3 <- 33         0.00018
       3 <- 35        -0.00034
       3 <- 42        -0.00027
       3 <- 47         0.00016
       3 <- 50         0.00013
       3 <- 53        -0.00021
       4 <- 12         0.00030
       4 <- 16         0.00043
       4 <- 18         0.00121
       4 <- 23        -0.00127
       4 <- 24         0.00167
       4 <- 29        -0.00047
       4 <- 33         0.00055
       4 <- 35         0.00013
       4 <- 40        -0.00023
       4 <- 42        -0.00011
       4 <- 50         0.00021
       5 <- 10         0.00136
       5 <- 11        -0.00039
       5 <- 14         0.00190
       5 <- 15         0.00053
       5 <- 19         0.00064
       5 <- 20         0.00020
       5 <- 21         0.00101
       5 <- 25         0.00095
       5 <- 26        -0.00091
       5 <- 30         0.00082
       5 <- 32        -0.00065
       5 <- 34        -0.00111
       5 <- 38         0.00011
       5 <- 39        -0.00047
       5 <- 41        -0.00079
       5 <- 44         0.00014
       5 <- 45         0.00062
       5 <- 48        -0.00031
       5 <- 51        -0.00023
       6 <- 27        -0.00034
       6 <- 36        -0.00108
       6 <- 46        -0.00099
       7 <- 12        -0.00036
       7 <- 16        -0.00025
       7 <- 18        -0.00027
       7 <- 23         0.00028
       7 <- 29        -0.00025
       7 <- 35         0.00090
       7 <- 40        -0.00026
       7 <- 42         0.00049
       7 <- 47        -0.00058
       7 <- 50        -0.00057
       8 <- 10        -0.00158
       8 <- 11         0.00114
       8 <- 14        -0.00596
       8 <- 15        -0.00122
       8 <- 19         0.00215
       8 <- 20        -0.00183
       8 <- 21        -0.00253
       8 <- 25        -0.00031
       8 <- 26        -0.00100
       8 <- 30        -0.00106
       8 <- 32         0.00112
       8 <- 34        -0.00011
       8 <- 38        -0.00029
       8 <- 39        -0.00028
       8 <- 41        -0.00115
       8 <- 45         0.00063
       8 <- 48        -0.00046
       8 <- 51        -0.00019
 
 Excited State   4:      Singlet-A1     7.0066 eV  176.95 nm  f=0.0464  <S**2>=0.000
       3 -> 10         0.00138
       3 -> 11        -0.00088
       3 -> 14         0.00019
       3 -> 15         0.00055
       3 -> 19         0.00127
       3 -> 20         0.00048
       3 -> 21        -0.00017
       3 -> 25         0.00017
       3 -> 26         0.00015
       3 -> 30         0.00110
       3 -> 32        -0.00027
       3 -> 34        -0.00020
       3 -> 38        -0.00035
       3 -> 39        -0.00022
       3 -> 41        -0.00015
       3 -> 48        -0.00015
       3 -> 51        -0.00031
       3 -> 54         0.00021
       4 -> 10         0.00556
       4 -> 11         0.01001
       4 -> 14         0.00625
       4 -> 15         0.00146
       4 -> 19         0.00087
       4 -> 20         0.00650
       4 -> 21         0.00236
       4 -> 25         0.00693
       4 -> 26         0.00081
       4 -> 30        -0.00071
       4 -> 32        -0.00055
       4 -> 34        -0.00097
       4 -> 38        -0.00020
       4 -> 39         0.00072
       4 -> 41         0.00018
       4 -> 45        -0.00033
       4 -> 48        -0.00026
       5 -> 12         0.00766
       5 -> 16         0.00666
       5 -> 18         0.00884
       5 -> 23         0.00032
       5 -> 24         0.00439
       5 -> 29         0.00055
       5 -> 33        -0.00016
       5 -> 35         0.00092
       5 -> 42        -0.00021
       5 -> 50        -0.00036
       5 -> 53        -0.00014
       6 ->  9         0.00840
       6 -> 13         0.00421
       6 -> 17         0.00517
       6 -> 22         0.00436
       6 -> 28         0.00054
       6 -> 31         0.00088
       6 -> 37         0.00053
       6 -> 43         0.00054
       6 -> 49        -0.00037
       7 -> 10         0.01326
       7 -> 11        -0.00499
       7 -> 14         0.00325
       7 -> 15        -0.00123
       7 -> 19         0.00730
       7 -> 20         0.00347
       7 -> 21         0.00131
       7 -> 25         0.00208
       7 -> 26         0.00029
       7 -> 32         0.00059
       7 -> 34        -0.00091
       7 -> 39         0.00021
       7 -> 48        -0.00019
       7 -> 51         0.00048
       8 -> 12         0.70553
       8 -> 16         0.03968
       8 -> 18         0.00755
       8 -> 23         0.00419
       8 -> 24         0.00145
       8 -> 29         0.00292
       8 -> 33         0.00152
       8 -> 35        -0.00245
       8 -> 42         0.00132
       8 -> 47        -0.00041
       8 -> 50        -0.00015
       8 -> 53        -0.00014
       3 <- 10         0.00057
       3 <- 11        -0.00031
       3 <- 14         0.00014
       3 <- 15         0.00025
       3 <- 19         0.00068
       3 <- 20         0.00020
       3 <- 25         0.00027
       3 <- 30         0.00065
       3 <- 32        -0.00022
       3 <- 34        -0.00014
       3 <- 38        -0.00027
       3 <- 39        -0.00019
       3 <- 41        -0.00015
       3 <- 48        -0.00017
       3 <- 51        -0.00026
       3 <- 54         0.00019
       4 <- 10         0.00561
       4 <- 11         0.00339
       4 <- 14         0.00464
       4 <- 15         0.00156
       4 <- 19         0.00066
       4 <- 20         0.00367
       4 <- 21         0.00084
       4 <- 25         0.00414
       4 <- 26         0.00036
       4 <- 32        -0.00082
       4 <- 34        -0.00090
       4 <- 38        -0.00029
       4 <- 39         0.00063
       4 <- 45        -0.00030
       4 <- 48        -0.00021
       5 <- 12         0.00268
       5 <- 16         0.00155
       5 <- 18         0.00400
       5 <- 23         0.00054
       5 <- 24         0.00238
       5 <- 29         0.00015
       5 <- 33        -0.00030
       5 <- 35         0.00081
       5 <- 42        -0.00019
       5 <- 50        -0.00028
       5 <- 53        -0.00013
       6 <-  9         0.00264
       6 <- 13         0.00158
       6 <- 17         0.00224
       6 <- 22         0.00253
       6 <- 28         0.00031
       6 <- 31         0.00066
       6 <- 37         0.00043
       6 <- 43         0.00046
       6 <- 49        -0.00032
       7 <- 10         0.00439
       7 <- 11        -0.00107
       7 <- 14         0.00154
       7 <- 15        -0.00042
       7 <- 19         0.00303
       7 <- 20         0.00195
       7 <- 21         0.00048
       7 <- 25         0.00122
       7 <- 26         0.00034
       7 <- 30         0.00017
       7 <- 32         0.00033
       7 <- 34        -0.00065
       7 <- 39         0.00028
       7 <- 41         0.00012
       7 <- 51         0.00044
       8 <- 12        -0.00318
       8 <- 16         0.00690
       8 <- 18        -0.00888
       8 <- 23        -0.00030
       8 <- 24        -0.00228
       8 <- 29         0.00132
       8 <- 33         0.00109
       8 <- 35        -0.00166
       8 <- 42         0.00108
       8 <- 47        -0.00048
       8 <- 50        -0.00013
       8 <- 53        -0.00015
 
 Excited State   5:      Singlet-A2     7.6631 eV  161.79 nm  f=0.0000  <S**2>=0.000
       3 -> 27        -0.00143
       3 -> 36        -0.00121
       3 -> 46        -0.00063
       4 -> 27        -0.00056
       4 -> 36         0.00070
       4 -> 46         0.00021
       5 ->  9        -0.00931
       5 -> 13         0.00599
       5 -> 17         0.00325
       5 -> 22         0.00061
       5 -> 28        -0.00017
       5 -> 31        -0.00217
       5 -> 37        -0.00217
       5 -> 43        -0.00031
       5 -> 52        -0.00034
       6 -> 12        -0.00031
       6 -> 16         0.00208
       6 -> 18         0.00073
       6 -> 23        -0.00113
       6 -> 24        -0.00025
       6 -> 29         0.00033
       6 -> 35        -0.00032
       6 -> 42        -0.00030
       6 -> 47        -0.00029
       6 -> 53        -0.00016
       7 -> 36         0.00025
       7 -> 46        -0.00067
       8 ->  9         0.12135
       8 -> 13         0.69618
       8 -> 22         0.02231
       8 -> 28        -0.00141
       8 -> 31        -0.00141
       8 -> 37         0.00072
       8 -> 43         0.00014
       8 -> 49         0.00017
       8 -> 52        -0.00040
       3 <- 27        -0.00082
       3 <- 36        -0.00097
       3 <- 46        -0.00073
       4 <- 27        -0.00110
       4 <- 46         0.00025
       5 <-  9        -0.00029
       5 <- 13         0.00010
       5 <- 17         0.00059
       5 <- 22        -0.00012
       5 <- 31         0.00019
       5 <- 37        -0.00066
       5 <- 43        -0.00018
       5 <- 52        -0.00011
       6 <- 12        -0.00052
       6 <- 16         0.00049
       6 <- 18         0.00065
       6 <- 23        -0.00227
       6 <- 24         0.00020
       6 <- 33         0.00066
       6 <- 35        -0.00119
       6 <- 40         0.00011
       6 <- 42        -0.00065
       6 <- 47        -0.00012
       6 <- 53        -0.00033
       7 <- 27        -0.00035
       7 <- 36         0.00026
       7 <- 46        -0.00032
       8 <-  9         0.00606
       8 <- 13        -0.00020
       8 <- 17         0.00063
       8 <- 22        -0.00049
       8 <- 28         0.00021
       8 <- 31        -0.00079
       8 <- 37         0.00078
       8 <- 52        -0.00016
 
 Excited State   6:      Singlet-B2    10.0295 eV  123.62 nm  f=0.2752  <S**2>=0.000
       3 -> 12        -0.00042
       3 -> 16         0.00171
       3 -> 18        -0.00059
       3 -> 23         0.00134
       3 -> 24         0.00067
       3 -> 29         0.00128
       3 -> 33        -0.00090
       3 -> 35         0.00011
       3 -> 40         0.00036
       3 -> 42         0.00065
       3 -> 47         0.00032
       3 -> 50         0.00016
       4 -> 12        -0.01309
       4 -> 16         0.00646
       4 -> 18         0.00040
       4 -> 23        -0.01430
       4 -> 24         0.01159
       4 -> 33         0.00259
       4 -> 35        -0.00335
       4 -> 40        -0.00033
       4 -> 42         0.00241
       4 -> 47         0.00014
       5 -> 10         0.01098
       5 -> 11        -0.00717
       5 -> 14         0.02660
       5 -> 15         0.00732
       5 -> 19         0.00495
       5 -> 20        -0.01465
       5 -> 21         0.01457
       5 -> 25         0.00722
       5 -> 26         0.00190
       5 -> 30        -0.00129
       5 -> 32         0.00303
       5 -> 34         0.00256
       5 -> 38         0.00024
       5 -> 39        -0.00219
       5 -> 41        -0.00013
       5 -> 44         0.00044
       5 -> 51        -0.00020
       6 -> 27         0.00755
       6 -> 36         0.00040
       6 -> 46        -0.00048
       7 -> 12         0.00223
       7 -> 16         0.00601
       7 -> 18         0.00770
       7 -> 23        -0.00709
       7 -> 24         0.00654
       7 -> 29         0.00135
       7 -> 33         0.00167
       7 -> 35        -0.00096
       7 -> 40        -0.00044
       7 -> 42         0.00080
       7 -> 47        -0.00040
       7 -> 50        -0.00018
       8 -> 10         0.01447
       8 -> 11         0.01397
       8 -> 14         0.70223
       8 -> 15        -0.06168
       8 -> 19         0.02058
       8 -> 20         0.01305
       8 -> 21        -0.03785
       8 -> 25        -0.01019
       8 -> 26         0.00079
       8 -> 30        -0.00063
       8 -> 32         0.00410
       8 -> 34         0.00274
       8 -> 38         0.00027
       8 -> 39         0.00492
       8 -> 41        -0.00191
       8 -> 44        -0.00115
       8 -> 45        -0.00110
       8 -> 48        -0.00088
       3 <- 12        -0.00027
       3 <- 16         0.00079
       3 <- 18        -0.00036
       3 <- 23         0.00063
       3 <- 24         0.00046
       3 <- 29         0.00073
       3 <- 33        -0.00053
       3 <- 40         0.00026
       3 <- 42         0.00051
       3 <- 47         0.00032
       3 <- 53        -0.00010
       4 <- 12        -0.00245
       4 <- 16         0.00222
       4 <- 18         0.00254
       4 <- 23        -0.00759
       4 <- 24         0.00672
       4 <- 29         0.00011
       4 <- 33         0.00090
       4 <- 35        -0.00234
       4 <- 40        -0.00043
       4 <- 42         0.00170
       4 <- 50         0.00018
       5 <- 10         0.00350
       5 <- 11        -0.00149
       5 <- 14         0.01042
       5 <- 15         0.00322
       5 <- 19         0.00221
       5 <- 20        -0.00599
       5 <- 21         0.00744
       5 <- 25         0.00428
       5 <- 26         0.00145
       5 <- 30        -0.00119
       5 <- 32         0.00203
       5 <- 34         0.00074
       5 <- 38         0.00025
       5 <- 39        -0.00161
       5 <- 44         0.00025
       5 <- 45         0.00012
       5 <- 51        -0.00012
       6 <- 27         0.00497
       6 <- 46        -0.00058
       7 <- 12         0.00030
       7 <- 16         0.00191
       7 <- 18         0.00265
       7 <- 23        -0.00338
       7 <- 24         0.00314
       7 <- 29         0.00100
       7 <- 33         0.00094
       7 <- 35        -0.00059
       7 <- 40        -0.00044
       7 <- 42         0.00055
       7 <- 47        -0.00032
       8 <- 10        -0.01236
       8 <- 11        -0.00599
       8 <- 14        -0.02735
       8 <- 15        -0.00256
       8 <- 19         0.00214
       8 <- 20         0.00442
       8 <- 21        -0.01866
       8 <- 25        -0.00667
       8 <- 26        -0.00012
       8 <- 30        -0.00056
       8 <- 32         0.00185
       8 <- 34         0.00099
       8 <- 38         0.00025
       8 <- 39         0.00309
       8 <- 41        -0.00134
       8 <- 44        -0.00093
       8 <- 45        -0.00048
       8 <- 48        -0.00067
 
 Excited State   7:      Singlet-B2    10.3719 eV  119.54 nm  f=0.0222  <S**2>=0.000
       3 -> 16         0.00059
       3 -> 18        -0.00040
       3 -> 23         0.00136
       3 -> 24         0.00016
       3 -> 29         0.00054
       3 -> 33        -0.00030
       3 -> 35         0.00045
       3 -> 42         0.00030
       4 -> 12        -0.00300
       4 -> 16        -0.00183
       4 -> 18         0.00085
       4 -> 23        -0.00505
       4 -> 24        -0.00038
       4 -> 33        -0.00076
       4 -> 35        -0.00026
       4 -> 40         0.00020
       4 -> 42         0.00030
       4 -> 47         0.00020
       4 -> 50         0.00011
       5 -> 10         0.00064
       5 -> 11         0.00673
       5 -> 14         0.00347
       5 -> 15         0.01295
       5 -> 19         0.00059
       5 -> 20        -0.00260
       5 -> 21         0.00064
       5 -> 25         0.00022
       5 -> 26         0.00359
       5 -> 30        -0.00101
       5 -> 32         0.00141
       5 -> 34        -0.00047
       5 -> 38         0.00049
       5 -> 39         0.00020
       5 -> 41        -0.00063
       5 -> 44         0.00063
       5 -> 45         0.00031
       5 -> 48        -0.00026
       5 -> 51         0.00015
       5 -> 54         0.00020
       6 -> 27         0.00134
       6 -> 36         0.00022
       6 -> 46        -0.00041
       7 -> 12         0.00019
       7 -> 16         0.00018
       7 -> 18         0.00062
       7 -> 23         0.00123
       7 -> 24         0.00132
       7 -> 29         0.00102
       7 -> 35         0.00024
       7 -> 40        -0.00024
       7 -> 42         0.00034
       7 -> 47        -0.00021
       7 -> 50        -0.00027
       8 -> 10        -0.00978
       8 -> 11         0.02454
       8 -> 14         0.06052
       8 -> 15         0.70326
       8 -> 19         0.01864
       8 -> 20        -0.01458
       8 -> 21        -0.01330
       8 -> 25         0.00532
       8 -> 26         0.00740
       8 -> 30        -0.00046
       8 -> 32         0.00039
       8 -> 34        -0.00023
       8 -> 38         0.00107
       8 -> 39         0.00032
       8 -> 41        -0.00040
       8 -> 44        -0.00050
       8 -> 45         0.00027
       8 -> 48        -0.00011
       8 -> 54         0.00017
       3 <- 12        -0.00024
       3 <- 16         0.00070
       3 <- 18        -0.00052
       3 <- 23         0.00066
       3 <- 24        -0.00038
       3 <- 29         0.00064
       3 <- 33        -0.00028
       3 <- 35         0.00038
       3 <- 42         0.00018
       4 <- 12        -0.00010
       4 <- 16         0.00028
       4 <- 18         0.00090
       4 <- 23        -0.00111
       4 <- 24         0.00100
       4 <- 29         0.00021
       4 <- 33        -0.00069
       4 <- 35        -0.00042
       4 <- 40         0.00011
       4 <- 42         0.00011
       4 <- 47         0.00018
       4 <- 50         0.00019
       5 <- 10         0.00091
       5 <- 11        -0.00066
       5 <- 14         0.00155
       5 <- 15         0.00089
       5 <- 19         0.00136
       5 <- 20        -0.00131
       5 <- 21         0.00058
       5 <- 25         0.00079
       5 <- 26         0.00045
       5 <- 30        -0.00040
       5 <- 32         0.00085
       5 <- 38        -0.00014
       5 <- 41        -0.00013
       5 <- 44         0.00026
       5 <- 45         0.00013
       5 <- 48        -0.00021
       6 <- 27         0.00065
       6 <- 36         0.00026
       6 <- 46        -0.00020
       7 <- 12         0.00040
       7 <- 16        -0.00082
       7 <- 18         0.00091
       7 <- 23        -0.00015
       7 <- 24         0.00111
       7 <- 29        -0.00044
       7 <- 40        -0.00014
       7 <- 42         0.00031
       7 <- 47        -0.00028
       7 <- 50        -0.00043
       7 <- 53        -0.00017
       8 <- 10        -0.00261
       8 <- 11        -0.00154
       8 <- 14        -0.00471
       8 <- 15         0.00077
       8 <- 19         0.00059
       8 <- 20         0.00142
       8 <- 21        -0.00196
       8 <- 25        -0.00138
       8 <- 26        -0.00028
       8 <- 30         0.00061
       8 <- 32         0.00042
       8 <- 38         0.00084
       8 <- 39         0.00018
       8 <- 41        -0.00027
       8 <- 44        -0.00035
       8 <- 45         0.00014
       8 <- 48        -0.00018
       8 <- 51        -0.00014
 
 Excited State   8:      Singlet-A1    11.3653 eV  109.09 nm  f=0.0002  <S**2>=0.000
       3 -> 10        -0.00051
       3 -> 11         0.00143
       3 -> 14         0.00137
       3 -> 15        -0.00192
       3 -> 19        -0.00211
       3 -> 20         0.00157
       3 -> 21         0.00210
       3 -> 25        -0.00180
       3 -> 26         0.00021
       3 -> 30         0.00078
       3 -> 32        -0.00117
       3 -> 34         0.00278
       3 -> 38        -0.00046
       3 -> 39        -0.00028
       3 -> 41         0.00121
       3 -> 44        -0.00032
       3 -> 45        -0.00089
       3 -> 48        -0.00041
       3 -> 51        -0.00044
       3 -> 54         0.00029
       4 -> 10        -0.01964
       4 -> 11        -0.00662
       4 -> 14        -0.00722
       4 -> 15        -0.00970
       4 -> 19        -0.00140
       4 -> 20        -0.01037
       4 -> 21         0.00041
       4 -> 25        -0.00257
       4 -> 26        -0.00375
       4 -> 30        -0.00099
       4 -> 32         0.00323
       4 -> 34        -0.00112
       4 -> 38         0.00044
       4 -> 39        -0.00092
       4 -> 45         0.00052
       4 -> 51        -0.00035
       4 -> 54        -0.00031
       5 -> 12        -0.00893
       5 -> 16        -0.00238
       5 -> 18        -0.00801
       5 -> 23        -0.00358
       5 -> 24        -0.00629
       5 -> 29        -0.00238
       5 -> 33        -0.00093
       5 -> 42         0.00141
       5 -> 47        -0.00053
       5 -> 50        -0.00066
       5 -> 53        -0.00029
       6 ->  9        -0.07849
       6 -> 13         0.00083
       6 -> 17        -0.02600
       6 -> 22        -0.00381
       6 -> 28        -0.00963
       6 -> 37         0.00048
       6 -> 43         0.00043
       6 -> 49        -0.00126
       6 -> 52        -0.00111
       7 -> 10        -0.04786
       7 -> 11         0.02084
       7 -> 14        -0.00321
       7 -> 15         0.01701
       7 -> 19        -0.01734
       7 -> 20        -0.00650
       7 -> 21        -0.00272
       7 -> 25        -0.00198
       7 -> 26         0.01014
       7 -> 30        -0.00446
       7 -> 32        -0.00313
       7 -> 34         0.00068
       7 -> 38         0.00096
       7 -> 39        -0.00035
       7 -> 41         0.00061
       7 -> 44        -0.00029
       7 -> 45        -0.00032
       7 -> 48         0.00082
       7 -> 51         0.00174
       7 -> 54         0.00073
       8 -> 12        -0.03703
       8 -> 16         0.66991
       8 -> 18         0.19656
       8 -> 23         0.00851
       8 -> 24         0.01054
       8 -> 29        -0.00384
       8 -> 33         0.00057
       8 -> 35         0.00111
       8 -> 40         0.00036
       8 -> 42        -0.00060
       8 -> 47        -0.00043
       8 -> 50        -0.00097
       8 -> 53        -0.00036
       3 <- 10        -0.00046
[...]
  54        6D-1       -0.00000   0.00000  -0.00331  -0.00315   0.00328
  55        6D+2        0.00000   0.00000  -0.00010  -0.00018  -0.00002
  56        6D-2        0.00000   0.00000   0.00000   0.00000   0.00000
                          26        27        28        29        30
  26        4PX         0.00015
  27        4PY         0.00000   0.00137
  28        4PZ         0.00000  -0.00054   0.00035
  29 3   H  1S          0.00000  -0.00371  -0.00100   0.08417
  30        2S          0.00000  -0.00530  -0.00159   0.12615   0.19422
  31        3S          0.00000  -0.00143  -0.00119   0.07681   0.13109
  32        4PX         0.00015   0.00000   0.00000   0.00000   0.00000
  33        4PY         0.00000  -0.00075   0.00001   0.00711   0.00919
  34        4PZ         0.00000  -0.00001  -0.00017   0.00424   0.00574
  35 4   O  1S          0.00000  -0.00102  -0.00066   0.00354   0.00511
  36        2S          0.00000  -0.00211  -0.00045   0.00613   0.00954
  37        2PX         0.00416   0.00000   0.00000   0.00000   0.00000
  38        2PY         0.00000  -0.00562   0.00327   0.02727   0.06453
  39        2PZ         0.00000  -0.00490  -0.00003   0.00885   0.02054
  40        3S          0.00000   0.00771  -0.00085  -0.02070  -0.03345
  41        3PX         0.00603   0.00000   0.00000   0.00000   0.00000
  42        3PY         0.00000  -0.00803   0.00464   0.04070   0.09520
  43        3PZ         0.00000  -0.00699  -0.00003   0.01273   0.02933
  44        4S          0.00000   0.00363  -0.00114  -0.01826  -0.02126
  45        4PX         0.00405   0.00000   0.00000   0.00000   0.00000
  46        4PY         0.00000  -0.00534   0.00225   0.05865   0.11753
  47        4PZ         0.00000  -0.00314   0.00003   0.00672   0.01435
  48        5S          0.00000   0.00030  -0.00048  -0.00627  -0.00560
  49        5PX         0.00009   0.00000   0.00000   0.00000   0.00000
  50        5PY         0.00000  -0.00022  -0.00082   0.03679   0.06387
  51        5PZ         0.00000  -0.00093   0.00020   0.00418   0.00588
  52        6D 0        0.00000   0.00102  -0.00004  -0.00219  -0.00440
  53        6D+1       -0.00062   0.00000   0.00000   0.00000   0.00000
  54        6D-1        0.00000   0.00080  -0.00066   0.00331   0.00315
  55        6D+2        0.00000   0.00004  -0.00000  -0.00010  -0.00018
  56        6D-2       -0.00000   0.00000   0.00000   0.00000   0.00000
                          31        32        33        34        35
  31        3S          0.12761
  32        4PX         0.00000   0.00015
  33        4PY         0.00032   0.00000   0.00137
  34        4PZ         0.00178   0.00000   0.00054   0.00035
  35 4   O  1S          0.00216   0.00000   0.00102  -0.00066   0.63940
  36        2S          0.00256   0.00000   0.00211  -0.00045   0.56914
  37        2PX         0.00000   0.00416   0.00000   0.00000   0.00000
  38        2PY         0.10806   0.00000  -0.00562  -0.00327   0.00000
  39        2PZ        -0.00273   0.00000   0.00490  -0.00003  -0.00459
  40        3S         -0.00475   0.00000  -0.00771  -0.00085  -0.12544
  41        3PX         0.00000   0.00603   0.00000   0.00000   0.00000
  42        3PY         0.15742   0.00000  -0.00803  -0.00464   0.00000
  43        3PZ        -0.00379   0.00000   0.00699  -0.00003  -0.00857
  44        4S         -0.00781   0.00000  -0.00363  -0.00114  -0.12501
  45        4PX         0.00000   0.00405   0.00000   0.00000   0.00000
  46        4PY         0.15796   0.00000  -0.00534  -0.00225   0.00000
  47        4PZ        -0.00179   0.00000   0.00314   0.00003  -0.01365
  48        5S         -0.00262   0.00000  -0.00030  -0.00048  -0.01192
  49        5PX         0.00000   0.00009   0.00000   0.00000   0.00000
  50        5PY         0.06452   0.00000  -0.00022   0.00082  -0.00000
  51        5PZ         0.00057   0.00000   0.00093   0.00020   0.00300
  52        6D 0        0.00021   0.00000  -0.00102  -0.00004  -0.00255
  53        6D+1        0.00000  -0.00062   0.00000   0.00000   0.00000
  54        6D-1       -0.00328   0.00000   0.00080   0.00066   0.00000
  55        6D+2       -0.00002   0.00000  -0.00004  -0.00000  -0.00051
  56        6D-2        0.00000   0.00000   0.00000   0.00000   0.00000
                          36        37        38        39        40
  36        2S          0.52411
  37        2PX         0.00000   0.11892
  38        2PY         0.00000   0.00000   0.17805
  39        2PZ        -0.00684   0.00000  -0.00000   0.17919
  40        3S         -0.21769   0.00000   0.00000   0.02181   0.66711
  41        3PX         0.00000   0.17208   0.00000   0.00000   0.00000
  42        3PY         0.00000   0.00000   0.25691  -0.00000  -0.00000
  43        3PZ        -0.01015   0.00000  -0.00000   0.25221   0.02288
  44        4S         -0.19924   0.00000   0.00000   0.16552   0.56165
  45        4PX         0.00000   0.11564   0.00000   0.00000   0.00000
  46        4PY         0.00000   0.00000   0.21240  -0.00000  -0.00000
  47        4PZ        -0.02151   0.00000  -0.00000   0.12412   0.06208
  48        5S         -0.02004   0.00000   0.00000   0.05909   0.06134
  49        5PX         0.00000   0.00248   0.00000   0.00000   0.00000
  50        5PY        -0.00000   0.00000   0.05404  -0.00000   0.00000
  51        5PZ         0.00411   0.00000  -0.00000   0.00828  -0.00932
  52        6D 0       -0.00544  -0.00000   0.00000  -0.02563   0.01911
  53        6D+1        0.00000  -0.01757   0.00000   0.00000  -0.00000
  54        6D-1        0.00000   0.00000  -0.01594   0.00000  -0.00000
  55        6D+2       -0.00093  -0.00000  -0.00000  -0.00016   0.00300
  56        6D-2        0.00000   0.00000   0.00000   0.00000   0.00000
                          41        42        43        44        45
  41        3PX         0.24902
  42        3PY         0.00000   0.37074
  43        3PZ         0.00000  -0.00000   0.35510
  44        4S          0.00000   0.00000   0.22664   0.59752
  45        4PX         0.16734   0.00000   0.00000   0.00000   0.11245
  46        4PY         0.00000   0.30719  -0.00000  -0.00000   0.00000
  47        4PZ         0.00000  -0.00000   0.17419   0.15224   0.00000
  48        5S          0.00000   0.00000   0.08255   0.10083   0.00000
  49        5PX         0.00358   0.00000   0.00000   0.00000   0.00241
  50        5PY         0.00000   0.07876  -0.00000   0.00000   0.00000
  51        5PZ         0.00000  -0.00000   0.01176  -0.00178   0.00000
  52        6D 0       -0.00000   0.00000  -0.03634  -0.00554  -0.00000
  53        6D+1       -0.02543   0.00000   0.00000   0.00000  -0.01709
  54        6D-1        0.00000  -0.02284   0.00000   0.00000   0.00000
  55        6D+2       -0.00000  -0.00000  -0.00025   0.00231  -0.00000
  56        6D-2        0.00000   0.00000   0.00000   0.00000   0.00000
                          46        47        48        49        50
  46        4PY         0.26723
  47        4PZ        -0.00000   0.08952
  48        5S          0.00000   0.04426   0.02578
  49        5PX         0.00000   0.00000   0.00000   0.00005
  50        5PY         0.07959  -0.00000  -0.00000   0.00000   0.03291
  51        5PZ        -0.00000   0.00523   0.00102   0.00000  -0.00000
  52        6D 0        0.00000  -0.01619  -0.00659  -0.00000   0.00000
  53        6D+1        0.00000   0.00000   0.00000  -0.00037   0.00000
  54        6D-1       -0.01597   0.00000   0.00000   0.00000  -0.00151
  55        6D+2       -0.00000   0.00011   0.00019   0.00000  -0.00000
  56        6D-2        0.00000   0.00000   0.00000   0.00000  -0.00000
                          51        52        53        54        55
  51        5PZ         0.00095
  52        6D 0       -0.00155   0.00441
  53        6D+1        0.00000   0.00000   0.00260
  54        6D-1        0.00000  -0.00000   0.00000   0.00210
  55        6D+2       -0.00005   0.00012   0.00000   0.00000   0.00001
  56        6D-2        0.00000   0.00000  -0.00000  -0.00000   0.00000
                          56
  56        6D-2        0.00000
          Condensed to atoms (all electrons):
               1          2          3          4
     1  C    4.577280   0.437922   0.437922   0.372952
     2  H    0.437922   0.850331  -0.163088  -0.143481
     3  H    0.437922  -0.163088   0.850331  -0.143481
     4  O    0.372952  -0.143481  -0.143481   8.124566
 Mulliken charges:
               1
     1  C    0.173924
     2  H    0.018316
     3  H    0.018316
     4  O   -0.210555
 Sum of Mulliken charges =  -0.00000
 Mulliken charges with hydrogens summed into heavy atoms:
               1
     1  C    0.210555
     4  O   -0.210555
 Electronic spatial extent (au):  <R**2>=             51.6761
 Charge=             -0.0000 electrons
 Dipole moment (field-independent basis, Debye):
    X=              0.0000    Y=              0.0000    Z=             -0.8319  Tot=              0.8319
 Quadrupole moment (field-independent basis, Debye-Ang):
   XX=            -10.9062   YY=            -12.2004   ZZ=            -13.1211
   XY=             -0.0000   XZ=             -0.0000   YZ=              0.0000
 Traceless Quadrupole moment (field-independent basis, Debye-Ang):
   XX=              1.1697   YY=             -0.1245   ZZ=             -1.0452
   XY=             -0.0000   XZ=             -0.0000   YZ=              0.0000
 Octapole moment (field-independent basis, Debye-Ang**2):
  XXX=              0.0000  YYY=              0.0000  ZZZ=              3.2016  XYY=              0.0000
  XXY=             -0.0000  XXZ=              1.1384  XZZ=              0.0000  YZZ=             -0.0000
  YYZ=              1.8980  XYZ=              0.0000
 Hexadecapole moment (field-independent basis, Debye-Ang**3):
 XXXX=             -9.0761 YYYY=            -23.0545 ZZZZ=            -38.5673 XXXY=             -0.0000
 XXXZ=             -0.0000 YYYX=             -0.0000 YYYZ=              0.0000 ZZZX=             -0.0000
 ZZZY=              0.0000 XXYY=             -5.4241 XXZZ=             -7.7025 YYZZ=            -11.3204
 XXYZ=             -0.0000 YYXZ=             -0.0000 ZZXY=             -0.0000
 N-N= 3.806301501668D+01 E-N=-3.458686487880D+02  KE= 1.160652657788D+02
 Symmetry A1   KE= 1.051492797169D+02
 Symmetry A2   KE= 1.202028929384D-35
 Symmetry B1   KE= 4.086602369610D+00
 Symmetry B2   KE= 6.829383692342D+00
 Leave Link  601 at Fri Sep 17 10:52:33 2021, MaxMem=   268435456 cpu:               0.0 elap:               0.0
 (Enter /software/gaussian/g16-a03/l9999.exe)
 Electronic transition elements 
                 1             2             3             4             5 
      1  -0.114120D+03 -0.114095D+03 -0.114066D+03 -0.114061D+03 -0.114037D+03
      2   0.000000D+00  0.000000D+00  0.000000D+00  0.000000D+00  0.000000D+00
      3   0.000000D+00  0.727996D+00  0.354475D+00  0.000000D+00  0.000000D+00
      4   0.000000D+00  0.000000D+00  0.000000D+00 -0.520128D+00  0.000000D+00
      5   0.000000D+00  0.000000D+00  0.000000D+00  0.000000D+00  0.000000D+00
      6   0.000000D+00 -0.158994D+00 -0.917805D-01  0.000000D+00  0.000000D+00
      7   0.000000D+00  0.000000D+00  0.000000D+00  0.127834D+00  0.000000D+00
      8   0.000000D+00 -0.436714D+00  0.795729D+00  0.000000D+00  0.000000D+00
      9   0.000000D+00  0.000000D+00  0.000000D+00  0.000000D+00  0.000000D+00
     10   0.127529D+01  0.000000D+00  0.000000D+00  0.000000D+00 -0.368026D+00
     11   0.000000D+00  0.000000D+00  0.000000D+00 -0.173724D+00  0.000000D+00
     12   0.000000D+00  0.000000D+00  0.000000D+00 -0.624409D+00  0.000000D+00
     13   0.000000D+00  0.000000D+00  0.000000D+00 -0.201620D+00  0.000000D+00
     14  -0.223059D+00  0.000000D+00  0.000000D+00  0.000000D+00 -0.120767D+00
     15   0.000000D+00  0.000000D+00  0.000000D+00  0.000000D+00  0.000000D+00
     16   0.000000D+00  0.521333D+00  0.243205D+00  0.000000D+00  0.000000D+00
                 6             7             8             9            10 
      1  -0.113950D+03 -0.113937D+03 -0.113901D+03 -0.113897D+03 -0.113873D+03
      2   0.000000D+00  0.000000D+00  0.000000D+00  0.000000D+00  0.000000D+00
      3   0.105821D+01  0.295291D+00  0.000000D+00  0.000000D+00  0.000000D+00
      4   0.000000D+00  0.000000D+00  0.256179D-01  0.000000D+00 -0.763258D+00
      5   0.000000D+00  0.000000D+00  0.000000D+00  0.000000D+00  0.000000D+00
      6  -0.393549D+00 -0.802941D-01  0.000000D+00  0.000000D+00  0.000000D+00
      7   0.000000D+00  0.000000D+00 -0.143147D-01  0.000000D+00  0.340927D+00
      8  -0.798977D+00 -0.972598D+00  0.000000D+00  0.000000D+00  0.000000D+00
      9   0.000000D+00  0.000000D+00  0.000000D+00  0.000000D+00  0.000000D+00
     10   0.000000D+00  0.000000D+00  0.000000D+00  0.105036D+00  0.000000D+00
     11   0.000000D+00  0.000000D+00  0.140948D+00  0.000000D+00  0.159058D+00
     12   0.000000D+00  0.000000D+00  0.714606D+00  0.000000D+00 -0.551850D+00
     13   0.000000D+00  0.000000D+00  0.708154D+00  0.000000D+00 -0.631618D+00
     14   0.000000D+00  0.000000D+00  0.000000D+00  0.254907D+00  0.000000D+00
     15   0.000000D+00  0.000000D+00  0.000000D+00  0.000000D+00  0.000000D+00
     16   0.919253D+00 -0.131959D+00  0.000000D+00  0.000000D+00  0.000000D+00
                11            12            13            14            15 
      1  -0.113852D+03 -0.113849D+03 -0.113826D+03 -0.113809D+03 -0.113802D+03
      2  -0.647795D-01  0.000000D+00  0.000000D+00 -0.344227D+00  0.000000D+00
      3   0.000000D+00 -0.359038D+00  0.000000D+00  0.000000D+00  0.000000D+00
      4   0.000000D+00  0.000000D+00 -0.569722D-01  0.000000D+00  0.765444D+00
      5   0.203623D-01  0.000000D+00  0.000000D+00  0.178933D+00  0.000000D+00
      6   0.000000D+00  0.174162D+00  0.000000D+00  0.000000D+00  0.000000D+00
      7   0.000000D+00  0.000000D+00  0.271649D-01  0.000000D+00 -0.395537D+00
      8   0.000000D+00 -0.444309D+00  0.000000D+00  0.000000D+00  0.000000D+00
      9  -0.114454D+01  0.000000D+00  0.000000D+00 -0.485698D-01  0.000000D+00
     10   0.000000D+00  0.000000D+00  0.000000D+00  0.000000D+00  0.000000D+00
     11   0.000000D+00  0.000000D+00  0.148837D+00  0.000000D+00  0.882725D-01
     12   0.000000D+00  0.000000D+00  0.392519D+00  0.000000D+00  0.110184D+00
     13   0.000000D+00  0.000000D+00  0.510172D+00  0.000000D+00  0.136529D+00
     14   0.000000D+00  0.000000D+00  0.000000D+00  0.000000D+00  0.000000D+00
     15  -0.453035D+00  0.000000D+00  0.000000D+00 -0.116317D-01  0.000000D+00
     16   0.000000D+00  0.709086D-01  0.000000D+00  0.000000D+00  0.000000D+00
                16            17            18            19            20 
      1  -0.113799D+03 -0.113787D+03 -0.113785D+03 -0.113777D+03 -0.113777D+03
      2   0.000000D+00  0.000000D+00  0.000000D+00  0.220377D+00  0.000000D+00
      3  -0.356793D+00  0.000000D+00  0.000000D+00  0.000000D+00  0.000000D+00
      4   0.000000D+00  0.000000D+00  0.474667D+00  0.000000D+00  0.000000D+00
      5   0.000000D+00  0.000000D+00  0.000000D+00 -0.125099D+00  0.000000D+00
      6   0.185551D+00  0.000000D+00  0.000000D+00  0.000000D+00  0.000000D+00
      7   0.000000D+00  0.000000D+00 -0.246371D+00  0.000000D+00  0.000000D+00
      8  -0.316003D+00  0.000000D+00  0.000000D+00  0.000000D+00  0.000000D+00
      9   0.000000D+00  0.000000D+00  0.000000D+00 -0.337949D+00  0.000000D+00
     10   0.000000D+00 -0.350831D+00  0.000000D+00  0.000000D+00  0.756856D-01
     11   0.000000D+00  0.000000D+00  0.723917D+00  0.000000D+00  0.000000D+00
     12   0.000000D+00  0.000000D+00  0.634698D+00  0.000000D+00  0.000000D+00
     13   0.000000D+00  0.000000D+00  0.184919D+00  0.000000D+00  0.000000D+00
     14   0.000000D+00  0.289686D+00  0.000000D+00  0.000000D+00  0.217754D+00
     15   0.000000D+00  0.000000D+00  0.000000D+00 -0.392877D+00  0.000000D+00
     16   0.935629D-01  0.000000D+00  0.000000D+00  0.000000D+00  0.000000D+00
                21            22            23            24            25 
      1  -0.113770D+03 -0.113761D+03 -0.113755D+03 -0.113742D+03 -0.113741D+03
      2  -0.215806D+00  0.000000D+00  0.000000D+00  0.000000D+00 -0.654534D+00
      3   0.000000D+00 -0.270433D+00 -0.425563D+00  0.000000D+00  0.000000D+00
      4   0.000000D+00  0.000000D+00  0.000000D+00  0.586464D+00  0.000000D+00
      5   0.110379D+00  0.000000D+00  0.000000D+00  0.000000D+00  0.386217D+00
      6   0.000000D+00  0.138945D+00  0.239560D+00  0.000000D+00  0.000000D+00
      7   0.000000D+00  0.000000D+00  0.000000D+00 -0.338954D+00  0.000000D+00
      8   0.000000D+00  0.124232D+01  0.138997D+00  0.000000D+00  0.000000D+00
      9   0.787024D+00  0.000000D+00  0.000000D+00  0.000000D+00 -0.464277D+00
     10   0.000000D+00  0.000000D+00  0.000000D+00  0.000000D+00  0.000000D+00
     11   0.000000D+00  0.000000D+00  0.000000D+00 -0.332592D-01  0.000000D+00
     12   0.000000D+00  0.000000D+00  0.000000D+00  0.633775D+00  0.000000D+00
     13   0.000000D+00  0.000000D+00  0.000000D+00  0.263881D+00  0.000000D+00
     14   0.000000D+00  0.000000D+00  0.000000D+00  0.000000D+00  0.000000D+00
     15   0.337668D+00  0.000000D+00  0.000000D+00  0.000000D+00 -0.506021D+00
     16   0.000000D+00 -0.185902D+00 -0.252596D+00  0.000000D+00  0.000000D+00
                26            27            28            29            30 
      1  -0.113731D+03 -0.113723D+03 -0.113711D+03 -0.113707D+03 -0.113706D+03
      2   0.000000D+00  0.000000D+00  0.000000D+00  0.000000D+00  0.000000D+00
      3   0.000000D+00  0.169555D+00  0.000000D+00  0.000000D+00 -0.108781D+00
      4   0.320019D-01  0.000000D+00  0.237607D+00  0.498441D+00  0.000000D+00
      5   0.000000D+00  0.000000D+00  0.000000D+00  0.000000D+00  0.000000D+00
      6   0.000000D+00 -0.105030D+00  0.000000D+00  0.000000D+00  0.705878D-01
      7  -0.225817D-01  0.000000D+00 -0.151974D+00 -0.301034D+00  0.000000D+00
      8   0.000000D+00 -0.108577D+00  0.000000D+00  0.000000D+00  0.627644D-01
      9   0.000000D+00  0.000000D+00  0.000000D+00  0.000000D+00  0.000000D+00
     10   0.000000D+00  0.000000D+00  0.000000D+00  0.000000D+00  0.000000D+00
     11  -0.304395D+00  0.000000D+00 -0.435616D+00  0.330138D-03  0.000000D+00
     12   0.240431D+00  0.000000D+00 -0.249831D-01 -0.432137D-01  0.000000D+00
     13  -0.412514D+00  0.000000D+00 -0.572191D-01  0.101904D+01  0.000000D+00
     14   0.000000D+00  0.000000D+00  0.000000D+00  0.000000D+00  0.000000D+00
     15   0.000000D+00  0.000000D+00  0.000000D+00  0.000000D+00  0.000000D+00
     16   0.000000D+00 -0.311376D+00  0.000000D+00  0.000000D+00 -0.415464D+00

 Test job not archived.
 1\1\GINC-BHD0008\SP\RB3LYP TD-FC\6-311+G(d,p)\C1H2O1\BWEIGHT\17-Sep-20
 21\0\\#p B3LYP/6-311+G** #p TD=(singlets,nstates=30)IOp(6/8=3) IOp(9/4
 0=4)\\Scan Step 86, Bond Length 0.9299999999999999\\0,1\C,0,0.,0.,-0.5
 2736\H,0,0.,0.93726,-1.11871\H,0,0.,-0.93726,-1.11871\O,0,0.,0.,0.4026
 4\\Version=ES64L-G16RevA.03\State=1-A1\HF=-114.3183974\RMSD=4.303e-09\
 PG=C02V [C2(C1O1),SGV(H2)]\\@


 THE ENLIGHTENED ONE, BECAUSE HE SAW MANKIND DROWNING  
 IN THE GREAT SEA OF BIRTH, DEATH, AND SORROW, LONGED TO SAVE 
 THEM, FOR THIS HE WAS MOVED TO PITY.                         
 BECAUSE HE SAW MEN OF THE WORLD STRAYING IN FALSE PATHS, AND 
 NONE TO GUIDE THEM, FOR THIS HE WAS MOVED TO PITY.           
                     ..................                       
 BECAUSE HE SAW THE MEN OF THE WORLD PLOUGHING THEIR FIELDS,  
 SOWING THE SEED, TRAFFICKING, HUCKSTERING, BUYING, SELLING,  
 AND AT THE END WINNOWING NOTHING BUT BITTERNESS,             
 FOR THIS HE WAS MOVED TO PITY......                   
                   BUDAH'S PITY - UPSAKA SILA SUTRA           
 Job cpu time:       0 days  0 hours  0 minutes 26.7 seconds.
 Elapsed time:       0 days  0 hours  0 minutes 27.4 seconds.
 File lengths (MBytes):  RWF=     79 Int=      0 D2E=      0 Chk=     32 Scr=      1
 Normal termination of Gaussian 16 at Fri Sep 17 10:52:33 2021.
