 Entering Gaussian System, Link 0=g16
 Initial command:
 /software/gaussian/g16-c01/sse4/g16/l1.exe "/local_scratch/24657455/Gau-11964.inp" -scrdir="/local_scratch/24657455/"
 Entering Link 1 = /software/gaussian/g16-c01/sse4/g16/l1.exe PID=     11965.
  
 Copyright (c) 1988-2019, Gaussian, Inc.  All Rights Reserved.
  
 This is part of the Gaussian(R) 16 program.  It is based on
 the Gaussian(R) 09 system (copyright 2009, Gaussian, Inc.),
 the Gaussian(R) 03 system (copyright 2003, Gaussian, Inc.),
 the Gaussian(R) 98 system (copyright 1998, Gaussian, Inc.),
 the Gaussian(R) 94 system (copyright 1995, Gaussian, Inc.),
 the Gaussian 92(TM) system (copyright 1992, Gaussian, Inc.),
 the Gaussian 90(TM) system (copyright 1990, Gaussian, Inc.),
 the Gaussian 88(TM) system (copyright 1988, Gaussian, Inc.),
 the Gaussian 86(TM) system (copyright 1986, Carnegie Mellon
 University), and the Gaussian 82(TM) system (copyright 1983,
 Carnegie Mellon University). Gaussian is a federally registered
 trademark of Gaussian, Inc.
  
 This software contains proprietary and confidential information,
 including trade secrets, belonging to Gaussian, Inc.
  
 This software is provided under written license and may be
 used, copied, transmitted, or stored only in accord with that
 written license.
  
 The following legend is applicable only to US Government
 contracts under FAR:
  
                    RESTRICTED RIGHTS LEGEND
  
 Use, reproduction and disclosure by the US Government is
 subject to restrictions as set forth in subparagraphs (a)
 and (c) of the Commercial Computer Software - Restricted
 Rights clause in FAR 52.227-19.
  
 Gaussian, Inc.
 340 Quinnipiac St., Bldg. 40, Wallingford CT 06492
  
  
 ---------------------------------------------------------------
 Warning -- This program may not be used in any manner that
 competes with the business of Gaussian, Inc. or will provide
 assistance to any competitor of Gaussian, Inc.  The licensee
 of this program is prohibited from giving any competitor of
 Gaussian, Inc. access to this program.  By using this program,
 the user acknowledges that Gaussian, Inc. is engaged in the
 business of creating and licensing software in the field of
 computational chemistry and represents and warrants to the
 licensee that it is not a competitor of Gaussian, Inc. and that
 it will not use this program in any manner prohibited above.
 ---------------------------------------------------------------
  

 Cite this work as:
 Gaussian 16, Revision C.01,
 M. J. Frisch, G. W. Trucks, H. B. Schlegel, G. E. Scuseria, 
 M. A. Robb, J. R. Cheeseman, G. Scalmani, V. Barone, 
 G. A. Petersson, H. Nakatsuji, X. Li, M. Caricato, A. V. Marenich, 
 J. Bloino, B. G. Janesko, R. Gomperts, B. Mennucci, H. P. Hratchian, 
 J. V. Ortiz, A. F. Izmaylov, J. L. Sonnenberg, D. Williams-Young, 
 F. Ding, F. Lipparini, F. Egidi, J. Goings, B. Peng, A. Petrone, 
 T. Henderson, D. Ranasinghe, V. G. Zakrzewski, J. Gao, N. Rega, 
 G. Zheng, W. Liang, M. Hada, M. Ehara, K. Toyota, R. Fukuda, 
 J. Hasegawa, M. Ishida, T. Nakajima, Y. Honda, O. Kitao, H. Nakai, 
 T. Vreven, K. Throssell, J. A. Montgomery, Jr., J. E. Peralta, 
 F. Ogliaro, M. J. Bearpark, J. J. Heyd, E. N. Brothers, K. N. Kudin, 
 V. N. Staroverov, T. A. Keith, R. Kobayashi, J. Normand, 
 K. Raghavachari, A. P. Rendell, J. C. Burant, S. S. Iyengar, 
 J. Tomasi, M. Cossi, J. M. Millam, M. Klene, C. Adamo, R. Cammi, 
 J. W. Ochterski, R. L. Martin, K. Morokuma, O. Farkas, 
 J. B. Foresman, and D. J. Fox, Gaussian, Inc., Wallingford CT, 2019.
 
 ******************************************
 Gaussian 16:  ES64L-G16RevC.01  3-Jul-2019
                 1-May-2024 
 ******************************************
 %chk=geometry.chk
 %mem=9GB
 %nprocshared=12
 Will use up to   12 processors via shared memory.
 ----------------------------------------
 #P wB97XD/6-311+G* NoSymm #P Field=X+136
 ----------------------------------------
 1/38=1,172=1/1;
 2/12=2,15=1,17=6,18=5,40=1/2;
 3/5=4,6=6,7=11,11=2,14=1,15=136,25=1,30=1,74=-58/1,2,3;
 4//1;
 5/5=2,38=5/2;
 6/7=2,8=2,9=2,10=2,28=1/1;
 99/5=1,9=1/99;
 Leave Link    1 at Wed May  1 14:27:47 2024, MaxMem=  1207959552 cpu:               0.9 elap:               1.0
 (Enter /software/gaussian/g16-c01/sse4/g16/l101.exe)
 -------
 TitleMe
 -------
 Symbolic Z-matrix:
 Charge =  1 Multiplicity = 1
 C                     0.0295    1.3397    0.0682 
 C                     1.4348    1.2867    0.0064 
 C                     2.1118    0.0511   -0.0054 
 C                     1.4451   -1.1372    0.0312 
 C                    -0.6879    0.1682    0.11 
 H                    -0.4713    2.2984    0.0781 
 H                     2.0273    2.1965   -0.0322 
 H                     1.9897   -2.0764    0.0232 
 H                    -1.7716    0.1804    0.1582 
 N                     3.5864    0.051    -0.0675 
 O                     4.1471   -1.0597   -0.0881 
 O                     4.145     1.1639   -0.0901 
 C                    -0.0236   -1.1458    0.0835 
 H                    -0.4367   -1.8725    0.7889 
 Br                   -0.5359   -1.8697   -1.7408 
 
 ITRead=  0  0  0  0  0  0  0  0  0  0  0  0  0  0  0
 MicOpt= -1 -1 -1 -1 -1 -1 -1 -1 -1 -1 -1 -1 -1 -1 -1
 NAtoms=     15 NQM=       15 NQMF=       0 NMMI=      0 NMMIF=      0
                NMic=       0 NMicF=      0.
                    Isotopes and Nuclear Properties:
 (Nuclear quadrupole moments (NQMom) in fm**2, nuclear magnetic moments (NMagM)
  in nuclear magnetons)

  Atom         1           2           3           4           5           6           7           8           9          10
 IAtWgt=          12          12          12          12          12           1           1           1           1          14
 AtmWgt=  12.0000000  12.0000000  12.0000000  12.0000000  12.0000000   1.0078250   1.0078250   1.0078250   1.0078250  14.0030740
 NucSpn=           0           0           0           0           0           1           1           1           1           2
 AtZEff=  -0.0000000  -0.0000000  -0.0000000  -0.0000000  -0.0000000  -0.0000000  -0.0000000  -0.0000000  -0.0000000  -0.0000000
 NQMom=    0.0000000   0.0000000   0.0000000   0.0000000   0.0000000   0.0000000   0.0000000   0.0000000   0.0000000   2.0440000
 NMagM=    0.0000000   0.0000000   0.0000000   0.0000000   0.0000000   2.7928460   2.7928460   2.7928460   2.7928460   0.4037610
 AtZNuc=   6.0000000   6.0000000   6.0000000   6.0000000   6.0000000   1.0000000   1.0000000   1.0000000   1.0000000   7.0000000

  Atom        11          12          13          14          15
 IAtWgt=          16          16          12           1          79
 AtmWgt=  15.9949146  15.9949146  12.0000000   1.0078250  78.9183361
 NucSpn=           0           0           0           1           3
 AtZEff=  -0.0000000  -0.0000000  -0.0000000  -0.0000000  -0.0000000
 NQMom=    0.0000000   0.0000000   0.0000000   0.0000000  31.3000000
 NMagM=    0.0000000   0.0000000   0.0000000   2.7928460   2.1063990
 AtZNuc=   8.0000000   8.0000000   6.0000000   1.0000000  35.0000000
 Leave Link  101 at Wed May  1 14:27:48 2024, MaxMem=  1207959552 cpu:               1.3 elap:               1.3
 (Enter /software/gaussian/g16-c01/sse4/g16/l202.exe)
                          Input orientation:                          
 ---------------------------------------------------------------------
 Center     Atomic      Atomic             Coordinates (Angstroms)
 Number     Number       Type             X           Y           Z
 ---------------------------------------------------------------------
      1          6           0        0.029500    1.339700    0.068200
      2          6           0        1.434800    1.286700    0.006400
      3          6           0        2.111800    0.051100   -0.005400
      4          6           0        1.445100   -1.137200    0.031200
      5          6           0       -0.687900    0.168200    0.110000
      6          1           0       -0.471300    2.298400    0.078100
      7          1           0        2.027300    2.196500   -0.032200
      8          1           0        1.989700   -2.076400    0.023200
      9          1           0       -1.771600    0.180400    0.158200
     10          7           0        3.586400    0.051000   -0.067500
     11          8           0        4.147100   -1.059700   -0.088100
     12          8           0        4.145000    1.163900   -0.090100
     13          6           0       -0.023600   -1.145800    0.083500
     14          1           0       -0.436700   -1.872500    0.788900
     15         35           0       -0.535900   -1.869700   -1.740800
 ---------------------------------------------------------------------
                    Distance matrix (angstroms):
                    1          2          3          4          5
     1  C    0.000000
     2  C    1.407656   0.000000
     3  C    2.449874   1.408963   0.000000
     4  C    2.853126   2.424049   1.363043   0.000000
     5  C    1.374344   2.401589   2.804523   2.501993   0.000000
     6  H    1.081667   2.159142   3.424870   3.934226   2.141421
     7  H    2.176095   1.086408   2.147231   3.384750   3.392128
     8  H    3.938800   3.408612   2.131193   1.085702   3.495040
     9  H    2.143837   3.395283   3.888995   3.478413   1.084840
    10  N    3.785591   2.482297   1.475907   2.450862   4.279589
    11  O    4.768247   3.587631   2.320164   2.705743   4.992415
    12  O    4.122294   2.714696   2.319353   3.549540   4.938459
    13  C    2.486114   2.837240   2.449573   1.469656   1.472614
    14  H    3.324903   3.754379   3.290289   2.157764   2.165286
    15  Br   3.727252   4.110867   3.702891   2.756973   2.757100
                    6          7          8          9         10
     6  H    0.000000
     7  H    2.503108   0.000000
     8  H    5.019802   4.273425   0.000000
     9  H    2.486588   4.304945   4.388479   0.000000
    10  N    4.640790   2.652397   2.661486   5.364313   0.000000
    11  O    5.712624   3.885809   2.387560   6.052233   1.244373
    12  O    4.756638   2.356750   3.893289   6.002923   1.245428
    13  C    3.473180   3.923079   2.218790   2.195425   3.806210
    14  H    4.231175   4.827242   2.552506   2.528663   4.540772
    15  Br   4.548146   5.101303   3.087568   3.055498   4.845862
                   11         12         13         14         15
    11  O    0.000000
    12  O    2.223602   0.000000
    13  C    4.175117   4.768865   0.000000
    14  H    4.737193   5.566358   1.093770   0.000000
    15  Br   5.031700   5.817075   2.028436   2.531646   0.000000
 Symmetry turned off by external request.
 Stoichiometry    C6H5BrNO2(1+)
 Framework group  C1[X(C6H5BrNO2)]
 Deg. of freedom    39
 Full point group                 C1      NOp   1
 Rotational constants (GHZ):           1.8252210           0.5518633           0.4576002
 Leave Link  202 at Wed May  1 14:27:49 2024, MaxMem=  1207959552 cpu:               1.2 elap:               1.2
 (Enter /software/gaussian/g16-c01/sse4/g16/l301.exe)
 Standard basis: 6-311+G(d) (5D, 7F)
 Ernie: Thresh=  0.10000D-02 Tol=  0.10000D-05 Strict=F.
 The following finite field(s) will be applied:
 An electric field of              0.0136  0.0000  0.0000
   261 basis functions,   443 primitive gaussians,   273 cartesian basis functions
    49 alpha electrons       49 beta electrons
       nuclear repulsion energy       739.2122215416 Hartrees.
 IExCor= 4639 DFT=T Ex+Corr=wB97XD ExCW=0 ScaHFX=  1.000000
 ScaDFX=  1.000000  1.000000  1.000000  1.000000 ScalE2=  1.000000  1.000000
 IRadAn=      5 IRanWt=     -1 IRanGd=            0 ICorTp=0 IEmpDi=121
 HFx  wShort=  0.000000 wLong=  0.200000 cFull=  0.222036 cShort=  0.000000 cLong=  0.777964
 DFx  wShort=  0.000000 wLong=  0.200000 cFull=  0.000000 cShort=  0.000000 cLong=  1.000000
 NAtoms=   15 NActive=   15 NUniq=   15 SFac= 1.00D+00 NAtFMM=   60 NAOKFM=F Big=F
 Integral buffers will be    131072 words long.
 Raffenetti 2 integral format.
 Two-electron integral symmetry is turned off.
 R6Disp:  Grimme-D2 Dispersion energy=       -0.0077368520 Hartrees.
 Nuclear repulsion after empirical dispersion term =      739.2044846896 Hartrees.
 Leave Link  301 at Wed May  1 14:27:50 2024, MaxMem=  1207959552 cpu:               1.0 elap:               1.0
 (Enter /software/gaussian/g16-c01/sse4/g16/l302.exe)
 NPDir=0 NMtPBC=     1 NCelOv=     1 NCel=       1 NClECP=     1 NCelD=      1
         NCelK=      1 NCelE2=     1 NClLst=     1 CellRange=     0.0.
 One-electron integrals computed using PRISM.
 NBasis=   261 RedAO= T EigKep=  2.35D-06  NBF=   261
 NBsUse=   261 1.00D-06 EigRej= -1.00D+00 NBFU=   261
 Precomputing XC quadrature grid using
 IXCGrd= 4 IRadAn=           5 IRanWt=          -1 IRanGd=           0 AccXCQ= 0.00D+00.
 Generated NRdTot=       0 NPtTot=           0 NUsed=           0 NTot=          32
 NSgBfM=   273   273   273   273   273 MxSgAt=    15 MxSgA2=    15.
 Leave Link  302 at Wed May  1 14:28:12 2024, MaxMem=  1207959552 cpu:              21.1 elap:              21.1
 (Enter /software/gaussian/g16-c01/sse4/g16/l303.exe)
 DipDrv:  MaxL=1.
 The nuclear repulsion energy is now       741.7714461761 hartrees.
 Leave Link  303 at Wed May  1 14:28:15 2024, MaxMem=  1207959552 cpu:               3.3 elap:               3.3
 (Enter /software/gaussian/g16-c01/sse4/g16/l401.exe)
 ExpMin= 3.50D-02 ExpMax= 4.40D+05 ExpMxC= 1.51D+04 IAcc=3 IRadAn=         5 AccDes= 0.00D+00
 Harris functional with IExCor= 4639 and IRadAn=       5 diagonalized for initial guess.
 HarFok:  IExCor= 4639 AccDes= 0.00D+00 IRadAn=         5 IDoV= 1 UseB2=F ITyADJ=14
 ICtDFT=  3500011 ScaDFX=  1.000000  1.000000  1.000000  1.000000
 FoFCou: FMM=F IPFlag=           0 FMFlag=      100000 FMFlg1=           0
         NFxFlg=           0 DoJE=T BraDBF=F KetDBF=T FulRan=T
         wScrn=  0.000000 ICntrl=       500 IOpCl=  0 I1Cent=   200000004 NGrid=           0
         NMat0=    1 NMatS0=      1 NMatT0=    0 NMatD0=    1 NMtDS0=    0 NMtDT0=    0
 Symmetry not used in FoFCou.
 Harris En= -2970.62163978422    
 JPrj=0 DoOrth=F DoCkMO=F.
 Leave Link  401 at Wed May  1 14:28:45 2024, MaxMem=  1207959552 cpu:              29.5 elap:              29.5
 (Enter /software/gaussian/g16-c01/sse4/g16/l502.exe)
 Two-electron integral symmetry not used.
 Closed shell SCF:
 Using DIIS extrapolation, IDIIS=  1040.
 NGot=  1207959552 LenX=  1207804877 LenY=  1207729907
 Requested convergence on RMS density matrix=1.00D-08 within 128 cycles.
 Requested convergence on MAX density matrix=1.00D-06.
 Requested convergence on             energy=1.00D-06.
 No special actions if energy rises.
 Fock matrices will be formed incrementally for  20 cycles.

 Cycle   1  Pass 1  IDiag  1:
 FoFJK:  IHMeth= 1 ICntrl=       0 DoSepK=T KAlg= 0 I1Cent=           0 FoldK=F
 IRaf=         1 NMat=       1 IRICut=       1 DoRegI=T DoRafI=F ISym2E= 0 IDoP0=0 IntGTp=1.
 FoFCou: FMM=F IPFlag=           0 FMFlag=      100000 FMFlg1=           0
         NFxFlg=           0 DoJE=T BraDBF=F KetDBF=F FulRan=T
         wScrn=  0.000000 ICntrl=       500 IOpCl=  0 I1Cent=           0 NGrid=           0
         NMat0=    1 NMatS0=      1 NMatT0=    0 NMatD0=    1 NMtDS0=    0 NMtDT0=    0
 Symmetry not used in FoFCou.
 E= -3009.72998844054    
 DIIS: error= 3.20D-01 at cycle   1 NSaved=   1.
 NSaved= 1 IEnMin= 1 EnMin= -3009.72998844054     IErMin= 1 ErrMin= 3.20D-01
 ErrMax= 3.20D-01  0.00D+00 EMaxC= 1.00D-01 BMatC= 1.20D+01 BMatP= 1.20D+01
 IDIUse=3 WtCom= 0.00D+00 WtEn= 1.00D+00
 Coeff-Com:  0.100D+01
 Coeff-En:   0.100D+01
 Coeff:      0.100D+01
 Gap=     0.296 Goal=   None    Shift=    0.000
 GapD=    0.296 DampG=1.000 DampE=0.250 DampFc=0.2500 IDamp=-1.
 Damping current iteration by 2.50D-01
 RMSDP=5.77D-02 MaxDP=5.98D+00              OVMax= 2.63D-01

 Cycle   2  Pass 1  IDiag  1:
 RMSU=  4.42D-03    CP:  8.71D-01
 E= -3010.01648721100     Delta-E=       -0.286498770469 Rises=F Damp=T
 DIIS: error= 2.25D-01 at cycle   2 NSaved=   2.
 NSaved= 2 IEnMin= 2 EnMin= -3010.01648721100     IErMin= 2 ErrMin= 2.25D-01
 ErrMax= 2.25D-01  0.00D+00 EMaxC= 1.00D-01 BMatC= 5.45D+00 BMatP= 1.20D+01
 IDIUse=3 WtCom= 0.00D+00 WtEn= 1.00D+00
 Coeff-Com: -0.183D+01 0.283D+01
 Coeff-En:   0.000D+00 0.100D+01
 Coeff:      0.000D+00 0.100D+01
 Gap=     0.282 Goal=   None    Shift=    0.000
 RMSDP=4.44D-02 MaxDP=4.48D+00 DE=-2.86D-01 OVMax= 7.69D-02

 Cycle   3  Pass 1  IDiag  1:
 RMSU=  4.39D-03    CP:  4.69D-01  3.00D+00
 E= -3010.39700215851     Delta-E=       -0.380514947502 Rises=F Damp=F
 DIIS: error= 6.61D-02 at cycle   3 NSaved=   3.
 NSaved= 3 IEnMin= 3 EnMin= -3010.39700215851     IErMin= 3 ErrMin= 6.61D-02
 ErrMax= 6.61D-02  0.00D+00 EMaxC= 1.00D-01 BMatC= 7.47D-01 BMatP= 5.45D+00
 IDIUse=3 WtCom= 3.39D-01 WtEn= 6.61D-01
 Coeff-Com:  0.276D+01-0.362D+01 0.187D+01
 Coeff-En:   0.315D-01 0.000D+00 0.969D+00
 Coeff:      0.954D+00-0.123D+01 0.127D+01
 Gap=     0.262 Goal=   None    Shift=    0.000
 RMSDP=8.08D-03 MaxDP=4.52D-01 DE=-3.81D-01 OVMax= 7.94D-02

 Cycle   4  Pass 1  IDiag  1:
 RMSU=  5.66D-03    CP:  4.86D-01  2.52D+00  1.92D+00
 E= -3010.50274742044     Delta-E=       -0.105745261933 Rises=F Damp=F
 DIIS: error= 3.84D-02 at cycle   4 NSaved=   4.
 NSaved= 4 IEnMin= 4 EnMin= -3010.50274742044     IErMin= 4 ErrMin= 3.84D-02
 ErrMax= 3.84D-02  0.00D+00 EMaxC= 1.00D-01 BMatC= 2.34D-01 BMatP= 7.47D-01
 IDIUse=3 WtCom= 6.16D-01 WtEn= 3.84D-01
 Coeff-Com: -0.268D+00 0.370D+00 0.226D+00 0.672D+00
 Coeff-En:   0.000D+00 0.000D+00 0.202D+00 0.798D+00
 Coeff:     -0.165D+00 0.228D+00 0.217D+00 0.721D+00
 Gap=     0.260 Goal=   None    Shift=    0.000
 RMSDP=3.73D-03 MaxDP=3.36D-01 DE=-1.06D-01 OVMax= 3.19D-02

 Cycle   5  Pass 1  IDiag  1:
 RMSU=  1.46D-03    CP:  4.58D-01  2.88D+00  1.79D+00  9.12D-01
 E= -3010.54919422583     Delta-E=       -0.046446805390 Rises=F Damp=F
 DIIS: error= 6.70D-03 at cycle   5 NSaved=   5.
 NSaved= 5 IEnMin= 5 EnMin= -3010.54919422583     IErMin= 5 ErrMin= 6.70D-03
 ErrMax= 6.70D-03  0.00D+00 EMaxC= 1.00D-01 BMatC= 6.97D-03 BMatP= 2.34D-01
 IDIUse=3 WtCom= 9.33D-01 WtEn= 6.70D-02
 Coeff-Com: -0.140D+00 0.189D+00 0.261D-01 0.302D+00 0.622D+00
 Coeff-En:   0.000D+00 0.000D+00 0.000D+00 0.000D+00 0.100D+01
 Coeff:     -0.131D+00 0.177D+00 0.244D-01 0.282D+00 0.648D+00
 Gap=     0.249 Goal=   None    Shift=    0.000
 RMSDP=6.78D-04 MaxDP=5.22D-02 DE=-4.64D-02 OVMax= 1.08D-02

 Cycle   6  Pass 1  IDiag  1:
 RMSU=  4.84D-04    CP:  4.58D-01  2.83D+00  1.81D+00  9.13D-01  7.26D-01
 E= -3010.55062954572     Delta-E=       -0.001435319891 Rises=F Damp=F
 DIIS: error= 5.92D-04 at cycle   6 NSaved=   6.
 NSaved= 6 IEnMin= 6 EnMin= -3010.55062954572     IErMin= 6 ErrMin= 5.92D-04
 ErrMax= 5.92D-04  0.00D+00 EMaxC= 1.00D-01 BMatC= 7.71D-05 BMatP= 6.97D-03
 IDIUse=3 WtCom= 9.94D-01 WtEn= 5.92D-03
 Coeff-Com: -0.699D-01 0.936D-01-0.119D-01 0.103D+00 0.301D+00 0.584D+00
 Coeff-En:   0.000D+00 0.000D+00 0.000D+00 0.000D+00 0.000D+00 0.100D+01
 Coeff:     -0.695D-01 0.931D-01-0.118D-01 0.103D+00 0.299D+00 0.587D+00
 Gap=     0.250 Goal=   None    Shift=    0.000
 RMSDP=2.58D-04 MaxDP=1.52D-02 DE=-1.44D-03 OVMax= 3.30D-03

 Cycle   7  Pass 1  IDiag  1:
 RMSU=  1.00D-04    CP:  4.57D-01  2.83D+00  1.83D+00  9.27D-01  8.35D-01
                    CP:  7.74D-01
 E= -3010.55069454711     Delta-E=       -0.000065001391 Rises=F Damp=F
 DIIS: error= 4.35D-04 at cycle   7 NSaved=   7.
 NSaved= 7 IEnMin= 7 EnMin= -3010.55069454711     IErMin= 7 ErrMin= 4.35D-04
 ErrMax= 4.35D-04  0.00D+00 EMaxC= 1.00D-01 BMatC= 1.82D-05 BMatP= 7.71D-05
 IDIUse=3 WtCom= 9.96D-01 WtEn= 4.35D-03
 Coeff-Com: -0.241D-01 0.319D-01-0.121D-01 0.197D-01 0.843D-01 0.345D+00
 Coeff-Com:  0.555D+00
 Coeff-En:   0.000D+00 0.000D+00 0.000D+00 0.000D+00 0.000D+00 0.000D+00
 Coeff-En:   0.100D+01
 Coeff:     -0.239D-01 0.318D-01-0.121D-01 0.196D-01 0.839D-01 0.344D+00
 Coeff:      0.557D+00
 Gap=     0.250 Goal=   None    Shift=    0.000
 RMSDP=7.54D-05 MaxDP=3.64D-03 DE=-6.50D-05 OVMax= 1.67D-03

 Cycle   8  Pass 1  IDiag  1:
 RMSU=  4.95D-05    CP:  4.57D-01  2.83D+00  1.84D+00  9.33D-01  8.52D-01
                    CP:  7.97D-01  1.14D+00
 E= -3010.55070965256     Delta-E=       -0.000015105446 Rises=F Damp=F
 DIIS: error= 1.42D-04 at cycle   8 NSaved=   8.
 NSaved= 8 IEnMin= 8 EnMin= -3010.55070965256     IErMin= 8 ErrMin= 1.42D-04
 ErrMax= 1.42D-04  0.00D+00 EMaxC= 1.00D-01 BMatC= 3.16D-06 BMatP= 1.82D-05
 IDIUse=3 WtCom= 9.99D-01 WtEn= 1.42D-03
 Coeff-Com:  0.970D-02-0.132D-01-0.267D-02-0.207D-01-0.467D-01 0.632D-02
 Coeff-Com:  0.296D+00 0.771D+00
 Coeff-En:   0.000D+00 0.000D+00 0.000D+00 0.000D+00 0.000D+00 0.000D+00
 Coeff-En:   0.000D+00 0.100D+01
 Coeff:      0.968D-02-0.132D-01-0.266D-02-0.207D-01-0.466D-01 0.631D-02
 Coeff:      0.296D+00 0.771D+00
 Gap=     0.250 Goal=   None    Shift=    0.000
 RMSDP=5.28D-05 MaxDP=2.76D-03 DE=-1.51D-05 OVMax= 9.80D-04

 Cycle   9  Pass 1  IDiag  1:
 RMSU=  2.05D-05    CP:  4.57D-01  2.83D+00  1.84D+00  9.36D-01  8.56D-01
                    CP:  8.51D-01  1.38D+00  1.11D+00
 E= -3010.55071438632     Delta-E=       -0.000004733760 Rises=F Damp=F
 DIIS: error= 2.86D-05 at cycle   9 NSaved=   9.
 NSaved= 9 IEnMin= 9 EnMin= -3010.55071438632     IErMin= 9 ErrMin= 2.86D-05
 ErrMax= 2.86D-05  0.00D+00 EMaxC= 1.00D-01 BMatC= 3.14D-07 BMatP= 3.16D-06
 IDIUse=1 WtCom= 1.00D+00 WtEn= 0.00D+00
 Coeff-Com:  0.795D-02-0.107D-01 0.891D-03-0.113D-01-0.265D-01-0.413D-01
 Coeff-Com:  0.168D-01 0.262D+00 0.802D+00
 Coeff:      0.795D-02-0.107D-01 0.891D-03-0.113D-01-0.265D-01-0.413D-01
 Coeff:      0.168D-01 0.262D+00 0.802D+00
 Gap=     0.250 Goal=   None    Shift=    0.000
 RMSDP=1.92D-05 MaxDP=8.66D-04 DE=-4.73D-06 OVMax= 5.41D-04

 Cycle  10  Pass 1  IDiag  1:
 RMSU=  9.02D-06    CP:  4.57D-01  2.83D+00  1.84D+00  9.37D-01  8.60D-01
                    CP:  8.63D-01  1.47D+00  1.23D+00  1.17D+00
 E= -3010.55071510889     Delta-E=       -0.000000722574 Rises=F Damp=F
 DIIS: error= 2.11D-05 at cycle  10 NSaved=  10.
 NSaved=10 IEnMin=10 EnMin= -3010.55071510889     IErMin=10 ErrMin= 2.11D-05
 ErrMax= 2.11D-05  0.00D+00 EMaxC= 1.00D-01 BMatC= 7.87D-08 BMatP= 3.14D-07
 IDIUse=1 WtCom= 1.00D+00 WtEn= 0.00D+00
 Coeff-Com:  0.911D-03-0.120D-02 0.437D-03-0.755D-03 0.635D-03-0.747D-02
 Coeff-Com: -0.397D-01-0.460D-01 0.266D+00 0.827D+00
 Coeff:      0.911D-03-0.120D-02 0.437D-03-0.755D-03 0.635D-03-0.747D-02
 Coeff:     -0.397D-01-0.460D-01 0.266D+00 0.827D+00
 Gap=     0.250 Goal=   None    Shift=    0.000
 RMSDP=1.15D-05 MaxDP=7.52D-04 DE=-7.23D-07 OVMax= 2.54D-04

 Cycle  11  Pass 1  IDiag  1:
 RMSU=  4.37D-06    CP:  4.58D-01  2.83D+00  1.84D+00  9.36D-01  8.59D-01
                    CP:  8.74D-01  1.47D+00  1.24D+00  1.36D+00  1.20D+00
 E= -3010.55071526827     Delta-E=       -0.000000159376 Rises=F Damp=F
 DIIS: error= 6.45D-06 at cycle  11 NSaved=  11.
 NSaved=11 IEnMin=11 EnMin= -3010.55071526827     IErMin=11 ErrMin= 6.45D-06
 ErrMax= 6.45D-06  0.00D+00 EMaxC= 1.00D-01 BMatC= 6.32D-09 BMatP= 7.87D-08
 IDIUse=1 WtCom= 1.00D+00 WtEn= 0.00D+00
 Coeff-Com: -0.394D-03 0.528D-03 0.418D-05 0.995D-03 0.355D-02 0.834D-02
 Coeff-Com:  0.159D-02-0.349D-01-0.118D+00-0.353D-01 0.117D+01
 Coeff:     -0.394D-03 0.528D-03 0.418D-05 0.995D-03 0.355D-02 0.834D-02
 Coeff:      0.159D-02-0.349D-01-0.118D+00-0.353D-01 0.117D+01
 Gap=     0.250 Goal=   None    Shift=    0.000
 RMSDP=7.45D-06 MaxDP=4.22D-04 DE=-1.59D-07 OVMax= 1.91D-04

 Cycle  12  Pass 1  IDiag  1:
 RMSU=  1.48D-06    CP:  4.58D-01  2.83D+00  1.84D+00  9.36D-01  8.58D-01
                    CP:  8.81D-01  1.46D+00  1.24D+00  1.46D+00  1.52D+00
                    CP:  1.41D+00
 E= -3010.55071531363     Delta-E=       -0.000000045363 Rises=F Damp=F
 DIIS: error= 2.05D-06 at cycle  12 NSaved=  12.
 NSaved=12 IEnMin=12 EnMin= -3010.55071531363     IErMin=12 ErrMin= 2.05D-06
 ErrMax= 2.05D-06  0.00D+00 EMaxC= 1.00D-01 BMatC= 2.90D-09 BMatP= 6.32D-09
 IDIUse=1 WtCom= 1.00D+00 WtEn= 0.00D+00
 Coeff-Com: -0.315D-03 0.418D-03-0.512D-04 0.582D-03 0.123D-02 0.487D-02
 Coeff-Com:  0.731D-02-0.104D-01-0.108D+00-0.197D+00 0.580D+00 0.721D+00
 Coeff:     -0.315D-03 0.418D-03-0.512D-04 0.582D-03 0.123D-02 0.487D-02
 Coeff:      0.731D-02-0.104D-01-0.108D+00-0.197D+00 0.580D+00 0.721D+00
 Gap=     0.250 Goal=   None    Shift=    0.000
 RMSDP=3.46D-06 MaxDP=1.72D-04 DE=-4.54D-08 OVMax= 9.16D-05

 Cycle  13  Pass 1  IDiag  1:
 RMSU=  7.68D-07    CP:  4.58D-01  2.83D+00  1.84D+00  9.36D-01  8.58D-01
                    CP:  8.84D-01  1.46D+00  1.24D+00  1.50D+00  1.64D+00
                    CP:  1.71D+00  1.23D+00
 E= -3010.55071532420     Delta-E=       -0.000000010574 Rises=F Damp=F
 DIIS: error= 8.07D-07 at cycle  13 NSaved=  13.
 NSaved=13 IEnMin=13 EnMin= -3010.55071532420     IErMin=13 ErrMin= 8.07D-07
 ErrMax= 8.07D-07  0.00D+00 EMaxC= 1.00D-01 BMatC= 3.36D-10 BMatP= 2.90D-09
 IDIUse=1 WtCom= 1.00D+00 WtEn= 0.00D+00
 Coeff-Com:  0.144D-04-0.189D-04-0.125D-04-0.176D-03-0.982D-03-0.208D-02
 Coeff-Com: -0.434D-03 0.827D-02 0.320D-01-0.457D-02-0.211D+00-0.178D-01
 Coeff-Com:  0.120D+01
 Coeff:      0.144D-04-0.189D-04-0.125D-04-0.176D-03-0.982D-03-0.208D-02
 Coeff:     -0.434D-03 0.827D-02 0.320D-01-0.457D-02-0.211D+00-0.178D-01
 Coeff:      0.120D+01
 Gap=     0.250 Goal=   None    Shift=    0.000
 RMSDP=9.15D-07 MaxDP=2.94D-05 DE=-1.06D-08 OVMax= 4.90D-05

 Cycle  14  Pass 1  IDiag  1:
 RMSU=  3.92D-07    CP:  4.58D-01  2.83D+00  1.84D+00  9.36D-01  8.58D-01
                    CP:  8.85D-01  1.46D+00  1.24D+00  1.51D+00  1.67D+00
                    CP:  1.81D+00  1.46D+00  1.42D+00
 E= -3010.55071532663     Delta-E=       -0.000000002422 Rises=F Damp=F
 DIIS: error= 5.47D-07 at cycle  14 NSaved=  14.
 NSaved=14 IEnMin=14 EnMin= -3010.55071532663     IErMin=14 ErrMin= 5.47D-07
 ErrMax= 5.47D-07  0.00D+00 EMaxC= 1.00D-01 BMatC= 6.79D-11 BMatP= 3.36D-10
 IDIUse=1 WtCom= 1.00D+00 WtEn= 0.00D+00
 Coeff-Com:  0.316D-04-0.417D-04-0.132D-05-0.111D-03-0.377D-03-0.114D-02
 Coeff-Com: -0.115D-02 0.365D-02 0.246D-01 0.222D-01-0.146D+00-0.128D+00
 Coeff-Com:  0.374D+00 0.853D+00
 Coeff:      0.316D-04-0.417D-04-0.132D-05-0.111D-03-0.377D-03-0.114D-02
 Coeff:     -0.115D-02 0.365D-02 0.246D-01 0.222D-01-0.146D+00-0.128D+00
 Coeff:      0.374D+00 0.853D+00
 Gap=     0.250 Goal=   None    Shift=    0.000
 RMSDP=5.15D-07 MaxDP=2.79D-05 DE=-2.42D-09 OVMax= 2.09D-05

 Cycle  15  Pass 1  IDiag  1:
 RMSU=  1.40D-07    CP:  4.58D-01  2.83D+00  1.84D+00  9.36D-01  8.57D-01
                    CP:  8.85D-01  1.46D+00  1.24D+00  1.51D+00  1.68D+00
                    CP:  1.85D+00  1.53D+00  1.64D+00  1.23D+00
 E= -3010.55071532703     Delta-E=       -0.000000000406 Rises=F Damp=F
 DIIS: error= 1.96D-07 at cycle  15 NSaved=  15.
 NSaved=15 IEnMin=15 EnMin= -3010.55071532703     IErMin=15 ErrMin= 1.96D-07
 ErrMax= 1.96D-07  0.00D+00 EMaxC= 1.00D-01 BMatC= 1.95D-11 BMatP= 6.79D-11
 IDIUse=1 WtCom= 1.00D+00 WtEn= 0.00D+00
 Coeff-Com:  0.129D-04-0.173D-04 0.278D-05 0.539D-05 0.153D-03 0.216D-03
 Coeff-Com: -0.248D-03-0.110D-02-0.859D-04 0.775D-02 0.675D-02-0.444D-01
 Coeff-Com: -0.185D+00 0.349D+00 0.867D+00
 Coeff:      0.129D-04-0.173D-04 0.278D-05 0.539D-05 0.153D-03 0.216D-03
 Coeff:     -0.248D-03-0.110D-02-0.859D-04 0.775D-02 0.675D-02-0.444D-01
 Coeff:     -0.185D+00 0.349D+00 0.867D+00
 Gap=     0.250 Goal=   None    Shift=    0.000
 RMSDP=2.51D-07 MaxDP=9.05D-06 DE=-4.06D-10 OVMax= 1.05D-05

 Cycle  16  Pass 1  IDiag  1:
 RMSU=  6.54D-08    CP:  4.58D-01  2.83D+00  1.84D+00  9.36D-01  8.57D-01
                    CP:  8.85D-01  1.46D+00  1.24D+00  1.51D+00  1.68D+00
                    CP:  1.87D+00  1.53D+00  1.79D+00  1.47D+00  1.25D+00
 E= -3010.55071532710     Delta-E=       -0.000000000066 Rises=F Damp=F
 DIIS: error= 8.45D-08 at cycle  16 NSaved=  16.
 NSaved=16 IEnMin=16 EnMin= -3010.55071532710     IErMin=16 ErrMin= 8.45D-08
 ErrMax= 8.45D-08  0.00D+00 EMaxC= 1.00D-01 BMatC= 1.65D-12 BMatP= 1.95D-11
 IDIUse=1 WtCom= 1.00D+00 WtEn= 0.00D+00
 Coeff-Com: -0.105D-05 0.137D-05 0.113D-05 0.150D-04 0.790D-04 0.198D-03
 Coeff-Com:  0.652D-04-0.799D-03-0.320D-02-0.599D-03 0.216D-01 0.766D-02
 Coeff-Com: -0.961D-01-0.322D-01 0.164D+00 0.939D+00
 Coeff:     -0.105D-05 0.137D-05 0.113D-05 0.150D-04 0.790D-04 0.198D-03
 Coeff:      0.652D-04-0.799D-03-0.320D-02-0.599D-03 0.216D-01 0.766D-02
 Coeff:     -0.961D-01-0.322D-01 0.164D+00 0.939D+00
 Gap=     0.250 Goal=   None    Shift=    0.000
 RMSDP=7.42D-08 MaxDP=2.74D-06 DE=-6.64D-11 OVMax= 3.71D-06

 Cycle  17  Pass 1  IDiag  1:
 RMSU=  1.70D-08    CP:  4.58D-01  2.83D+00  1.84D+00  9.36D-01  8.57D-01
                    CP:  8.86D-01  1.46D+00  1.24D+00  1.51D+00  1.68D+00
                    CP:  1.87D+00  1.53D+00  1.82D+00  1.55D+00  1.48D+00
                    CP:  1.27D+00
 E= -3010.55071532713     Delta-E=       -0.000000000029 Rises=F Damp=F
 DIIS: error= 2.78D-08 at cycle  17 NSaved=  17.
 NSaved=17 IEnMin=17 EnMin= -3010.55071532713     IErMin=17 ErrMin= 2.78D-08
 ErrMax= 2.78D-08  0.00D+00 EMaxC= 1.00D-01 BMatC= 2.87D-13 BMatP= 1.65D-12
 IDIUse=1 WtCom= 1.00D+00 WtEn= 0.00D+00
 Coeff-Com: -0.836D-06 0.112D-05-0.523D-09-0.593D-06-0.174D-04-0.118D-04
 Coeff-Com:  0.608D-04 0.104D-03-0.355D-03-0.123D-02 0.141D-02 0.764D-02
 Coeff-Com:  0.129D-01-0.591D-01-0.118D+00 0.196D+00 0.961D+00
 Coeff:     -0.836D-06 0.112D-05-0.523D-09-0.593D-06-0.174D-04-0.118D-04
 Coeff:      0.608D-04 0.104D-03-0.355D-03-0.123D-02 0.141D-02 0.764D-02
 Coeff:      0.129D-01-0.591D-01-0.118D+00 0.196D+00 0.961D+00
 Gap=     0.250 Goal=   None    Shift=    0.000
 RMSDP=3.79D-08 MaxDP=1.72D-06 DE=-2.91D-11 OVMax= 1.61D-06

 Cycle  18  Pass 1  IDiag  1:
 RMSU=  8.04D-09    CP:  4.58D-01  2.83D+00  1.84D+00  9.36D-01  8.57D-01
                    CP:  8.86D-01  1.46D+00  1.24D+00  1.51D+00  1.68D+00
                    CP:  1.87D+00  1.53D+00  1.85D+00  1.56D+00  1.54D+00
                    CP:  1.51D+00  1.42D+00
 E= -3010.55071532710     Delta-E=        0.000000000025 Rises=F Damp=F
 DIIS: error= 1.13D-08 at cycle  18 NSaved=  18.
 NSaved=18 IEnMin=17 EnMin= -3010.55071532713     IErMin=18 ErrMin= 1.13D-08
 ErrMax= 1.13D-08  0.00D+00 EMaxC= 1.00D-01 BMatC= 6.28D-14 BMatP= 2.87D-13
 IDIUse=1 WtCom= 1.00D+00 WtEn= 0.00D+00
 Coeff-Com:  0.284D-06-0.378D-06-0.115D-06-0.282D-05-0.176D-04-0.345D-04
 Coeff-Com:  0.797D-05 0.156D-03 0.396D-03-0.367D-03-0.294D-02 0.137D-02
 Coeff-Com:  0.218D-01-0.126D-01-0.641D-01-0.114D+00 0.255D+00 0.916D+00
 Coeff:      0.284D-06-0.378D-06-0.115D-06-0.282D-05-0.176D-04-0.345D-04
 Coeff:      0.797D-05 0.156D-03 0.396D-03-0.367D-03-0.294D-02 0.137D-02
 Coeff:      0.218D-01-0.126D-01-0.641D-01-0.114D+00 0.255D+00 0.916D+00
 Gap=     0.250 Goal=   None    Shift=    0.000
 RMSDP=1.55D-08 MaxDP=8.47D-07 DE= 2.55D-11 OVMax= 5.71D-07

 Cycle  19  Pass 1  IDiag  1:
 RMSU=  2.83D-09    CP:  4.58D-01  2.83D+00  1.84D+00  9.36D-01  8.57D-01
                    CP:  8.86D-01  1.46D+00  1.24D+00  1.51D+00  1.68D+00
                    CP:  1.87D+00  1.53D+00  1.86D+00  1.56D+00  1.57D+00
                    CP:  1.59D+00  1.72D+00  1.41D+00
 E= -3010.55071532711     Delta-E=       -0.000000000005 Rises=F Damp=F
 DIIS: error= 5.04D-09 at cycle  19 NSaved=  19.
 NSaved=19 IEnMin=17 EnMin= -3010.55071532713     IErMin=19 ErrMin= 5.04D-09
 ErrMax= 5.04D-09  0.00D+00 EMaxC= 1.00D-01 BMatC= 7.32D-15 BMatP= 6.28D-14
 IDIUse=1 WtCom= 1.00D+00 WtEn= 0.00D+00
 Coeff-Com:  0.133D-06-0.176D-06-0.145D-07-0.139D-06 0.129D-05-0.140D-05
 Coeff-Com: -0.132D-04-0.107D-04 0.119D-03 0.225D-03-0.510D-03-0.125D-02
 Coeff-Com: -0.165D-03 0.550D-02 0.126D-01-0.258D-01-0.122D+00 0.549D-01
 Coeff-Com:  0.108D+01
 Coeff:      0.133D-06-0.176D-06-0.145D-07-0.139D-06 0.129D-05-0.140D-05
 Coeff:     -0.132D-04-0.107D-04 0.119D-03 0.225D-03-0.510D-03-0.125D-02
 Coeff:     -0.165D-03 0.550D-02 0.126D-01-0.258D-01-0.122D+00 0.549D-01
 Coeff:      0.108D+01
 Gap=     0.250 Goal=   None    Shift=    0.000
 RMSDP=5.93D-09 MaxDP=2.81D-07 DE=-5.46D-12 OVMax= 2.90D-07

 SCF Done:  E(RwB97XD) =  -3010.55071533     A.U. after   19 cycles
            NFock= 19  Conv=0.59D-08     -V/T= 2.0016
 KE= 3.005840913769D+03 PE=-8.634488796195D+03 EE= 1.876325720923D+03
 Leave Link  502 at Wed May  1 14:46:41 2024, MaxMem=  1207959552 cpu:            1076.1 elap:            1076.3
 (Enter /software/gaussian/g16-c01/sse4/g16/l601.exe)
 Copying SCF densities to generalized density rwf, IOpCl= 0 IROHF=0.

 **********************************************************************

            Population analysis using the SCF Density.

 **********************************************************************

 Alpha  occ. eigenvalues -- -483.32108 -62.87111 -56.66822 -56.66227 -56.66220
 Alpha  occ. eigenvalues --  -19.52674 -19.52593 -14.91964 -10.60354 -10.59625
 Alpha  occ. eigenvalues --  -10.59550 -10.59288 -10.58013 -10.54142  -9.02900
 Alpha  occ. eigenvalues --   -6.85627  -6.83682  -6.83654  -2.95519  -2.95007
 Alpha  occ. eigenvalues --   -2.94984  -2.93428  -2.93428  -1.56402  -1.39457
 Alpha  occ. eigenvalues --   -1.24870  -1.16529  -1.13583  -1.05984  -1.04371
 Alpha  occ. eigenvalues --   -0.97266  -0.93581  -0.89886  -0.86352  -0.84879
 Alpha  occ. eigenvalues --   -0.84046  -0.80963  -0.79794  -0.77710  -0.74080
 Alpha  occ. eigenvalues --   -0.70688  -0.69213  -0.65625  -0.63926  -0.63565
 Alpha  occ. eigenvalues --   -0.62632  -0.61537  -0.56897  -0.56190
 Alpha virt. eigenvalues --   -0.31168  -0.26695  -0.17283  -0.15724  -0.12178
 Alpha virt. eigenvalues --   -0.09425  -0.08879  -0.07479  -0.07343  -0.05503
 Alpha virt. eigenvalues --   -0.04010  -0.03849  -0.03362  -0.01870  -0.01593
 Alpha virt. eigenvalues --   -0.00992  -0.00798  -0.00017   0.00432   0.01279
 Alpha virt. eigenvalues --    0.02419   0.02579   0.02955   0.03399   0.03799
 Alpha virt. eigenvalues --    0.04402   0.04769   0.05663   0.06551   0.07354
 Alpha virt. eigenvalues --    0.07491   0.08110   0.08471   0.09181   0.09659
 Alpha virt. eigenvalues --    0.10295   0.10311   0.11349   0.12318   0.13446
 Alpha virt. eigenvalues --    0.13926   0.14053   0.15127   0.15433   0.16463
 Alpha virt. eigenvalues --    0.17363   0.18115   0.18885   0.19243   0.19617
 Alpha virt. eigenvalues --    0.20900   0.21236   0.24060   0.24988   0.27668
 Alpha virt. eigenvalues --    0.28954   0.29755   0.31699   0.32170   0.33487
 Alpha virt. eigenvalues --    0.34890   0.35896   0.37238   0.38071   0.40296
 Alpha virt. eigenvalues --    0.40582   0.41321   0.41691   0.43278   0.44658
 Alpha virt. eigenvalues --    0.45306   0.48147   0.48866   0.49498   0.51403
 Alpha virt. eigenvalues --    0.51834   0.52979   0.54711   0.55506   0.56787
 Alpha virt. eigenvalues --    0.60039   0.61250   0.63109   0.65541   0.66267
 Alpha virt. eigenvalues --    0.67234   0.68963   0.71481   0.72132   0.72684
 Alpha virt. eigenvalues --    0.73293   0.74891   0.76630   0.79912   0.81731
 Alpha virt. eigenvalues --    0.84082   0.84615   0.88771   0.90047   0.92226
 Alpha virt. eigenvalues --    0.93434   0.97592   1.00813   1.02003   1.03847
 Alpha virt. eigenvalues --    1.04185   1.05554   1.06538   1.06849   1.09083
 Alpha virt. eigenvalues --    1.15224   1.20354   1.23030   1.30988   1.34222
 Alpha virt. eigenvalues --    1.34846   1.35877   1.43269   1.51432   1.52497
 Alpha virt. eigenvalues --    1.53762   1.54401   1.58332   1.59450   1.64381
 Alpha virt. eigenvalues --    1.65848   1.67762   1.69255   1.71770   1.76743
 Alpha virt. eigenvalues --    1.79713   1.83096   1.84325   1.91732   1.93965
 Alpha virt. eigenvalues --    1.95612   1.98403   2.00712   2.05238   2.06139
 Alpha virt. eigenvalues --    2.07646   2.12705   2.17311   2.19319   2.27692
 Alpha virt. eigenvalues --    2.33405   2.37038   2.40059   2.41508   2.50165
 Alpha virt. eigenvalues --    2.54847   2.60409   2.62898   2.64568   2.66743
 Alpha virt. eigenvalues --    2.67664   2.70324   2.74155   2.74440   2.79845
 Alpha virt. eigenvalues --    2.91455   2.94056   2.94538   3.03660   3.05820
 Alpha virt. eigenvalues --    3.09714   3.12448   3.16845   3.18245   3.20316
 Alpha virt. eigenvalues --    3.21972   3.34552   3.45709   3.47286   3.49128
 Alpha virt. eigenvalues --    3.53216   3.63610   3.67396   3.80017   3.84928
 Alpha virt. eigenvalues --    4.08190   4.08411   4.15751   4.21044   4.37286
 Alpha virt. eigenvalues --    4.41808   4.53512   4.55894   4.86031   4.88631
 Alpha virt. eigenvalues --    4.97311   5.01477   5.56045   6.08679   6.63879
 Alpha virt. eigenvalues --    7.46887   7.48446   7.58154  23.19326  23.59187
 Alpha virt. eigenvalues --   23.68328  23.77402  23.93984  23.99106  35.26011
 Alpha virt. eigenvalues --   47.90343  49.78718  49.87528 289.79646 289.81311
 Alpha virt. eigenvalues --  289.937371020.90728
          Condensed to atoms (all electrons):
               1          2          3          4          5          6
     1  C    8.435680  -2.424041   0.673180  -1.411367  -0.859317   0.298737
     2  C   -2.424041  13.477545  -2.529766  -2.686835   1.290297  -0.014401
     3  C    0.673180  -2.529766  12.895030  -2.535841  -1.437506   0.016003
     4  C   -1.411367  -2.686835  -2.535841  13.377312   1.245707   0.010371
     5  C   -0.859317   1.290297  -1.437506   1.245707   7.469812   0.030917
     6  H    0.298737  -0.014401   0.016003   0.010371   0.030917   0.310483
     7  H    0.055868   0.252565   0.083551  -0.034453  -0.022042  -0.001836
     8  H    0.000284  -0.013190   0.056726   0.276750  -0.002297   0.000002
     9  H    0.018708  -0.000859  -0.001578  -0.003990   0.322892  -0.001667
    10  N   -0.091658   0.319134  -0.933587   0.250060   0.052592  -0.000447
    11  O    0.024569  -0.011023  -0.252034  -0.050513  -0.051329  -0.000014
    12  O    0.241796  -0.047738  -0.274890  -0.023094  -0.043850  -0.000044
    13  C    1.573597  -2.150603   0.913976  -2.696902  -2.040013  -0.009787
    14  H    0.004541  -0.019645   0.013110  -0.044758  -0.081350  -0.000060
    15  Br   0.069285  -0.000998   0.059488   0.115721   0.075320  -0.000376
               7          8          9         10         11         12
     1  C    0.055868   0.000284   0.018708  -0.091658   0.024569   0.241796
     2  C    0.252565  -0.013190  -0.000859   0.319134  -0.011023  -0.047738
     3  C    0.083551   0.056726  -0.001578  -0.933587  -0.252034  -0.274890
     4  C   -0.034453   0.276750  -0.003990   0.250060  -0.050513  -0.023094
     5  C   -0.022042  -0.002297   0.322892   0.052592  -0.051329  -0.043850
     6  H   -0.001836   0.000002  -0.001667  -0.000447  -0.000014  -0.000044
     7  H    0.326116   0.000023   0.000019  -0.028161  -0.001587   0.015572
     8  H    0.000023   0.320591   0.000131  -0.023522   0.016156  -0.000950
     9  H    0.000019   0.000131   0.274955   0.000458   0.000002   0.000005
    10  N   -0.028161  -0.023522   0.000458   7.160809   0.270750   0.239707
    11  O   -0.001587   0.016156   0.000002   0.270750   7.865493  -0.020716
    12  O    0.015572  -0.000950   0.000005   0.239707  -0.020716   7.898207
    13  C    0.013315   0.022233  -0.014945  -0.111712   0.239164   0.047241
    14  H   -0.000012  -0.005243  -0.004245  -0.001464  -0.000131  -0.000070
    15  Br  -0.000262  -0.001697   0.001053   0.000685   0.001123   0.001923
              13         14         15
     1  C    1.573597   0.004541   0.069285
     2  C   -2.150603  -0.019645  -0.000998
     3  C    0.913976   0.013110   0.059488
     4  C   -2.696902  -0.044758   0.115721
     5  C   -2.040013  -0.081350   0.075320
     6  H   -0.009787  -0.000060  -0.000376
     7  H    0.013315  -0.000012  -0.000262
     8  H    0.022233  -0.005243  -0.001697
     9  H   -0.014945  -0.004245   0.001053
    10  N   -0.111712  -0.001464   0.000685
    11  O    0.239164  -0.000131   0.001123
    12  O    0.047241  -0.000070   0.001923
    13  C   10.363089   0.426333  -0.130590
    14  H    0.426333   0.322614  -0.036234
    15  Br  -0.130590  -0.036234  34.593467
 Mulliken charges:
               1
     1  C   -0.609863
     2  C    0.559559
     3  C   -0.745862
     4  C    0.211831
     5  C    0.050167
     6  H    0.362120
     7  H    0.341323
     8  H    0.354002
     9  H    0.409062
    10  N   -0.103643
    11  O   -0.029908
    12  O   -0.033099
    13  C   -0.444397
    14  H    0.426616
    15  Br   0.252093
 Sum of Mulliken charges =   1.00000
 Mulliken charges with hydrogens summed into heavy atoms:
               1
     1  C   -0.247743
     2  C    0.900882
     3  C   -0.745862
     4  C    0.565833
     5  C    0.459229
    10  N   -0.103643
    11  O   -0.029908
    12  O   -0.033099
    13  C   -0.017781
    15  Br   0.252093
 Electronic spatial extent (au):  <R**2>=           2804.7174
 Charge=              1.0000 electrons
 Dipole moment (field-independent basis, Debye):
    X=             -4.9426    Y=             -1.0629    Z=             -0.3634  Tot=              5.0687
 Quadrupole moment (field-independent basis, Debye-Ang):
   XX=            -81.1649   YY=            -51.5764   ZZ=            -61.6462
   XY=              1.9188   XZ=              2.1637   YZ=              2.6272
 Traceless Quadrupole moment (field-independent basis, Debye-Ang):
   XX=            -16.3691   YY=             13.2194   ZZ=              3.1496
   XY=              1.9188   XZ=              2.1637   YZ=              2.6272
 Octapole moment (field-independent basis, Debye-Ang**2):
  XXX=           -356.8027  YYY=             84.2381  ZZZ=             74.7361  XYY=            -85.8248
  XXY=             28.1761  XXZ=             31.9480  XZZ=            -82.7452  YZZ=             13.7997
  YYZ=             23.2034  XYZ=             -5.3163
 Hexadecapole moment (field-independent basis, Debye-Ang**3):
 XXXX=          -2527.9399 YYYY=           -669.3752 ZZZZ=           -339.9664 XXXY=            -68.0342
 XXXZ=            -14.6794 YYYX=            -55.2776 YYYZ=           -148.9959 ZZZX=            -12.7538
 ZZZY=           -129.5050 XXYY=           -475.1105 XXZZ=           -374.2199 YYZZ=           -157.8073
 XXYZ=            -52.0793 YYXZ=              2.6101 ZZXY=             -4.5531
 N-N= 7.417714461761D+02 E-N=-8.634488794857D+03  KE= 3.005840913769D+03
 No NMR shielding tensors so no spin-rotation constants.
 Leave Link  601 at Wed May  1 14:46:49 2024, MaxMem=  1207959552 cpu:               7.2 elap:               7.2
 (Enter /software/gaussian/g16-c01/sse4/g16/l9999.exe)
 Unable to Open any file for archive entry.
 1\1\GINC-BHX0024\SP\RwB97XD\6-311+G(d)\C6H5Br1N1O2(1+)\BWEIGHT\01-May-
 2024\0\\#P wB97XD/6-311+G* NoSymm #P Field=X+136\\TitleMe\\1,1\C,0,0.0
 295,1.3397,0.0682\C,0,1.4348,1.2867,0.0064\C,0,2.1118,0.0511,-0.0054\C
 ,0,1.4451,-1.1372,0.0312\C,0,-0.6879,0.1682,0.11\H,0,-0.4713,2.2984,0.
 0781\H,0,2.0273,2.1965,-0.0322\H,0,1.9897,-2.0764,0.0232\H,0,-1.7716,0
 .1804,0.1582\N,0,3.5864,0.051,-0.0675\O,0,4.1471,-1.0597,-0.0881\O,0,4
 .145,1.1639,-0.0901\C,0,-0.0236,-1.1458,0.0835\H,0,-0.4367,-1.8725,0.7
 889\Br,0,-0.5359,-1.8697,-1.7408\\Version=ES64L-G16RevC.01\HF=-3010.55
 07153\RMSD=5.926e-09\Dipole=-3.8511071,0.7298876,1.003184\Quadrupole=-
 12.1699932,9.8283247,2.3416685,1.4265657,1.6086228,1.9532433\PG=C01 [X
 (C6H5Br1N1O2)]\\@
 The archive entry for this job was punched.


 NO HUMAN INVESTIGATION CAN BECOME REAL SCIENCE
 WITHOUT GOING THROUGH MATHEMATICAL PEOPLE.
 -- LEONARDO DA VINCI, IN "PENSIERI" CA. 1492
 Job cpu time:       0 days  0 hours 19 minutes  2.5 seconds.
 Elapsed time:       0 days  0 hours 19 minutes  2.6 seconds.
 File lengths (MBytes):  RWF=     40 Int=      0 D2E=      0 Chk=     32 Scr=      1
 Normal termination of Gaussian 16 at Wed May  1 14:46:50 2024.
