 Entering Gaussian System, Link 0=/software/gaussian/g16-c01/avx2/g16/g16
 Initial command:
 /software/gaussian/g16-c01/avx2/g16/l1.exe "/gpfs/fs2/scratch/bweight/huo_group/polaritons/ground_state/bromination_of_nitrobenzene/nitrobenzene/G16_VOL/Gau-9065.inp" -scrdir="/gpfs/fs2/scratch/bweight/huo_group/polaritons/ground_state/bromination_of_nitrobenzene/nitrobenzene/G16_VOL/"
 Entering Link 1 = /software/gaussian/g16-c01/avx2/g16/l1.exe PID=      9085.
  
 Copyright (c) 1988-2019, Gaussian, Inc.  All Rights Reserved.
  
 This is part of the Gaussian(R) 16 program.  It is based on
 the Gaussian(R) 09 system (copyright 2009, Gaussian, Inc.),
 the Gaussian(R) 03 system (copyright 2003, Gaussian, Inc.),
 the Gaussian(R) 98 system (copyright 1998, Gaussian, Inc.),
 the Gaussian(R) 94 system (copyright 1995, Gaussian, Inc.),
 the Gaussian 92(TM) system (copyright 1992, Gaussian, Inc.),
 the Gaussian 90(TM) system (copyright 1990, Gaussian, Inc.),
 the Gaussian 88(TM) system (copyright 1988, Gaussian, Inc.),
 the Gaussian 86(TM) system (copyright 1986, Carnegie Mellon
 University), and the Gaussian 82(TM) system (copyright 1983,
 Carnegie Mellon University). Gaussian is a federally registered
 trademark of Gaussian, Inc.
  
 This software contains proprietary and confidential information,
 including trade secrets, belonging to Gaussian, Inc.
  
 This software is provided under written license and may be
 used, copied, transmitted, or stored only in accord with that
 written license.
  
 The following legend is applicable only to US Government
 contracts under FAR:
  
                    RESTRICTED RIGHTS LEGEND
  
 Use, reproduction and disclosure by the US Government is
 subject to restrictions as set forth in subparagraphs (a)
 and (c) of the Commercial Computer Software - Restricted
 Rights clause in FAR 52.227-19.
  
 Gaussian, Inc.
 340 Quinnipiac St., Bldg. 40, Wallingford CT 06492
  
  
 ---------------------------------------------------------------
 Warning -- This program may not be used in any manner that
 competes with the business of Gaussian, Inc. or will provide
 assistance to any competitor of Gaussian, Inc.  The licensee
 of this program is prohibited from giving any competitor of
 Gaussian, Inc. access to this program.  By using this program,
 the user acknowledges that Gaussian, Inc. is engaged in the
 business of creating and licensing software in the field of
 computational chemistry and represents and warrants to the
 licensee that it is not a competitor of Gaussian, Inc. and that
 it will not use this program in any manner prohibited above.
 ---------------------------------------------------------------
  

 Cite this work as:
 Gaussian 16, Revision C.01,
 M. J. Frisch, G. W. Trucks, H. B. Schlegel, G. E. Scuseria, 
 M. A. Robb, J. R. Cheeseman, G. Scalmani, V. Barone, 
 G. A. Petersson, H. Nakatsuji, X. Li, M. Caricato, A. V. Marenich, 
 J. Bloino, B. G. Janesko, R. Gomperts, B. Mennucci, H. P. Hratchian, 
 J. V. Ortiz, A. F. Izmaylov, J. L. Sonnenberg, D. Williams-Young, 
 F. Ding, F. Lipparini, F. Egidi, J. Goings, B. Peng, A. Petrone, 
 T. Henderson, D. Ranasinghe, V. G. Zakrzewski, J. Gao, N. Rega, 
 G. Zheng, W. Liang, M. Hada, M. Ehara, K. Toyota, R. Fukuda, 
 J. Hasegawa, M. Ishida, T. Nakajima, Y. Honda, O. Kitao, H. Nakai, 
 T. Vreven, K. Throssell, J. A. Montgomery, Jr., J. E. Peralta, 
 F. Ogliaro, M. J. Bearpark, J. J. Heyd, E. N. Brothers, K. N. Kudin, 
 V. N. Staroverov, T. A. Keith, R. Kobayashi, J. Normand, 
 K. Raghavachari, A. P. Rendell, J. C. Burant, S. S. Iyengar, 
 J. Tomasi, M. Cossi, J. M. Millam, M. Klene, C. Adamo, R. Cammi, 
 J. W. Ochterski, R. L. Martin, K. Morokuma, O. Farkas, 
 J. B. Foresman, and D. J. Fox, Gaussian, Inc., Wallingford CT, 2019.
 
 ******************************************
 Gaussian 16:  ES64L-G16RevC.01  3-Jul-2019
                23-May-2023 
 ******************************************
 %chk=geometry.chk
 %mem=10GB
 %nprocshared=12
 Will use up to   12 processors via shared memory.
 -------------------------
 #P wB97XD/6-311+G* volume
 -------------------------
 1/38=1,172=1/1;
 2/12=2,17=6,18=5,40=1/2;
 3/5=4,6=6,7=11,11=2,25=1,30=1,74=-58/1,2,3;
 4//1;
 5/5=2,38=5/2;
 6/7=2,8=2,9=2,10=2,28=1,44=1/1,4;
 99/5=1,9=1/99;
 Leave Link    1 at Tue May 23 13:35:31 2023, MaxMem=  1342177280 cpu:               1.9 elap:               1.0
 (Enter /software/gaussian/g16-c01/avx2/g16/l101.exe)
 -------
 TitleMe
 -------
 Symbolic Z-matrix:
 Charge =  0 Multiplicity = 1
 C                    -1.82075   1.21221   0.00007 
 C                    -0.42782   1.22011   0.00011 
 C                     0.24287   0.00002  -0.00001 
 C                    -0.42786  -1.22012   0.00003 
 C                    -2.51579   0.00002   0. 
 H                    -2.36155   2.15093  -0.00002 
 H                     0.13769   2.14227   0.00006 
 H                     0.13768  -2.14225  -0.00012 
 H                    -3.59985  -0.00001  -0.00023 
 N                     1.7052    0.       -0.00004 
 O                     2.29572  -1.10489   0.00011 
 O                     2.29576   1.10486  -0.00013 
 C                    -1.82075  -1.2122   -0.00006 
 H                    -2.36162  -2.15087  -0.00013 
 
 ITRead=  0  0  0  0  0  0  0  0  0  0  0  0  0  0
 MicOpt= -1 -1 -1 -1 -1 -1 -1 -1 -1 -1 -1 -1 -1 -1
 NAtoms=     14 NQM=       14 NQMF=       0 NMMI=      0 NMMIF=      0
                NMic=       0 NMicF=      0.
                    Isotopes and Nuclear Properties:
 (Nuclear quadrupole moments (NQMom) in fm**2, nuclear magnetic moments (NMagM)
  in nuclear magnetons)

  Atom         1           2           3           4           5           6           7           8           9          10
 IAtWgt=          12          12          12          12          12           1           1           1           1          14
 AtmWgt=  12.0000000  12.0000000  12.0000000  12.0000000  12.0000000   1.0078250   1.0078250   1.0078250   1.0078250  14.0030740
 NucSpn=           0           0           0           0           0           1           1           1           1           2
 AtZEff=  -0.0000000  -0.0000000  -0.0000000  -0.0000000  -0.0000000  -0.0000000  -0.0000000  -0.0000000  -0.0000000  -0.0000000
 NQMom=    0.0000000   0.0000000   0.0000000   0.0000000   0.0000000   0.0000000   0.0000000   0.0000000   0.0000000   2.0440000
 NMagM=    0.0000000   0.0000000   0.0000000   0.0000000   0.0000000   2.7928460   2.7928460   2.7928460   2.7928460   0.4037610
 AtZNuc=   6.0000000   6.0000000   6.0000000   6.0000000   6.0000000   1.0000000   1.0000000   1.0000000   1.0000000   7.0000000

  Atom        11          12          13          14
 IAtWgt=          16          16          12           1
 AtmWgt=  15.9949146  15.9949146  12.0000000   1.0078250
 NucSpn=           0           0           0           1
 AtZEff=  -0.0000000  -0.0000000  -0.0000000  -0.0000000
 NQMom=    0.0000000   0.0000000   0.0000000   0.0000000
 NMagM=    0.0000000   0.0000000   0.0000000   2.7928460
 AtZNuc=   8.0000000   8.0000000   6.0000000   1.0000000
 Leave Link  101 at Tue May 23 13:35:31 2023, MaxMem=  1342177280 cpu:               1.3 elap:               0.6
 (Enter /software/gaussian/g16-c01/avx2/g16/l202.exe)
                          Input orientation:                          
 ---------------------------------------------------------------------
 Center     Atomic      Atomic             Coordinates (Angstroms)
 Number     Number       Type             X           Y           Z
 ---------------------------------------------------------------------
      1          6           0       -1.820750    1.212210    0.000070
      2          6           0       -0.427820    1.220110    0.000110
      3          6           0        0.242870    0.000020   -0.000010
      4          6           0       -0.427860   -1.220120    0.000030
      5          6           0       -2.515790    0.000020    0.000000
      6          1           0       -2.361550    2.150930   -0.000020
      7          1           0        0.137690    2.142270    0.000060
      8          1           0        0.137680   -2.142250   -0.000120
      9          1           0       -3.599850   -0.000010   -0.000230
     10          7           0        1.705200    0.000000   -0.000040
     11          8           0        2.295720   -1.104890    0.000110
     12          8           0        2.295760    1.104860   -0.000130
     13          6           0       -1.820750   -1.212200   -0.000060
     14          1           0       -2.361620   -2.150870   -0.000130
 ---------------------------------------------------------------------
                    Distance matrix (angstroms):
                    1          2          3          4          5
     1  C    0.000000
     2  C    1.392952   0.000000
     3  C    2.393310   1.392280   0.000000
     4  C    2.802922   2.440230   1.392343   0.000000
     5  C    1.397314   2.418313   2.758660   2.418304   0.000000
     6  H    1.083356   2.146098   3.377783   3.886275   2.156433
     7  H    2.168063   1.081749   2.144831   3.409621   3.410307
     8  H    3.884308   3.409583   2.144851   1.081739   3.410311
     9  H    2.152829   3.398598   3.842720   3.398557   1.084060
    10  N    3.728509   2.457324   1.462330   2.457364   4.220990
    11  O    4.723799   3.580963   2.331313   2.726017   4.936745
    12  O    4.117909   2.726017   2.331315   3.581011   4.936769
    13  C    2.424410   2.802925   2.393325   1.392913   1.397340
    14  H    3.406295   3.886269   3.377824   2.146095   2.156408
                    6          7          8          9         10
     6  H    0.000000
     7  H    2.499255   0.000000
     8  H    4.967650   4.284520   0.000000
     9  H    2.481921   4.307966   4.307937   0.000000
    10  N    4.600539   2.654507   2.654497   5.305050   0.000000
    11  O    5.682475   3.898864   2.394421   5.998209   1.252795
    12  O    4.773343   2.394470   3.898850   5.998246   1.252788
    13  C    3.406334   3.884322   2.168050   2.152812   3.728505
    14  H    4.301800   4.967656   2.499315   2.481816   4.600572
                   11         12         13         14
    11  O    0.000000
    12  O    2.209750   0.000000
    13  C    4.117868   4.723814   0.000000
    14  H    4.773352   5.682514   1.083347   0.000000
 Stoichiometry    C6H5NO2
 Framework group  C1[X(C6H5NO2)]
 Deg. of freedom    36
 Full point group                 C1      NOp   1
 Largest Abelian subgroup         C1      NOp   1
 Largest concise Abelian subgroup C1      NOp   1
                         Standard orientation:                         
 ---------------------------------------------------------------------
 Center     Atomic      Atomic             Coordinates (Angstroms)
 Number     Number       Type             X           Y           Z
 ---------------------------------------------------------------------
      1          6           0       -1.820752   -1.212206   -0.000071
      2          6           0       -0.427822   -1.220108   -0.000111
      3          6           0        0.242870   -0.000019    0.000009
      4          6           0       -0.427858    1.220122   -0.000031
      5          6           0       -2.515790   -0.000015   -0.000001
      6          1           0       -2.361553   -2.150926    0.000019
      7          1           0        0.137687   -2.142269   -0.000061
      8          1           0        0.137683    2.142251    0.000119
      9          1           0       -3.599850    0.000016    0.000229
     10          7           0        1.705200   -0.000001    0.000039
     11          8           0        2.295722    1.104888   -0.000111
     12          8           0        2.295759   -1.104862    0.000129
     13          6           0       -1.820748    1.212204    0.000059
     14          1           0       -2.361617    2.150874    0.000129
 ---------------------------------------------------------------------
 Rotational constants (GHZ):           3.9291806           1.2834848           0.9674597
 Leave Link  202 at Tue May 23 13:35:32 2023, MaxMem=  1342177280 cpu:               0.7 elap:               0.3
 (Enter /software/gaussian/g16-c01/avx2/g16/l301.exe)
 Standard basis: 6-311+G(d) (5D, 7F)
 Ernie: Thresh=  0.10000D-02 Tol=  0.10000D-05 Strict=F.
 There are   222 symmetry adapted cartesian basis functions of A   symmetry.
 There are   213 symmetry adapted basis functions of A   symmetry.
   213 basis functions,   349 primitive gaussians,   222 cartesian basis functions
    32 alpha electrons       32 beta electrons
       nuclear repulsion energy       410.8004128210 Hartrees.
 IExCor= 4639 DFT=T Ex+Corr=wB97XD ExCW=0 ScaHFX=  1.000000
 ScaDFX=  1.000000  1.000000  1.000000  1.000000 ScalE2=  1.000000  1.000000
 IRadAn=      5 IRanWt=     -1 IRanGd=            0 ICorTp=0 IEmpDi=121
 HFx  wShort=  0.000000 wLong=  0.200000 cFull=  0.222036 cShort=  0.000000 cLong=  0.777964
 DFx  wShort=  0.000000 wLong=  0.200000 cFull=  0.000000 cShort=  0.000000 cLong=  1.000000
 NAtoms=   14 NActive=   14 NUniq=   14 SFac= 1.00D+00 NAtFMM=   60 NAOKFM=F Big=F
 Integral buffers will be    131072 words long.
 Raffenetti 2 integral format.
 Two-electron integral symmetry is turned on.
 R6Disp:  Grimme-D2 Dispersion energy=       -0.0056659730 Hartrees.
 Nuclear repulsion after empirical dispersion term =      410.7947468480 Hartrees.
 Leave Link  301 at Tue May 23 13:35:32 2023, MaxMem=  1342177280 cpu:               0.7 elap:               0.4
 (Enter /software/gaussian/g16-c01/avx2/g16/l302.exe)
 NPDir=0 NMtPBC=     1 NCelOv=     1 NCel=       1 NClECP=     1 NCelD=      1
         NCelK=      1 NCelE2=     1 NClLst=     1 CellRange=     0.0.
 One-electron integrals computed using PRISM.
 One-electron integral symmetry used in STVInt
 NBasis=   213 RedAO= T EigKep=  2.75D-06  NBF=   213
 NBsUse=   213 1.00D-06 EigRej= -1.00D+00 NBFU=   213
 Precomputing XC quadrature grid using
 IXCGrd= 4 IRadAn=           5 IRanWt=          -1 IRanGd=           0 AccXCQ= 0.00D+00.
 Generated NRdTot=       0 NPtTot=           0 NUsed=           0 NTot=          32
 NSgBfM=   222   222   222   222   222 MxSgAt=    14 MxSgA2=    14.
 Leave Link  302 at Tue May 23 13:35:39 2023, MaxMem=  1342177280 cpu:              12.2 elap:               6.1
 (Enter /software/gaussian/g16-c01/avx2/g16/l303.exe)
 DipDrv:  MaxL=1.
 Leave Link  303 at Tue May 23 13:35:39 2023, MaxMem=  1342177280 cpu:               1.4 elap:               0.7
 (Enter /software/gaussian/g16-c01/avx2/g16/l401.exe)
 ExpMin= 4.38D-02 ExpMax= 8.59D+03 ExpMxC= 1.30D+03 IAcc=3 IRadAn=         5 AccDes= 0.00D+00
 Harris functional with IExCor= 4639 and IRadAn=       5 diagonalized for initial guess.
 HarFok:  IExCor= 4639 AccDes= 0.00D+00 IRadAn=         5 IDoV= 1 UseB2=F ITyADJ=14
 ICtDFT=  3500011 ScaDFX=  1.000000  1.000000  1.000000  1.000000
 FoFCou: FMM=F IPFlag=           0 FMFlag=      100000 FMFlg1=           0
         NFxFlg=           0 DoJE=T BraDBF=F KetDBF=T FulRan=T
         wScrn=  0.000000 ICntrl=       500 IOpCl=  0 I1Cent=   200000004 NGrid=           0
         NMat0=    1 NMatS0=      1 NMatT0=    0 NMatD0=    1 NMtDS0=    0 NMtDT0=    0
 Petite list used in FoFCou.
 Harris En= -419.087383755400    
 JPrj=0 DoOrth=F DoCkMO=F.
 Leave Link  401 at Tue May 23 13:35:46 2023, MaxMem=  1342177280 cpu:              12.1 elap:               6.1
 (Enter /software/gaussian/g16-c01/avx2/g16/l502.exe)
 Integral symmetry usage will be decided dynamically.
 Closed shell SCF:
 Using DIIS extrapolation, IDIIS=  1040.
 NGot=  1342177280 LenX=  1342073540 LenY=  1342023815
 Requested convergence on RMS density matrix=1.00D-08 within 128 cycles.
 Requested convergence on MAX density matrix=1.00D-06.
 Requested convergence on             energy=1.00D-06.
 No special actions if energy rises.
 Fock matrices will be formed incrementally for  20 cycles.

 Cycle   1  Pass 1  IDiag  1:
 FoFJK:  IHMeth= 1 ICntrl=       0 DoSepK=T KAlg= 0 I1Cent=           0 FoldK=F
 IRaf=         1 NMat=       1 IRICut=       1 DoRegI=T DoRafI=F ISym2E= 0 IDoP0=0 IntGTp=1.
 FoFCou: FMM=F IPFlag=           0 FMFlag=      100000 FMFlg1=           0
         NFxFlg=           0 DoJE=T BraDBF=F KetDBF=F FulRan=T
         wScrn=  0.000000 ICntrl=       500 IOpCl=  0 I1Cent=           0 NGrid=           0
         NMat0=    1 NMatS0=      1 NMatT0=    0 NMatD0=    1 NMtDS0=    0 NMtDT0=    0
 Symmetry not used in FoFCou.
 E= -436.430095634100    
 DIIS: error= 7.56D-02 at cycle   1 NSaved=   1.
 NSaved= 1 IEnMin= 1 EnMin= -436.430095634100     IErMin= 1 ErrMin= 7.56D-02
 ErrMax= 7.56D-02  0.00D+00 EMaxC= 1.00D-01 BMatC= 1.11D+00 BMatP= 1.11D+00
 IDIUse=3 WtCom= 2.44D-01 WtEn= 7.56D-01
 Coeff-Com:  0.100D+01
 Coeff-En:   0.100D+01
 Coeff:      0.100D+01
 Gap=     0.451 Goal=   None    Shift=    0.000
 GapD=    0.451 DampG=2.000 DampE=0.500 DampFc=1.0000 IDamp=-1.
 RMSDP=4.14D-02 MaxDP=3.31D+00              OVMax= 2.49D-01

 Cycle   2  Pass 1  IDiag  1:
 RMSU=  1.32D-02    CP:  5.57D-01
 E= -436.427448514476     Delta-E=        0.002647119624 Rises=F Damp=F
 DIIS: error= 7.63D-02 at cycle   2 NSaved=   2.
 NSaved= 2 IEnMin= 1 EnMin= -436.430095634100     IErMin= 1 ErrMin= 7.56D-02
 ErrMax= 7.63D-02  0.00D+00 EMaxC= 1.00D-01 BMatC= 3.78D-01 BMatP= 1.11D+00
 IDIUse=3 WtCom= 2.37D-01 WtEn= 7.63D-01
 Coeff-Com:  0.331D+00 0.669D+00
 Coeff-En:   0.503D+00 0.497D+00
 Coeff:      0.462D+00 0.538D+00
 Gap=     0.361 Goal=   None    Shift=    0.000
 RMSDP=8.14D-03 MaxDP=4.50D-01 DE= 2.65D-03 OVMax= 1.65D-01

 Cycle   3  Pass 1  IDiag  1:
 RMSU=  5.93D-03    CP:  4.99D-01  8.31D-01
 E= -436.683670198788     Delta-E=       -0.256221684313 Rises=F Damp=F
 DIIS: error= 2.36D-02 at cycle   3 NSaved=   3.
 NSaved= 3 IEnMin= 3 EnMin= -436.683670198788     IErMin= 3 ErrMin= 2.36D-02
 ErrMax= 2.36D-02  0.00D+00 EMaxC= 1.00D-01 BMatC= 3.07D-02 BMatP= 3.78D-01
 IDIUse=3 WtCom= 7.64D-01 WtEn= 2.36D-01
 Coeff-Com:  0.514D-01 0.217D+00 0.732D+00
 Coeff-En:   0.000D+00 0.000D+00 0.100D+01
 Coeff:      0.392D-01 0.166D+00 0.795D+00
 Gap=     0.329 Goal=   None    Shift=    0.000
 RMSDP=2.13D-03 MaxDP=1.22D-01 DE=-2.56D-01 OVMax= 6.60D-02

 Cycle   4  Pass 1  IDiag  1:
 RMSU=  1.86D-03    CP:  5.04D-01  8.27D-01  8.40D-01
 E= -436.695906117910     Delta-E=       -0.012235919122 Rises=F Damp=F
 DIIS: error= 1.50D-02 at cycle   4 NSaved=   4.
 NSaved= 4 IEnMin= 4 EnMin= -436.695906117910     IErMin= 4 ErrMin= 1.50D-02
 ErrMax= 1.50D-02  0.00D+00 EMaxC= 1.00D-01 BMatC= 1.43D-02 BMatP= 3.07D-02
 IDIUse=3 WtCom= 8.50D-01 WtEn= 1.50D-01
 Coeff-Com:  0.897D-02 0.568D-01 0.448D+00 0.486D+00
 Coeff-En:   0.000D+00 0.000D+00 0.314D+00 0.686D+00
 Coeff:      0.763D-02 0.483D-01 0.428D+00 0.516D+00
 Gap=     0.346 Goal=   None    Shift=    0.000
 RMSDP=2.61D-03 MaxDP=1.19D-01 DE=-1.22D-02 OVMax= 2.54D-02

 Cycle   5  Pass 1  IDiag  1:
 RMSU=  1.53D-03    CP:  4.84D-01  8.60D-01  9.46D-01  5.55D-01
 E= -436.705029376372     Delta-E=       -0.009123258462 Rises=F Damp=F
 DIIS: error= 1.92D-03 at cycle   5 NSaved=   5.
 NSaved= 5 IEnMin= 5 EnMin= -436.705029376372     IErMin= 5 ErrMin= 1.92D-03
 ErrMax= 1.92D-03  0.00D+00 EMaxC= 1.00D-01 BMatC= 1.42D-04 BMatP= 1.43D-02
 IDIUse=3 WtCom= 9.81D-01 WtEn= 1.92D-02
 Coeff-Com: -0.315D-03-0.217D-02 0.650D-01 0.147D+00 0.790D+00
 Coeff-En:   0.000D+00 0.000D+00 0.000D+00 0.000D+00 0.100D+01
 Coeff:     -0.309D-03-0.213D-02 0.638D-01 0.144D+00 0.794D+00
 Gap=     0.322 Goal=   None    Shift=    0.000
 RMSDP=3.52D-04 MaxDP=1.90D-02 DE=-9.12D-03 OVMax= 7.03D-03

 Cycle   6  Pass 1  IDiag  1:
 RMSU=  1.70D-04    CP:  4.81D-01  8.57D-01  9.52D-01  5.97D-01  1.06D+00
 E= -436.705169818107     Delta-E=       -0.000140441735 Rises=F Damp=F
 DIIS: error= 2.61D-04 at cycle   6 NSaved=   6.
 NSaved= 6 IEnMin= 6 EnMin= -436.705169818107     IErMin= 6 ErrMin= 2.61D-04
 ErrMax= 2.61D-04  0.00D+00 EMaxC= 1.00D-01 BMatC= 1.04D-05 BMatP= 1.42D-04
 IDIUse=3 WtCom= 9.97D-01 WtEn= 2.61D-03
 Coeff-Com: -0.884D-03-0.769D-02-0.299D-01-0.112D-01 0.253D+00 0.797D+00
 Coeff-En:   0.000D+00 0.000D+00 0.000D+00 0.000D+00 0.000D+00 0.100D+01
 Coeff:     -0.882D-03-0.767D-02-0.298D-01-0.112D-01 0.252D+00 0.797D+00
 Gap=     0.322 Goal=   None    Shift=    0.000
 RMSDP=2.33D-04 MaxDP=9.60D-03 DE=-1.40D-04 OVMax= 2.18D-03

 Cycle   7  Pass 1  IDiag  1:
 RMSU=  2.62D-05    CP:  4.80D-01  8.57D-01  9.59D-01  6.04D-01  1.20D+00
                    CP:  1.12D+00
 E= -436.705186185046     Delta-E=       -0.000016366939 Rises=F Damp=F
 DIIS: error= 1.61D-04 at cycle   7 NSaved=   7.
 NSaved= 7 IEnMin= 7 EnMin= -436.705186185046     IErMin= 7 ErrMin= 1.61D-04
 ErrMax= 1.61D-04  0.00D+00 EMaxC= 1.00D-01 BMatC= 3.16D-07 BMatP= 1.04D-05
 IDIUse=3 WtCom= 9.98D-01 WtEn= 1.61D-03
 Coeff-Com: -0.398D-04-0.390D-04-0.584D-02-0.124D-01-0.576D-01-0.166D-01
 Coeff-Com:  0.109D+01
 Coeff-En:   0.000D+00 0.000D+00 0.000D+00 0.000D+00 0.000D+00 0.000D+00
 Coeff-En:   0.100D+01
 Coeff:     -0.397D-04-0.390D-04-0.583D-02-0.123D-01-0.575D-01-0.166D-01
 Coeff:      0.109D+01
 Gap=     0.322 Goal=   None    Shift=    0.000
 RMSDP=6.90D-05 MaxDP=3.04D-03 DE=-1.64D-05 OVMax= 1.28D-03

 Cycle   8  Pass 1  IDiag  1:
 RMSU=  6.64D-06    CP:  4.80D-01  8.57D-01  9.60D-01  6.05D-01  1.24D+00
                    CP:  1.25D+00  1.26D+00
 E= -436.705187766134     Delta-E=       -0.000001581088 Rises=F Damp=F
 DIIS: error= 4.37D-05 at cycle   8 NSaved=   8.
 NSaved= 8 IEnMin= 8 EnMin= -436.705187766134     IErMin= 8 ErrMin= 4.37D-05
 ErrMax= 4.37D-05  0.00D+00 EMaxC= 1.00D-01 BMatC= 9.65D-08 BMatP= 3.16D-07
 IDIUse=1 WtCom= 1.00D+00 WtEn= 0.00D+00
 Coeff-Com:  0.453D-04 0.651D-03 0.164D-03-0.432D-02-0.428D-01-0.788D-01
 Coeff-Com:  0.417D+00 0.708D+00
 Coeff:      0.453D-04 0.651D-03 0.164D-03-0.432D-02-0.428D-01-0.788D-01
 Coeff:      0.417D+00 0.708D+00
 Gap=     0.322 Goal=   None    Shift=    0.000
 RMSDP=9.84D-06 MaxDP=3.31D-04 DE=-1.58D-06 OVMax= 2.97D-04

 Cycle   9  Pass 1  IDiag  1:
 RMSU=  2.92D-06    CP:  4.80D-01  8.57D-01  9.60D-01  6.04D-01  1.25D+00
                    CP:  1.26D+00  1.36D+00  1.05D+00
 E= -436.705187934166     Delta-E=       -0.000000168033 Rises=F Damp=F
 DIIS: error= 1.02D-05 at cycle   9 NSaved=   9.
 NSaved= 9 IEnMin= 9 EnMin= -436.705187934166     IErMin= 9 ErrMin= 1.02D-05
 ErrMax= 1.02D-05  0.00D+00 EMaxC= 1.00D-01 BMatC= 1.08D-08 BMatP= 9.65D-08
 IDIUse=1 WtCom= 1.00D+00 WtEn= 0.00D+00
 Coeff-Com:  0.125D-04 0.129D-03 0.915D-03 0.102D-02 0.496D-02-0.109D-01
 Coeff-Com: -0.120D+00 0.139D+00 0.985D+00
 Coeff:      0.125D-04 0.129D-03 0.915D-03 0.102D-02 0.496D-02-0.109D-01
 Coeff:     -0.120D+00 0.139D+00 0.985D+00
 Gap=     0.321 Goal=   None    Shift=    0.000
 RMSDP=6.60D-06 MaxDP=3.55D-04 DE=-1.68D-07 OVMax= 1.44D-04

 Cycle  10  Pass 1  IDiag  1:
 RMSU=  2.58D-06    CP:  4.80D-01  8.57D-01  9.60D-01  6.02D-01  1.25D+00
                    CP:  1.25D+00  1.39D+00  1.27D+00  1.82D+00
 E= -436.705187960513     Delta-E=       -0.000000026346 Rises=F Damp=F
 DIIS: error= 4.10D-06 at cycle  10 NSaved=  10.
 NSaved=10 IEnMin=10 EnMin= -436.705187960513     IErMin=10 ErrMin= 4.10D-06
 ErrMax= 4.10D-06  0.00D+00 EMaxC= 1.00D-01 BMatC= 1.18D-09 BMatP= 1.08D-08
 IDIUse=1 WtCom= 1.00D+00 WtEn= 0.00D+00
 Coeff-Com: -0.111D-07-0.181D-04 0.224D-03 0.623D-03 0.558D-02 0.354D-02
 Coeff-Com: -0.727D-01-0.816D-02 0.309D+00 0.762D+00
 Coeff:     -0.111D-07-0.181D-04 0.224D-03 0.623D-03 0.558D-02 0.354D-02
 Coeff:     -0.727D-01-0.816D-02 0.309D+00 0.762D+00
 Gap=     0.321 Goal=   None    Shift=    0.000
 RMSDP=1.61D-06 MaxDP=6.25D-05 DE=-2.63D-08 OVMax= 2.07D-05

 Cycle  11  Pass 1  IDiag  1:
 RMSU=  3.57D-07    CP:  4.80D-01  8.57D-01  9.60D-01  6.02D-01  1.25D+00
                    CP:  1.25D+00  1.38D+00  1.30D+00  2.09D+00  1.28D+00
 E= -436.705187962316     Delta-E=       -0.000000001803 Rises=F Damp=F
 DIIS: error= 2.80D-06 at cycle  11 NSaved=  11.
 NSaved=11 IEnMin=11 EnMin= -436.705187962316     IErMin=11 ErrMin= 2.80D-06
 ErrMax= 2.80D-06  0.00D+00 EMaxC= 1.00D-01 BMatC= 2.49D-10 BMatP= 1.18D-09
 IDIUse=1 WtCom= 1.00D+00 WtEn= 0.00D+00
 Coeff-Com: -0.175D-05-0.277D-04-0.702D-04 0.629D-04 0.144D-02 0.320D-02
 Coeff-Com: -0.102D-01-0.236D-01-0.379D-01 0.322D+00 0.745D+00
 Coeff:     -0.175D-05-0.277D-04-0.702D-04 0.629D-04 0.144D-02 0.320D-02
 Coeff:     -0.102D-01-0.236D-01-0.379D-01 0.322D+00 0.745D+00
 Gap=     0.321 Goal=   None    Shift=    0.000
 RMSDP=9.64D-07 MaxDP=3.90D-05 DE=-1.80D-09 OVMax= 1.50D-05

 Cycle  12  Pass 1  IDiag  1:
 RMSU=  1.89D-07    CP:  4.80D-01  8.57D-01  9.60D-01  6.02D-01  1.25D+00
                    CP:  1.25D+00  1.38D+00  1.32D+00  2.20D+00  1.42D+00
                    CP:  8.55D-01
 E= -436.705187962689     Delta-E=       -0.000000000373 Rises=F Damp=F
 DIIS: error= 1.44D-06 at cycle  12 NSaved=  12.
 NSaved=12 IEnMin=12 EnMin= -436.705187962689     IErMin=12 ErrMin= 1.44D-06
 ErrMax= 1.44D-06  0.00D+00 EMaxC= 1.00D-01 BMatC= 7.86D-11 BMatP= 2.49D-10
 IDIUse=1 WtCom= 1.00D+00 WtEn= 0.00D+00
 Coeff-Com: -0.103D-05-0.124D-04-0.582D-04-0.258D-04 0.239D-03 0.137D-02
 Coeff-Com:  0.105D-02-0.104D-01-0.484D-01 0.827D-01 0.417D+00 0.556D+00
 Coeff:     -0.103D-05-0.124D-04-0.582D-04-0.258D-04 0.239D-03 0.137D-02
 Coeff:      0.105D-02-0.104D-01-0.484D-01 0.827D-01 0.417D+00 0.556D+00
 Gap=     0.321 Goal=   None    Shift=    0.000
 RMSDP=2.15D-07 MaxDP=1.42D-05 DE=-3.73D-10 OVMax= 4.35D-06

 Cycle  13  Pass 1  IDiag  1:
 RMSU=  8.69D-08    CP:  4.80D-01  8.57D-01  9.60D-01  6.02D-01  1.25D+00
                    CP:  1.25D+00  1.38D+00  1.32D+00  2.22D+00  1.44D+00
                    CP:  1.03D+00  8.38D-01
 E= -436.705187962755     Delta-E=       -0.000000000067 Rises=F Damp=F
 DIIS: error= 6.00D-07 at cycle  13 NSaved=  13.
 NSaved=13 IEnMin=13 EnMin= -436.705187962755     IErMin=13 ErrMin= 6.00D-07
 ErrMax= 6.00D-07  0.00D+00 EMaxC= 1.00D-01 BMatC= 1.92D-11 BMatP= 7.86D-11
 IDIUse=1 WtCom= 1.00D+00 WtEn= 0.00D+00
 Coeff-Com: -0.244D-06 0.134D-05-0.157D-04-0.395D-04-0.336D-03-0.167D-03
 Coeff-Com:  0.413D-02 0.199D-02-0.192D-01-0.747D-01 0.931D-02 0.359D+00
 Coeff-Com:  0.720D+00
 Coeff:     -0.244D-06 0.134D-05-0.157D-04-0.395D-04-0.336D-03-0.167D-03
 Coeff:      0.413D-02 0.199D-02-0.192D-01-0.747D-01 0.931D-02 0.359D+00
 Coeff:      0.720D+00
 Gap=     0.321 Goal=   None    Shift=    0.000
 RMSDP=1.39D-07 MaxDP=1.05D-05 DE=-6.65D-11 OVMax= 2.71D-06

 Cycle  14  Pass 1  IDiag  1:
 RMSU=  3.97D-08    CP:  4.80D-01  8.57D-01  9.60D-01  6.02D-01  1.25D+00
                    CP:  1.25D+00  1.38D+00  1.32D+00  2.23D+00  1.45D+00
                    CP:  1.07D+00  1.02D+00  8.71D-01
 E= -436.705187962781     Delta-E=       -0.000000000025 Rises=F Damp=F
 DIIS: error= 8.76D-08 at cycle  14 NSaved=  14.
 NSaved=14 IEnMin=14 EnMin= -436.705187962781     IErMin=14 ErrMin= 8.76D-08
 ErrMax= 8.76D-08  0.00D+00 EMaxC= 1.00D-01 BMatC= 4.77D-13 BMatP= 1.92D-11
 IDIUse=1 WtCom= 1.00D+00 WtEn= 0.00D+00
 Coeff-Com:  0.573D-07 0.102D-05 0.339D-05-0.518D-06-0.145D-04-0.141D-03
 Coeff-Com: -0.625D-04 0.131D-02 0.469D-02-0.127D-01-0.426D-01-0.585D-01
 Coeff-Com: -0.226D-01 0.113D+01
 Coeff:      0.573D-07 0.102D-05 0.339D-05-0.518D-06-0.145D-04-0.141D-03
 Coeff:     -0.625D-04 0.131D-02 0.469D-02-0.127D-01-0.426D-01-0.585D-01
 Coeff:     -0.226D-01 0.113D+01
 Gap=     0.321 Goal=   None    Shift=    0.000
 RMSDP=6.08D-08 MaxDP=2.61D-06 DE=-2.54D-11 OVMax= 1.06D-06

 Cycle  15  Pass 1  IDiag  1:
 RMSU=  1.06D-08    CP:  4.80D-01  8.57D-01  9.60D-01  6.02D-01  1.25D+00
                    CP:  1.25D+00  1.38D+00  1.32D+00  2.23D+00  1.45D+00
                    CP:  1.08D+00  1.05D+00  9.57D-01  1.21D+00
 E= -436.705187962782     Delta-E=       -0.000000000001 Rises=F Damp=F
 DIIS: error= 4.20D-08 at cycle  15 NSaved=  15.
 NSaved=15 IEnMin=15 EnMin= -436.705187962782     IErMin=15 ErrMin= 4.20D-08
 ErrMax= 4.20D-08  0.00D+00 EMaxC= 1.00D-01 BMatC= 5.81D-14 BMatP= 4.77D-13
 IDIUse=1 WtCom= 1.00D+00 WtEn= 0.00D+00
 Coeff-Com:  0.388D-07 0.212D-06 0.215D-05 0.280D-05 0.196D-04-0.329D-04
 Coeff-Com: -0.337D-03 0.247D-03 0.267D-02 0.292D-02-0.106D-01-0.378D-01
 Coeff-Com: -0.515D-01 0.323D+00 0.771D+00
 Coeff:      0.388D-07 0.212D-06 0.215D-05 0.280D-05 0.196D-04-0.329D-04
 Coeff:     -0.337D-03 0.247D-03 0.267D-02 0.292D-02-0.106D-01-0.378D-01
 Coeff:     -0.515D-01 0.323D+00 0.771D+00
 Gap=     0.321 Goal=   None    Shift=    0.000
 RMSDP=8.85D-09 MaxDP=3.68D-07 DE=-1.02D-12 OVMax= 2.31D-07

 SCF Done:  E(RwB97XD) =  -436.705187963     A.U. after   15 cycles
            NFock= 15  Conv=0.89D-08     -V/T= 2.0041
 KE= 4.349213769927D+02 PE=-1.841534125546D+03 EE= 5.591128137426D+02
 Leave Link  502 at Tue May 23 13:38:00 2023, MaxMem=  1342177280 cpu:             268.6 elap:             134.4
 (Enter /software/gaussian/g16-c01/avx2/g16/l601.exe)
 Copying SCF densities to generalized density rwf, IOpCl= 0 IROHF=0.

 **********************************************************************

            Population analysis using the SCF Density.

 **********************************************************************

 Orbital symmetries:
       Occupied  (A) (A) (A) (A) (A) (A) (A) (A) (A) (A) (A) (A)
                 (A) (A) (A) (A) (A) (A) (A) (A) (A) (A) (A) (A)
                 (A) (A) (A) (A) (A) (A) (A) (A)
       Virtual   (A) (A) (A) (A) (A) (A) (A) (A) (A) (A) (A) (A)
                 (A) (A) (A) (A) (A) (A) (A) (A) (A) (A) (A) (A)
                 (A) (A) (A) (A) (A) (A) (A) (A) (A) (A) (A) (A)
                 (A) (A) (A) (A) (A) (A) (A) (A) (A) (A) (A) (A)
                 (A) (A) (A) (A) (A) (A) (A) (A) (A) (A) (A) (A)
                 (A) (A) (A) (A) (A) (A) (A) (A) (A) (A) (A) (A)
                 (A) (A) (A) (A) (A) (A) (A) (A) (A) (A) (A) (A)
                 (A) (A) (A) (A) (A) (A) (A) (A) (A) (A) (A) (A)
                 (A) (A) (A) (A) (A) (A) (A) (A) (A) (A) (A) (A)
                 (A) (A) (A) (A) (A) (A) (A) (A) (A) (A) (A) (A)
                 (A) (A) (A) (A) (A) (A) (A) (A) (A) (A) (A) (A)
                 (A) (A) (A) (A) (A) (A) (A) (A) (A) (A) (A) (A)
                 (A) (A) (A) (A) (A) (A) (A) (A) (A) (A) (A) (A)
                 (A) (A) (A) (A) (A) (A) (A) (A) (A) (A) (A) (A)
                 (A) (A) (A) (A) (A) (A) (A) (A) (A) (A) (A) (A)
                 (A)
 The electronic state is 1-A.
 Alpha  occ. eigenvalues --  -19.29294 -19.29291 -14.68619 -10.36738 -10.32964
 Alpha  occ. eigenvalues --  -10.32962 -10.32776 -10.32434 -10.32428  -1.32731
 Alpha  occ. eigenvalues --   -1.15409  -1.00797  -0.92319  -0.88668  -0.81451
 Alpha  occ. eigenvalues --   -0.74079  -0.70501  -0.66749  -0.62936  -0.61504
 Alpha  occ. eigenvalues --   -0.61241  -0.57024  -0.56624  -0.54732  -0.49288
 Alpha  occ. eigenvalues --   -0.48393  -0.46579  -0.40933  -0.40277  -0.39023
 Alpha  occ. eigenvalues --   -0.37001  -0.36622
 Alpha virt. eigenvalues --   -0.04474   0.02422   0.05181   0.05320   0.06997
 Alpha virt. eigenvalues --    0.07676   0.09380   0.09908   0.10736   0.11616
 Alpha virt. eigenvalues --    0.13588   0.14085   0.14171   0.15989   0.17973
 Alpha virt. eigenvalues --    0.18156   0.18535   0.18718   0.18739   0.19909
 Alpha virt. eigenvalues --    0.20070   0.20223   0.23346   0.23668   0.23908
 Alpha virt. eigenvalues --    0.24212   0.24223   0.25000   0.25425   0.25482
 Alpha virt. eigenvalues --    0.25997   0.27054   0.27314   0.28209   0.30250
 Alpha virt. eigenvalues --    0.31053   0.31741   0.32420   0.32753   0.33539
 Alpha virt. eigenvalues --    0.35161   0.36548   0.36838   0.37441   0.38519
 Alpha virt. eigenvalues --    0.39516   0.41838   0.45073   0.46471   0.47745
 Alpha virt. eigenvalues --    0.50287   0.51806   0.56022   0.56968   0.57678
 Alpha virt. eigenvalues --    0.57729   0.60158   0.61654   0.62346   0.63162
 Alpha virt. eigenvalues --    0.65758   0.66948   0.67846   0.68383   0.70399
 Alpha virt. eigenvalues --    0.73370   0.74008   0.75831   0.77401   0.79225
 Alpha virt. eigenvalues --    0.80653   0.85203   0.88058   0.88712   0.89555
 Alpha virt. eigenvalues --    0.91082   0.91742   0.93494   0.94087   0.96052
 Alpha virt. eigenvalues --    0.97765   1.03150   1.05347   1.07611   1.08405
 Alpha virt. eigenvalues --    1.09464   1.14115   1.17448   1.18516   1.24366
 Alpha virt. eigenvalues --    1.24777   1.25584   1.26801   1.27435   1.27985
 Alpha virt. eigenvalues --    1.30392   1.33156   1.38052   1.39818   1.46724
 Alpha virt. eigenvalues --    1.56276   1.58054   1.58918   1.61815   1.75316
 Alpha virt. eigenvalues --    1.75697   1.77195   1.78099   1.83448   1.84220
 Alpha virt. eigenvalues --    1.88604   1.88800   1.92520   1.96894   1.97653
 Alpha virt. eigenvalues --    1.99287   2.03948   2.05444   2.08550   2.17989
 Alpha virt. eigenvalues --    2.23213   2.23941   2.31409   2.33250   2.39321
 Alpha virt. eigenvalues --    2.40867   2.43785   2.46091   2.48587   2.57891
 Alpha virt. eigenvalues --    2.63099   2.70911   2.73432   2.82309   2.83458
 Alpha virt. eigenvalues --    2.84566   2.87650   2.90218   2.92326   2.95570
 Alpha virt. eigenvalues --    2.96154   2.96305   2.97596   3.13225   3.17981
 Alpha virt. eigenvalues --    3.24147   3.31621   3.32230   3.36476   3.38512
 Alpha virt. eigenvalues --    3.39336   3.40328   3.40935   3.50600   3.60261
 Alpha virt. eigenvalues --    3.70284   3.70681   3.73252   3.75737   3.85534
 Alpha virt. eigenvalues --    3.89846   4.08606   4.09652   4.59280   4.77644
 Alpha virt. eigenvalues --    4.85080   5.08485   5.11482   5.19813   5.24444
 Alpha virt. eigenvalues --    5.79397   6.30131  23.42442  23.94087  23.95358
 Alpha virt. eigenvalues --   24.12816  24.14299  24.24277  35.48150  50.01359
 Alpha virt. eigenvalues --   50.10416
          Condensed to atoms (all electrons):
               1          2          3          4          5          6
     1  C    8.000662  -1.453947  -0.099336  -1.223941  -0.051410   0.288160
     2  C   -1.453947  11.106171  -1.223862  -2.074469   0.383493  -0.013246
     3  C   -0.099336  -1.223862  11.246505  -1.222796  -1.095836   0.035460
     4  C   -1.223941  -2.074469  -1.222796  11.105246   0.383537   0.026474
     5  C   -0.051410   0.383493  -1.095836   0.383537   6.304585   0.022103
     6  H    0.288160  -0.013246   0.035460   0.026474   0.022103   0.413371
     7  H    0.039699   0.246988   0.111165  -0.032144  -0.015941  -0.002961
     8  H    0.007770  -0.032152   0.111147   0.246997  -0.015940   0.000016
     9  H    0.041265  -0.039654   0.028872  -0.039656   0.301746  -0.004422
    10  N   -0.044846   0.158385  -0.680577   0.158395   0.006245  -0.001727
    11  O    0.017976  -0.046023  -0.334590   0.009869  -0.028425  -0.000044
    12  O    0.271524   0.009906  -0.334632  -0.046001  -0.028418   0.000061
    13  C    0.673982  -1.224126  -0.099111  -1.454336  -0.051450  -0.024679
    14  H   -0.024681   0.026478   0.035451  -0.013223   0.022088  -0.000116
               7          8          9         10         11         12
     1  C    0.039699   0.007770   0.041265  -0.044846   0.017976   0.271524
     2  C    0.246988  -0.032152  -0.039654   0.158385  -0.046023   0.009906
     3  C    0.111165   0.111147   0.028872  -0.680577  -0.334590  -0.334632
     4  C   -0.032144   0.246997  -0.039656   0.158395   0.009869  -0.046001
     5  C   -0.015941  -0.015940   0.301746   0.006245  -0.028425  -0.028418
     6  H   -0.002961   0.000016  -0.004422  -0.001727  -0.000044   0.000061
     7  H    0.371160  -0.000063  -0.000109  -0.030492  -0.001697   0.015715
     8  H   -0.000063   0.371157  -0.000109  -0.030491   0.015714  -0.001698
     9  H   -0.000109  -0.000109   0.416941   0.000152  -0.000001  -0.000001
    10  N   -0.030492  -0.030491   0.000152   7.133707   0.259685   0.259700
    11  O   -0.001697   0.015714  -0.000001   0.259685   7.899841  -0.027114
    12  O    0.015715  -0.001698  -0.000001   0.259700  -0.027114   7.899823
    13  C    0.007769   0.039713   0.041252  -0.044866   0.271554   0.017971
    14  H    0.000016  -0.002961  -0.004422  -0.001727   0.000061  -0.000044
              13         14
     1  C    0.673982  -0.024681
     2  C   -1.224126   0.026478
     3  C   -0.099111   0.035451
     4  C   -1.454336  -0.013223
     5  C   -0.051450   0.022088
     6  H   -0.024679  -0.000116
     7  H    0.007769   0.000016
     8  H    0.039713  -0.002961
     9  H    0.041252  -0.004422
    10  N   -0.044866  -0.001727
    11  O    0.271554   0.000061
    12  O    0.017971  -0.000044
    13  C    8.001062   0.288159
    14  H    0.288159   0.413370
 Mulliken charges:
               1
     1  C   -0.442876
     2  C    0.176058
     3  C   -0.477859
     4  C    0.176049
     5  C   -0.136377
     6  H    0.261549
     7  H    0.290896
     8  H    0.290898
     9  H    0.258145
    10  N   -0.141543
    11  O   -0.036804
    12  O   -0.036792
    13  C   -0.442894
    14  H    0.261550
 Sum of Mulliken charges =  -0.00000
 Mulliken charges with hydrogens summed into heavy atoms:
               1
     1  C   -0.181327
     2  C    0.466954
     3  C   -0.477859
     4  C    0.466947
     5  C    0.121768
    10  N   -0.141543
    11  O   -0.036804
    12  O   -0.036792
    13  C   -0.181344
 Electronic spatial extent (au):  <R**2>=           1125.5881
 Charge=             -0.0000 electrons
 Dipole moment (field-independent basis, Debye):
    X=             -5.1371    Y=             -0.0001    Z=              0.0004  Tot=              5.1371
 Quadrupole moment (field-independent basis, Debye-Ang):
   XX=            -55.6596   YY=            -47.3558   ZZ=            -53.5550
   XY=             -0.0003   XZ=             -0.0010   YZ=              0.0008
 Traceless Quadrupole moment (field-independent basis, Debye-Ang):
   XX=             -3.4695   YY=              4.8343   ZZ=             -1.3648
   XY=             -0.0003   XZ=             -0.0010   YZ=              0.0008
 Octapole moment (field-independent basis, Debye-Ang**2):
  XXX=            -36.1055  YYY=             -0.0011  ZZZ=              0.0008  XYY=             -9.0988
  XXY=              0.0009  XXZ=              0.0039  XZZ=             13.0046  YZZ=              0.0000
  YYZ=              0.0014  XYZ=              0.0011
 Hexadecapole moment (field-independent basis, Debye-Ang**3):
 XXXX=          -1008.0190 YYYY=           -347.4281 ZZZZ=            -56.3752 XXXY=             -0.0043
 XXXZ=             -0.0147 YYYX=              0.0005 YYYZ=              0.0015 ZZZX=             -0.0013
 ZZZY=             -0.0014 XXYY=           -231.8516 XXZZ=           -185.6592 YYZZ=            -79.8527
 XXYZ=              0.0024 YYXZ=             -0.0025 ZZXY=             -0.0002
 N-N= 4.107947468480D+02 E-N=-1.841534125374D+03  KE= 4.349213769927D+02
 No NMR shielding tensors so no spin-rotation constants.
 Leave Link  601 at Tue May 23 13:38:04 2023, MaxMem=  1342177280 cpu:               7.5 elap:               3.8
 (Enter /software/gaussian/g16-c01/avx2/g16/l604.exe)
 Evaluate density.
 Using the total density.
 Monte-Carlo method of calculating molar volume:
 based on  0.001 e/bohr**3 density envelope.
 Number of points per bohr**3 =   20 CutOff= 1.00D-04
 Using the SCF density.
 There are       335 points.  Will hold       335 in memory.
 LenV=  1342054026 MDV=  1342177280.
 Box volume = 4727.022 fraction occupied=0.197
 Integrated density= 3.7456516161589924D+01 error=-2.6543483838410076D+01
 Molar volume =  931.294 bohr**3/mol ( 83.108 cm**3/mol)
 Recommended a0 for SCRF calculation =  4.03 angstrom (  7.61 bohr)
 Leave Link  604 at Tue May 23 13:38:06 2023, MaxMem=  1342177280 cpu:               1.9 elap:               0.9
 (Enter /software/gaussian/g16-c01/avx2/g16/l9999.exe)
 Unable to Open any file for archive entry.
 1\1\GINC-BHD0001\SP\RwB97XD\6-311+G(d)\C6H5N1O2\BWEIGHT\23-May-2023\0\
 \#P wB97XD/6-311+G* volume\\TitleMe\\0,1\C,0,-1.82075,1.21221,0.00007\
 C,0,-0.42782,1.22011,0.00011\C,0,0.24287,0.00002,-0.00001\C,0,-0.42786
 ,-1.22012,0.00003\C,0,-2.51579,0.00002,0.\H,0,-2.36155,2.15093,-0.0000
 2\H,0,0.13769,2.14227,0.00006\H,0,0.13768,-2.14225,-0.00012\H,0,-3.599
 85,-0.00001,-0.00023\N,0,1.7052,0.,-0.00004\O,0,2.29572,-1.10489,0.000
 11\O,0,2.29576,1.10486,-0.00013\C,0,-1.82075,-1.2122,-0.00006\H,0,-2.3
 6162,-2.15087,-0.00013\\Version=ES64L-G16RevC.01\State=1-A\HF=-436.705
 188\RMSD=8.853e-09\Dipole=-2.0210886,0.0000476,-0.0001543\Quadrupole=-
 2.579478,3.5941876,-1.0147096,0.0001958,0.0007295,0.0006157\PG=C01 [X(
 C6H5N1O2)]\\@
 The archive entry for this job was punched.


 GOD DOES NOT PLAY WITH DICE.
               -- A. EINSTEIN
 Job cpu time:       0 days  0 hours  5 minutes  9.3 seconds.
 Elapsed time:       0 days  0 hours  2 minutes 35.0 seconds.
 File lengths (MBytes):  RWF=    272 Int=      0 D2E=      0 Chk=     32 Scr=     32
 Normal termination of Gaussian 16 at Tue May 23 13:38:07 2023.
