 Entering Gaussian System, Link 0=g16
 Initial command:
 /software/gaussian/g16-c01/sse4/g16/l1.exe "/local_scratch/24657471/Gau-22154.inp" -scrdir="/local_scratch/24657471/"
 Entering Link 1 = /software/gaussian/g16-c01/sse4/g16/l1.exe PID=     22157.
  
 Copyright (c) 1988-2019, Gaussian, Inc.  All Rights Reserved.
  
 This is part of the Gaussian(R) 16 program.  It is based on
 the Gaussian(R) 09 system (copyright 2009, Gaussian, Inc.),
 the Gaussian(R) 03 system (copyright 2003, Gaussian, Inc.),
 the Gaussian(R) 98 system (copyright 1998, Gaussian, Inc.),
 the Gaussian(R) 94 system (copyright 1995, Gaussian, Inc.),
 the Gaussian 92(TM) system (copyright 1992, Gaussian, Inc.),
 the Gaussian 90(TM) system (copyright 1990, Gaussian, Inc.),
 the Gaussian 88(TM) system (copyright 1988, Gaussian, Inc.),
 the Gaussian 86(TM) system (copyright 1986, Carnegie Mellon
 University), and the Gaussian 82(TM) system (copyright 1983,
 Carnegie Mellon University). Gaussian is a federally registered
 trademark of Gaussian, Inc.
  
 This software contains proprietary and confidential information,
 including trade secrets, belonging to Gaussian, Inc.
  
 This software is provided under written license and may be
 used, copied, transmitted, or stored only in accord with that
 written license.
  
 The following legend is applicable only to US Government
 contracts under FAR:
  
                    RESTRICTED RIGHTS LEGEND
  
 Use, reproduction and disclosure by the US Government is
 subject to restrictions as set forth in subparagraphs (a)
 and (c) of the Commercial Computer Software - Restricted
 Rights clause in FAR 52.227-19.
  
 Gaussian, Inc.
 340 Quinnipiac St., Bldg. 40, Wallingford CT 06492
  
  
 ---------------------------------------------------------------
 Warning -- This program may not be used in any manner that
 competes with the business of Gaussian, Inc. or will provide
 assistance to any competitor of Gaussian, Inc.  The licensee
 of this program is prohibited from giving any competitor of
 Gaussian, Inc. access to this program.  By using this program,
 the user acknowledges that Gaussian, Inc. is engaged in the
 business of creating and licensing software in the field of
 computational chemistry and represents and warrants to the
 licensee that it is not a competitor of Gaussian, Inc. and that
 it will not use this program in any manner prohibited above.
 ---------------------------------------------------------------
  

 Cite this work as:
 Gaussian 16, Revision C.01,
 M. J. Frisch, G. W. Trucks, H. B. Schlegel, G. E. Scuseria, 
 M. A. Robb, J. R. Cheeseman, G. Scalmani, V. Barone, 
 G. A. Petersson, H. Nakatsuji, X. Li, M. Caricato, A. V. Marenich, 
 J. Bloino, B. G. Janesko, R. Gomperts, B. Mennucci, H. P. Hratchian, 
 J. V. Ortiz, A. F. Izmaylov, J. L. Sonnenberg, D. Williams-Young, 
 F. Ding, F. Lipparini, F. Egidi, J. Goings, B. Peng, A. Petrone, 
 T. Henderson, D. Ranasinghe, V. G. Zakrzewski, J. Gao, N. Rega, 
 G. Zheng, W. Liang, M. Hada, M. Ehara, K. Toyota, R. Fukuda, 
 J. Hasegawa, M. Ishida, T. Nakajima, Y. Honda, O. Kitao, H. Nakai, 
 T. Vreven, K. Throssell, J. A. Montgomery, Jr., J. E. Peralta, 
 F. Ogliaro, M. J. Bearpark, J. J. Heyd, E. N. Brothers, K. N. Kudin, 
 V. N. Staroverov, T. A. Keith, R. Kobayashi, J. Normand, 
 K. Raghavachari, A. P. Rendell, J. C. Burant, S. S. Iyengar, 
 J. Tomasi, M. Cossi, J. M. Millam, M. Klene, C. Adamo, R. Cammi, 
 J. W. Ochterski, R. L. Martin, K. Morokuma, O. Farkas, 
 J. B. Foresman, and D. J. Fox, Gaussian, Inc., Wallingford CT, 2019.
 
 ******************************************
 Gaussian 16:  ES64L-G16RevC.01  3-Jul-2019
                 1-May-2024 
 ******************************************
 %chk=geometry.chk
 %mem=9GB
 %nprocshared=12
 Will use up to   12 processors via shared memory.
 ----------------------------------------
 #P wB97XD/6-311+G* NoSymm #P Field=Y-291
 ----------------------------------------
 1/38=1,172=1/1;
 2/12=2,15=1,17=6,18=5,40=1/2;
 3/5=4,6=6,7=11,11=2,14=2,15=-291,25=1,30=1,74=-58/1,2,3;
 4//1;
 5/5=2,38=5/2;
 6/7=2,8=2,9=2,10=2,28=1/1;
 99/5=1,9=1/99;
 Leave Link    1 at Wed May  1 14:27:54 2024, MaxMem=  1207959552 cpu:               2.7 elap:               3.1
 (Enter /software/gaussian/g16-c01/sse4/g16/l101.exe)
 -------
 TitleMe
 -------
 Symbolic Z-matrix:
 Charge =  1 Multiplicity = 1
 C                     0.0295    1.3397    0.0682 
 C                     1.4348    1.2867    0.0064 
 C                     2.1118    0.0511   -0.0054 
 C                     1.4451   -1.1372    0.0312 
 C                    -0.6879    0.1682    0.11 
 H                    -0.4713    2.2984    0.0781 
 H                     2.0273    2.1965   -0.0322 
 H                     1.9897   -2.0764    0.0232 
 H                    -1.7716    0.1804    0.1582 
 N                     3.5864    0.051    -0.0675 
 O                     4.1471   -1.0597   -0.0881 
 O                     4.145     1.1639   -0.0901 
 C                    -0.0236   -1.1458    0.0835 
 H                    -0.4367   -1.8725    0.7889 
 Br                   -0.5359   -1.8697   -1.7408 
 
 ITRead=  0  0  0  0  0  0  0  0  0  0  0  0  0  0  0
 MicOpt= -1 -1 -1 -1 -1 -1 -1 -1 -1 -1 -1 -1 -1 -1 -1
 NAtoms=     15 NQM=       15 NQMF=       0 NMMI=      0 NMMIF=      0
                NMic=       0 NMicF=      0.
                    Isotopes and Nuclear Properties:
 (Nuclear quadrupole moments (NQMom) in fm**2, nuclear magnetic moments (NMagM)
  in nuclear magnetons)

  Atom         1           2           3           4           5           6           7           8           9          10
 IAtWgt=          12          12          12          12          12           1           1           1           1          14
 AtmWgt=  12.0000000  12.0000000  12.0000000  12.0000000  12.0000000   1.0078250   1.0078250   1.0078250   1.0078250  14.0030740
 NucSpn=           0           0           0           0           0           1           1           1           1           2
 AtZEff=  -0.0000000  -0.0000000  -0.0000000  -0.0000000  -0.0000000  -0.0000000  -0.0000000  -0.0000000  -0.0000000  -0.0000000
 NQMom=    0.0000000   0.0000000   0.0000000   0.0000000   0.0000000   0.0000000   0.0000000   0.0000000   0.0000000   2.0440000
 NMagM=    0.0000000   0.0000000   0.0000000   0.0000000   0.0000000   2.7928460   2.7928460   2.7928460   2.7928460   0.4037610
 AtZNuc=   6.0000000   6.0000000   6.0000000   6.0000000   6.0000000   1.0000000   1.0000000   1.0000000   1.0000000   7.0000000

  Atom        11          12          13          14          15
 IAtWgt=          16          16          12           1          79
 AtmWgt=  15.9949146  15.9949146  12.0000000   1.0078250  78.9183361
 NucSpn=           0           0           0           1           3
 AtZEff=  -0.0000000  -0.0000000  -0.0000000  -0.0000000  -0.0000000
 NQMom=    0.0000000   0.0000000   0.0000000   0.0000000  31.3000000
 NMagM=    0.0000000   0.0000000   0.0000000   2.7928460   2.1063990
 AtZNuc=   8.0000000   8.0000000   6.0000000   1.0000000  35.0000000
 Leave Link  101 at Wed May  1 14:27:57 2024, MaxMem=  1207959552 cpu:               3.0 elap:               3.3
 (Enter /software/gaussian/g16-c01/sse4/g16/l202.exe)
                          Input orientation:                          
 ---------------------------------------------------------------------
 Center     Atomic      Atomic             Coordinates (Angstroms)
 Number     Number       Type             X           Y           Z
 ---------------------------------------------------------------------
      1          6           0        0.029500    1.339700    0.068200
      2          6           0        1.434800    1.286700    0.006400
      3          6           0        2.111800    0.051100   -0.005400
      4          6           0        1.445100   -1.137200    0.031200
      5          6           0       -0.687900    0.168200    0.110000
      6          1           0       -0.471300    2.298400    0.078100
      7          1           0        2.027300    2.196500   -0.032200
      8          1           0        1.989700   -2.076400    0.023200
      9          1           0       -1.771600    0.180400    0.158200
     10          7           0        3.586400    0.051000   -0.067500
     11          8           0        4.147100   -1.059700   -0.088100
     12          8           0        4.145000    1.163900   -0.090100
     13          6           0       -0.023600   -1.145800    0.083500
     14          1           0       -0.436700   -1.872500    0.788900
     15         35           0       -0.535900   -1.869700   -1.740800
 ---------------------------------------------------------------------
                    Distance matrix (angstroms):
                    1          2          3          4          5
     1  C    0.000000
     2  C    1.407656   0.000000
     3  C    2.449874   1.408963   0.000000
     4  C    2.853126   2.424049   1.363043   0.000000
     5  C    1.374344   2.401589   2.804523   2.501993   0.000000
     6  H    1.081667   2.159142   3.424870   3.934226   2.141421
     7  H    2.176095   1.086408   2.147231   3.384750   3.392128
     8  H    3.938800   3.408612   2.131193   1.085702   3.495040
     9  H    2.143837   3.395283   3.888995   3.478413   1.084840
    10  N    3.785591   2.482297   1.475907   2.450862   4.279589
    11  O    4.768247   3.587631   2.320164   2.705743   4.992415
    12  O    4.122294   2.714696   2.319353   3.549540   4.938459
    13  C    2.486114   2.837240   2.449573   1.469656   1.472614
    14  H    3.324903   3.754379   3.290289   2.157764   2.165286
    15  Br   3.727252   4.110867   3.702891   2.756973   2.757100
                    6          7          8          9         10
     6  H    0.000000
     7  H    2.503108   0.000000
     8  H    5.019802   4.273425   0.000000
     9  H    2.486588   4.304945   4.388479   0.000000
    10  N    4.640790   2.652397   2.661486   5.364313   0.000000
    11  O    5.712624   3.885809   2.387560   6.052233   1.244373
    12  O    4.756638   2.356750   3.893289   6.002923   1.245428
    13  C    3.473180   3.923079   2.218790   2.195425   3.806210
    14  H    4.231175   4.827242   2.552506   2.528663   4.540772
    15  Br   4.548146   5.101303   3.087568   3.055498   4.845862
                   11         12         13         14         15
    11  O    0.000000
    12  O    2.223602   0.000000
    13  C    4.175117   4.768865   0.000000
    14  H    4.737193   5.566358   1.093770   0.000000
    15  Br   5.031700   5.817075   2.028436   2.531646   0.000000
 Symmetry turned off by external request.
 Stoichiometry    C6H5BrNO2(1+)
 Framework group  C1[X(C6H5BrNO2)]
 Deg. of freedom    39
 Full point group                 C1      NOp   1
 Rotational constants (GHZ):           1.8252210           0.5518633           0.4576002
 Leave Link  202 at Wed May  1 14:27:59 2024, MaxMem=  1207959552 cpu:               1.2 elap:               1.2
 (Enter /software/gaussian/g16-c01/sse4/g16/l301.exe)
 Standard basis: 6-311+G(d) (5D, 7F)
 Ernie: Thresh=  0.10000D-02 Tol=  0.10000D-05 Strict=F.
 The following finite field(s) will be applied:
 An electric field of              0.0000 -0.0291  0.0000
   261 basis functions,   443 primitive gaussians,   273 cartesian basis functions
    49 alpha electrons       49 beta electrons
       nuclear repulsion energy       739.2122215416 Hartrees.
 IExCor= 4639 DFT=T Ex+Corr=wB97XD ExCW=0 ScaHFX=  1.000000
 ScaDFX=  1.000000  1.000000  1.000000  1.000000 ScalE2=  1.000000  1.000000
 IRadAn=      5 IRanWt=     -1 IRanGd=            0 ICorTp=0 IEmpDi=121
 HFx  wShort=  0.000000 wLong=  0.200000 cFull=  0.222036 cShort=  0.000000 cLong=  0.777964
 DFx  wShort=  0.000000 wLong=  0.200000 cFull=  0.000000 cShort=  0.000000 cLong=  1.000000
 NAtoms=   15 NActive=   15 NUniq=   15 SFac= 1.00D+00 NAtFMM=   60 NAOKFM=F Big=F
 Integral buffers will be    131072 words long.
 Raffenetti 2 integral format.
 Two-electron integral symmetry is turned off.
 R6Disp:  Grimme-D2 Dispersion energy=       -0.0077368520 Hartrees.
 Nuclear repulsion after empirical dispersion term =      739.2044846896 Hartrees.
 Leave Link  301 at Wed May  1 14:28:00 2024, MaxMem=  1207959552 cpu:               0.9 elap:               0.9
 (Enter /software/gaussian/g16-c01/sse4/g16/l302.exe)
 NPDir=0 NMtPBC=     1 NCelOv=     1 NCel=       1 NClECP=     1 NCelD=      1
         NCelK=      1 NCelE2=     1 NClLst=     1 CellRange=     0.0.
 One-electron integrals computed using PRISM.
 NBasis=   261 RedAO= T EigKep=  2.35D-06  NBF=   261
 NBsUse=   261 1.00D-06 EigRej= -1.00D+00 NBFU=   261
 Precomputing XC quadrature grid using
 IXCGrd= 4 IRadAn=           5 IRanWt=          -1 IRanGd=           0 AccXCQ= 0.00D+00.
 Generated NRdTot=       0 NPtTot=           0 NUsed=           0 NTot=          32
 NSgBfM=   273   273   273   273   273 MxSgAt=    15 MxSgA2=    15.
 Leave Link  302 at Wed May  1 14:28:22 2024, MaxMem=  1207959552 cpu:              22.2 elap:              22.2
 (Enter /software/gaussian/g16-c01/sse4/g16/l303.exe)
 DipDrv:  MaxL=1.
 The nuclear repulsion energy is now       742.5119916908 hartrees.
 Leave Link  303 at Wed May  1 14:28:25 2024, MaxMem=  1207959552 cpu:               3.2 elap:               3.2
 (Enter /software/gaussian/g16-c01/sse4/g16/l401.exe)
 ExpMin= 3.50D-02 ExpMax= 4.40D+05 ExpMxC= 1.51D+04 IAcc=3 IRadAn=         5 AccDes= 0.00D+00
 Harris functional with IExCor= 4639 and IRadAn=       5 diagonalized for initial guess.
 HarFok:  IExCor= 4639 AccDes= 0.00D+00 IRadAn=         5 IDoV= 1 UseB2=F ITyADJ=14
 ICtDFT=  3500011 ScaDFX=  1.000000  1.000000  1.000000  1.000000
 FoFCou: FMM=F IPFlag=           0 FMFlag=      100000 FMFlg1=           0
         NFxFlg=           0 DoJE=T BraDBF=F KetDBF=T FulRan=T
         wScrn=  0.000000 ICntrl=       500 IOpCl=  0 I1Cent=   200000004 NGrid=           0
         NMat0=    1 NMatS0=      1 NMatT0=    0 NMatD0=    1 NMtDS0=    0 NMtDT0=    0
 Symmetry not used in FoFCou.
 Harris En= -2970.94058914980    
 JPrj=0 DoOrth=F DoCkMO=F.
 Leave Link  401 at Wed May  1 14:28:56 2024, MaxMem=  1207959552 cpu:              30.9 elap:              30.9
 (Enter /software/gaussian/g16-c01/sse4/g16/l502.exe)
 Two-electron integral symmetry not used.
 Closed shell SCF:
 Using DIIS extrapolation, IDIIS=  1040.
 NGot=  1207959552 LenX=  1207804877 LenY=  1207729907
 Requested convergence on RMS density matrix=1.00D-08 within 128 cycles.
 Requested convergence on MAX density matrix=1.00D-06.
 Requested convergence on             energy=1.00D-06.
 No special actions if energy rises.
 Fock matrices will be formed incrementally for  20 cycles.

 Cycle   1  Pass 1  IDiag  1:
 FoFJK:  IHMeth= 1 ICntrl=       0 DoSepK=T KAlg= 0 I1Cent=           0 FoldK=F
 IRaf=         1 NMat=       1 IRICut=       1 DoRegI=T DoRafI=F ISym2E= 0 IDoP0=0 IntGTp=1.
 FoFCou: FMM=F IPFlag=           0 FMFlag=      100000 FMFlg1=           0
         NFxFlg=           0 DoJE=T BraDBF=F KetDBF=F FulRan=T
         wScrn=  0.000000 ICntrl=       500 IOpCl=  0 I1Cent=           0 NGrid=           0
         NMat0=    1 NMatS0=      1 NMatT0=    0 NMatD0=    1 NMtDS0=    0 NMtDT0=    0
 Symmetry not used in FoFCou.
 E= -3006.17117676681    
 DIIS: error= 3.17D-01 at cycle   1 NSaved=   1.
 NSaved= 1 IEnMin= 1 EnMin= -3006.17117676681     IErMin= 1 ErrMin= 3.17D-01
 ErrMax= 3.17D-01  0.00D+00 EMaxC= 1.00D-01 BMatC= 1.37D+01 BMatP= 1.37D+01
 IDIUse=3 WtCom= 0.00D+00 WtEn= 1.00D+00
 Coeff-Com:  0.100D+01
 Coeff-En:   0.100D+01
 Coeff:      0.100D+01
 Gap=     0.299 Goal=   None    Shift=    0.000
 GapD=    0.299 DampG=1.000 DampE=0.250 DampFc=0.2500 IDamp=-1.
 Damping current iteration by 2.50D-01
 RMSDP=3.63D+00 MaxDP=3.94D+02              OVMax= 9.24D-01

 Cycle   2  Pass 1  IDiag  1:
 RMSU=  4.44D-02    CP:  7.54D-01
 E= -3006.75109173801     Delta-E=       -0.579914971207 Rises=F Damp=T
 DIIS: error= 2.23D-01 at cycle   2 NSaved=   2.
 NSaved= 2 IEnMin= 2 EnMin= -3006.75109173801     IErMin= 2 ErrMin= 2.23D-01
 ErrMax= 2.23D-01  0.00D+00 EMaxC= 1.00D-01 BMatC= 5.92D+00 BMatP= 1.37D+01
 IDIUse=3 WtCom= 0.00D+00 WtEn= 1.00D+00
 Coeff-Com: -0.708D+00 0.171D+01
 Coeff-En:   0.403D+00 0.597D+00
 Coeff:      0.403D+00 0.597D+00
 Gap=    -0.515 Goal=   None    Shift=    0.000
 RMSDP=2.75D+00 MaxDP=3.05D+02 DE=-5.80D-01 OVMax= 9.81D-01

 Cycle   3  Pass 1  IDiag  1:
 RMSU=  4.36D-02    CP:  9.63D-03  1.08D+00
 E= -3007.80951311263     Delta-E=       -1.058421374614 Rises=F Damp=F
 DIIS: error= 1.21D-01 at cycle   3 NSaved=   3.
 NSaved= 3 IEnMin= 3 EnMin= -3007.80951311263     IErMin= 3 ErrMin= 1.21D-01
 ErrMax= 1.21D-01  0.00D+00 EMaxC= 1.00D-01 BMatC= 4.77D+00 BMatP= 5.92D+00
 IDIUse=3 WtCom= 0.00D+00 WtEn= 1.00D+00
 EnCoef did   100 forward-backward iterations
 Coeff-Com:  0.428D-02 0.455D+00 0.541D+00
 Coeff-En:   0.396D+00 0.770D-02 0.596D+00
 Coeff:      0.396D+00 0.770D-02 0.596D+00
 Gap=    -0.005 Goal=   None    Shift=    0.000
 RMSDP=3.56D-02 MaxDP=2.99D+00 DE=-1.06D+00 OVMax= 4.93D-01

 Cycle   4  Pass 1  IDiag  1:
 RMSU=  3.39D-02    CP:  1.02D-02  9.60D-01  7.88D-01
 E= -3009.23527656766     Delta-E=       -1.425763455037 Rises=F Damp=F
 DIIS: error= 1.13D-01 at cycle   4 NSaved=   4.
 NSaved= 4 IEnMin= 4 EnMin= -3009.23527656766     IErMin= 4 ErrMin= 1.13D-01
 ErrMax= 1.13D-01  0.00D+00 EMaxC= 1.00D-01 BMatC= 1.79D+00 BMatP= 4.77D+00
 IDIUse=3 WtCom= 0.00D+00 WtEn= 1.00D+00
 EnCoef did     5 forward-backward iterations
 Coeff-Com:  0.180D+00-0.789D-01 0.364D+00 0.535D+00
 Coeff-En:   0.463D-01 0.000D+00 0.342D+00 0.611D+00
 Coeff:      0.463D-01 0.000D+00 0.342D+00 0.611D+00
 Gap=     0.481 Goal=   None    Shift=    0.000
 RMSDP=7.75D-02 MaxDP=6.86D+00 DE=-1.43D+00 OVMax= 5.45D-01

 Cycle   5  Pass 1  IDiag  1:
 RMSU=  5.98D-02    CP:  2.02D-02  9.49D-01  1.53D+00  8.05D-01
 E= -3010.24637935427     Delta-E=       -1.011102786610 Rises=F Damp=F
 DIIS: error= 5.00D-02 at cycle   5 NSaved=   5.
 NSaved= 5 IEnMin= 5 EnMin= -3010.24637935427     IErMin= 5 ErrMin= 5.00D-02
 ErrMax= 5.00D-02  0.00D+00 EMaxC= 1.00D-01 BMatC= 4.54D-01 BMatP= 1.79D+00
 IDIUse=3 WtCom= 5.00D-01 WtEn= 5.00D-01
 Coeff-Com: -0.454D-01 0.597D-01 0.561D-01 0.310D+00 0.619D+00
 Coeff-En:   0.000D+00 0.000D+00 0.000D+00 0.219D+00 0.781D+00
 Coeff:     -0.227D-01 0.299D-01 0.280D-01 0.265D+00 0.700D+00
 Gap=     0.284 Goal=   None    Shift=    0.000
 RMSDP=6.71D-02 MaxDP=5.68D+00 DE=-1.01D+00 OVMax= 2.66D-01

 Cycle   6  Pass 1  IDiag  1:
 RMSU=  1.22D-02    CP:  9.34D-03  6.77D-01  8.30D-01  7.00D-01  3.15D-01
 E= -3010.53184009979     Delta-E=       -0.285460745521 Rises=F Damp=F
 DIIS: error= 2.53D-02 at cycle   6 NSaved=   6.
 NSaved= 6 IEnMin= 6 EnMin= -3010.53184009979     IErMin= 6 ErrMin= 2.53D-02
 ErrMax= 2.53D-02  0.00D+00 EMaxC= 1.00D-01 BMatC= 7.11D-02 BMatP= 4.54D-01
 IDIUse=3 WtCom= 7.47D-01 WtEn= 2.53D-01
 Coeff-Com: -0.339D-01 0.516D-01-0.646D-02 0.724D-02 0.294D+00 0.687D+00
 Coeff-En:   0.000D+00 0.000D+00 0.000D+00 0.000D+00 0.901D-01 0.910D+00
 Coeff:     -0.253D-01 0.386D-01-0.483D-02 0.541D-02 0.243D+00 0.743D+00
 Gap=     0.258 Goal=   None    Shift=    0.000
 RMSDP=3.94D-03 MaxDP=2.83D-01 DE=-2.85D-01 OVMax= 9.35D-02

 Cycle   7  Pass 1  IDiag  1:
 RMSU=  2.85D-03    CP:  8.84D-03  6.58D-01  8.20D-01  6.55D-01  3.14D-01
                    CP:  1.07D+00
 E= -3010.56793714189     Delta-E=       -0.036097042100 Rises=F Damp=F
 DIIS: error= 9.04D-03 at cycle   7 NSaved=   7.
 NSaved= 7 IEnMin= 7 EnMin= -3010.56793714189     IErMin= 7 ErrMin= 9.04D-03
 ErrMax= 9.04D-03  0.00D+00 EMaxC= 1.00D-01 BMatC= 1.29D-02 BMatP= 7.11D-02
 IDIUse=3 WtCom= 9.10D-01 WtEn= 9.04D-02
 Coeff-Com: -0.147D-01 0.225D-01-0.109D-01-0.186D-01 0.476D-01 0.382D+00
 Coeff-Com:  0.592D+00
 Coeff-En:   0.000D+00 0.000D+00 0.000D+00 0.000D+00 0.000D+00 0.162D+00
 Coeff-En:   0.838D+00
 Coeff:     -0.134D-01 0.205D-01-0.991D-02-0.169D-01 0.433D-01 0.362D+00
 Coeff:      0.614D+00
 Gap=     0.248 Goal=   None    Shift=    0.000
 RMSDP=3.26D-03 MaxDP=2.56D-01 DE=-3.61D-02 OVMax= 2.59D-02

 Cycle   8  Pass 1  IDiag  1:
 RMSU=  8.84D-04    CP:  8.38D-03  6.62D-01  7.90D-01  6.70D-01  2.79D-01
                    CP:  1.13D+00  1.02D+00
 E= -3010.57611470401     Delta-E=       -0.008177562112 Rises=F Damp=F
 DIIS: error= 2.06D-03 at cycle   8 NSaved=   8.
 NSaved= 8 IEnMin= 8 EnMin= -3010.57611470401     IErMin= 8 ErrMin= 2.06D-03
 ErrMax= 2.06D-03  0.00D+00 EMaxC= 1.00D-01 BMatC= 5.17D-04 BMatP= 1.29D-02
 IDIUse=3 WtCom= 9.79D-01 WtEn= 2.06D-02
 Coeff-Com: -0.323D-02 0.432D-02-0.215D-02-0.540D-02-0.155D-01 0.746D-01
 Coeff-Com:  0.270D+00 0.678D+00
 Coeff-En:   0.000D+00 0.000D+00 0.000D+00 0.000D+00 0.000D+00 0.000D+00
 Coeff-En:   0.000D+00 0.100D+01
 Coeff:     -0.317D-02 0.423D-02-0.211D-02-0.529D-02-0.152D-01 0.730D-01
 Coeff:      0.264D+00 0.684D+00
 Gap=     0.249 Goal=   None    Shift=    0.000
 RMSDP=2.67D-03 MaxDP=2.12D-01 DE=-8.18D-03 OVMax= 9.04D-03

 Cycle   9  Pass 1  IDiag  1:
 RMSU=  5.12D-04    CP:  8.00D-03  6.61D-01  7.68D-01  6.65D-01  2.48D-01
                    CP:  1.15D+00  1.19D+00  1.32D+00
 E= -3010.57656473365     Delta-E=       -0.000450029641 Rises=F Damp=F
 DIIS: error= 6.03D-04 at cycle   9 NSaved=   9.
 NSaved= 9 IEnMin= 9 EnMin= -3010.57656473365     IErMin= 9 ErrMin= 6.03D-04
 ErrMax= 6.03D-04  0.00D+00 EMaxC= 1.00D-01 BMatC= 6.06D-05 BMatP= 5.17D-04
 IDIUse=3 WtCom= 9.94D-01 WtEn= 6.03D-03
 Coeff-Com: -0.162D-03 0.685D-04 0.198D-03-0.696D-03-0.114D-01-0.127D-01
 Coeff-Com:  0.256D-01 0.296D+00 0.703D+00
 Coeff-En:   0.000D+00 0.000D+00 0.000D+00 0.000D+00 0.000D+00 0.000D+00
 Coeff-En:   0.000D+00 0.000D+00 0.100D+01
 Coeff:     -0.161D-03 0.681D-04 0.197D-03-0.692D-03-0.113D-01-0.126D-01
 Coeff:      0.255D-01 0.295D+00 0.704D+00
 Gap=     0.248 Goal=   None    Shift=    0.000
 RMSDP=8.74D-04 MaxDP=6.86D-02 DE=-4.50D-04 OVMax= 3.99D-03

 Cycle  10  Pass 1  IDiag  1:
 RMSU=  1.51D-04    CP:  7.88D-03  6.59D-01  7.60D-01  6.67D-01  2.38D-01
                    CP:  1.16D+00  1.26D+00  1.47D+00  1.00D+00
 E= -3010.57663167739     Delta-E=       -0.000066943742 Rises=F Damp=F
 DIIS: error= 1.31D-04 at cycle  10 NSaved=  10.
 NSaved=10 IEnMin=10 EnMin= -3010.57663167739     IErMin=10 ErrMin= 1.31D-04
 ErrMax= 1.31D-04  0.00D+00 EMaxC= 1.00D-01 BMatC= 4.85D-06 BMatP= 6.06D-05
 IDIUse=3 WtCom= 9.99D-01 WtEn= 1.31D-03
 Coeff-Com: -0.104D-03 0.112D-03 0.619D-04-0.146D-03-0.860D-03-0.107D-01
 Coeff-Com: -0.260D-01 0.253D-01 0.207D+00 0.805D+00
 Coeff-En:   0.000D+00 0.000D+00 0.000D+00 0.000D+00 0.000D+00 0.000D+00
 Coeff-En:   0.000D+00 0.000D+00 0.000D+00 0.100D+01
 Coeff:     -0.103D-03 0.112D-03 0.618D-04-0.146D-03-0.859D-03-0.106D-01
 Coeff:     -0.260D-01 0.252D-01 0.207D+00 0.805D+00
 Gap=     0.246 Goal=   None    Shift=    0.000
 RMSDP=3.97D-04 MaxDP=3.34D-02 DE=-6.69D-05 OVMax= 2.43D-03

 Cycle  11  Pass 1  IDiag  1:
 RMSU=  5.41D-05    CP:  7.82D-03  6.58D-01  7.56D-01  6.67D-01  2.34D-01
                    CP:  1.17D+00  1.28D+00  1.54D+00  1.05D+00  1.25D+00
 E= -3010.57664333338     Delta-E=       -0.000011655991 Rises=F Damp=F
 DIIS: error= 6.72D-05 at cycle  11 NSaved=  11.
 NSaved=11 IEnMin=11 EnMin= -3010.57664333338     IErMin=11 ErrMin= 6.72D-05
 ErrMax= 6.72D-05  0.00D+00 EMaxC= 1.00D-01 BMatC= 7.68D-07 BMatP= 4.85D-06
 IDIUse=1 WtCom= 1.00D+00 WtEn= 0.00D+00
 Coeff-Com:  0.181D-04-0.211D-04-0.513D-04 0.792D-04 0.104D-02-0.200D-02
 Coeff-Com: -0.908D-02-0.260D-01-0.595D-01 0.214D+00 0.881D+00
 Coeff:      0.181D-04-0.211D-04-0.513D-04 0.792D-04 0.104D-02-0.200D-02
 Coeff:     -0.908D-02-0.260D-01-0.595D-01 0.214D+00 0.881D+00
 Gap=     0.246 Goal=   None    Shift=    0.000
 RMSDP=1.52D-04 MaxDP=1.14D-02 DE=-1.17D-05 OVMax= 1.56D-03

 Cycle  12  Pass 1  IDiag  1:
 RMSU=  2.37D-05    CP:  7.80D-03  6.58D-01  7.55D-01  6.67D-01  2.32D-01
                    CP:  1.17D+00  1.29D+00  1.58D+00  1.07D+00  1.37D+00
                    CP:  1.29D+00
 E= -3010.57664612485     Delta-E=       -0.000002791465 Rises=F Damp=F
 DIIS: error= 3.08D-05 at cycle  12 NSaved=  12.
 NSaved=12 IEnMin=12 EnMin= -3010.57664612485     IErMin=12 ErrMin= 3.08D-05
 ErrMax= 3.08D-05  0.00D+00 EMaxC= 1.00D-01 BMatC= 1.05D-07 BMatP= 7.68D-07
 IDIUse=1 WtCom= 1.00D+00 WtEn= 0.00D+00
 Coeff-Com:  0.664D-05-0.164D-04-0.372D-04 0.436D-04 0.375D-03 0.143D-02
 Coeff-Com:  0.213D-02-0.882D-02-0.430D-01-0.587D-01 0.188D+00 0.918D+00
 Coeff:      0.664D-05-0.164D-04-0.372D-04 0.436D-04 0.375D-03 0.143D-02
 Coeff:      0.213D-02-0.882D-02-0.430D-01-0.587D-01 0.188D+00 0.918D+00
 Gap=     0.246 Goal=   None    Shift=    0.000
 RMSDP=4.22D-05 MaxDP=3.89D-03 DE=-2.79D-06 OVMax= 7.45D-04

 Cycle  13  Pass 1  IDiag  1:
 RMSU=  7.52D-06    CP:  7.80D-03  6.58D-01  7.54D-01  6.68D-01  2.32D-01
                    CP:  1.17D+00  1.29D+00  1.58D+00  1.06D+00  1.42D+00
                    CP:  1.48D+00  1.28D+00
 E= -3010.57664665068     Delta-E=       -0.000000525838 Rises=F Damp=F
 DIIS: error= 1.23D-05 at cycle  13 NSaved=  13.
 NSaved=13 IEnMin=13 EnMin= -3010.57664665068     IErMin=13 ErrMin= 1.23D-05
 ErrMax= 1.23D-05  0.00D+00 EMaxC= 1.00D-01 BMatC= 1.90D-08 BMatP= 1.05D-07
 IDIUse=1 WtCom= 1.00D+00 WtEn= 0.00D+00
 Coeff-Com: -0.394D-05 0.800D-05-0.637D-05-0.997D-06-0.571D-05 0.104D-02
 Coeff-Com:  0.209D-02 0.503D-03-0.254D-02-0.493D-01-0.104D+00 0.219D+00
 Coeff-Com:  0.934D+00
 Coeff:     -0.394D-05 0.800D-05-0.637D-05-0.997D-06-0.571D-05 0.104D-02
 Coeff:      0.209D-02 0.503D-03-0.254D-02-0.493D-01-0.104D+00 0.219D+00
 Coeff:      0.934D+00
 Gap=     0.246 Goal=   None    Shift=    0.000
 RMSDP=8.15D-06 MaxDP=5.12D-04 DE=-5.26D-07 OVMax= 3.65D-04

 Cycle  14  Pass 1  IDiag  1:
 RMSU=  3.42D-06    CP:  7.80D-03  6.58D-01  7.54D-01  6.68D-01  2.32D-01
                    CP:  1.17D+00  1.29D+00  1.59D+00  1.07D+00  1.42D+00
                    CP:  1.55D+00  1.43D+00  1.31D+00
 E= -3010.57664675156     Delta-E=       -0.000000100872 Rises=F Damp=F
 DIIS: error= 3.20D-06 at cycle  14 NSaved=  14.
 NSaved=14 IEnMin=14 EnMin= -3010.57664675156     IErMin=14 ErrMin= 3.20D-06
 ErrMax= 3.20D-06  0.00D+00 EMaxC= 1.00D-01 BMatC= 3.86D-09 BMatP= 1.90D-08
 IDIUse=1 WtCom= 1.00D+00 WtEn= 0.00D+00
 Coeff-Com: -0.698D-05 0.111D-04-0.493D-05 0.403D-05-0.334D-04 0.218D-03
 Coeff-Com:  0.544D-03 0.118D-02 0.324D-02-0.110D-01-0.566D-01-0.267D-01
 Coeff-Com:  0.317D+00 0.772D+00
 Coeff:     -0.698D-05 0.111D-04-0.493D-05 0.403D-05-0.334D-04 0.218D-03
 Coeff:      0.544D-03 0.118D-02 0.324D-02-0.110D-01-0.566D-01-0.267D-01
 Coeff:      0.317D+00 0.772D+00
 Gap=     0.246 Goal=   None    Shift=    0.000
 RMSDP=6.69D-06 MaxDP=4.35D-04 DE=-1.01D-07 OVMax= 9.64D-05

 Cycle  15  Pass 1  IDiag  1:
 RMSU=  1.21D-06    CP:  7.80D-03  6.58D-01  7.54D-01  6.68D-01  2.32D-01
                    CP:  1.17D+00  1.29D+00  1.59D+00  1.06D+00  1.41D+00
                    CP:  1.55D+00  1.48D+00  1.51D+00  1.14D+00
 E= -3010.57664676225     Delta-E=       -0.000000010696 Rises=F Damp=F
 DIIS: error= 1.34D-06 at cycle  15 NSaved=  15.
 NSaved=15 IEnMin=15 EnMin= -3010.57664676225     IErMin=15 ErrMin= 1.34D-06
 ErrMax= 1.34D-06  0.00D+00 EMaxC= 1.00D-01 BMatC= 5.80D-10 BMatP= 3.86D-09
 IDIUse=1 WtCom= 1.00D+00 WtEn= 0.00D+00
 Coeff-Com: -0.176D-05 0.198D-05-0.106D-05 0.921D-05-0.129D-04-0.156D-03
 Coeff-Com: -0.259D-03 0.285D-03 0.170D-02 0.632D-02-0.738D-03-0.571D-01
 Coeff-Com: -0.552D-01 0.245D+00 0.861D+00
 Coeff:     -0.176D-05 0.198D-05-0.106D-05 0.921D-05-0.129D-04-0.156D-03
 Coeff:     -0.259D-03 0.285D-03 0.170D-02 0.632D-02-0.738D-03-0.571D-01
 Coeff:     -0.552D-01 0.245D+00 0.861D+00
 Gap=     0.246 Goal=   None    Shift=    0.000
 RMSDP=3.94D-06 MaxDP=2.66D-04 DE=-1.07D-08 OVMax= 3.88D-05

 Cycle  16  Pass 1  IDiag  1:
 RMSU=  4.13D-07    CP:  7.80D-03  6.58D-01  7.54D-01  6.68D-01  2.32D-01
                    CP:  1.17D+00  1.29D+00  1.59D+00  1.06D+00  1.41D+00
                    CP:  1.55D+00  1.49D+00  1.60D+00  1.31D+00  1.35D+00
 E= -3010.57664676415     Delta-E=       -0.000000001895 Rises=F Damp=F
 DIIS: error= 4.21D-07 at cycle  16 NSaved=  16.
 NSaved=16 IEnMin=16 EnMin= -3010.57664676415     IErMin=16 ErrMin= 4.21D-07
 ErrMax= 4.21D-07  0.00D+00 EMaxC= 1.00D-01 BMatC= 8.31D-11 BMatP= 5.80D-10
 IDIUse=1 WtCom= 1.00D+00 WtEn= 0.00D+00
 Coeff-Com: -0.136D-07-0.492D-07 0.640D-06 0.130D-05 0.210D-05-0.424D-04
 Coeff-Com: -0.106D-03-0.172D-03-0.192D-03 0.206D-02 0.647D-02-0.789D-02
 Coeff-Com: -0.374D-01-0.838D-01 0.209D+00 0.912D+00
 Coeff:     -0.136D-07-0.492D-07 0.640D-06 0.130D-05 0.210D-05-0.424D-04
 Coeff:     -0.106D-03-0.172D-03-0.192D-03 0.206D-02 0.647D-02-0.789D-02
 Coeff:     -0.374D-01-0.838D-01 0.209D+00 0.912D+00
 Gap=     0.246 Goal=   None    Shift=    0.000
 RMSDP=1.59D-06 MaxDP=1.17D-04 DE=-1.90D-09 OVMax= 1.05D-05

 Cycle  17  Pass 1  IDiag  1:
 RMSU=  1.67D-07    CP:  7.80D-03  6.58D-01  7.54D-01  6.68D-01  2.32D-01
                    CP:  1.17D+00  1.29D+00  1.59D+00  1.06D+00  1.41D+00
                    CP:  1.54D+00  1.49D+00  1.62D+00  1.34D+00  1.58D+00
                    CP:  1.41D+00
 E= -3010.57664676441     Delta-E=       -0.000000000259 Rises=F Damp=F
 DIIS: error= 1.57D-07 at cycle  17 NSaved=  17.
 NSaved=17 IEnMin=17 EnMin= -3010.57664676441     IErMin=17 ErrMin= 1.57D-07
 ErrMax= 1.57D-07  0.00D+00 EMaxC= 1.00D-01 BMatC= 8.96D-12 BMatP= 8.31D-11
 IDIUse=1 WtCom= 1.00D+00 WtEn= 0.00D+00
 Coeff-Com:  0.158D-06-0.151D-06 0.278D-06-0.627D-06 0.211D-05 0.636D-05
 Coeff-Com: -0.188D-05-0.910D-04-0.201D-03 0.703D-04 0.201D-02 0.383D-02
 Coeff-Com: -0.232D-02-0.631D-01-0.198D-01 0.240D+00 0.839D+00
 Coeff:      0.158D-06-0.151D-06 0.278D-06-0.627D-06 0.211D-05 0.636D-05
 Coeff:     -0.188D-05-0.910D-04-0.201D-03 0.703D-04 0.201D-02 0.383D-02
 Coeff:     -0.232D-02-0.631D-01-0.198D-01 0.240D+00 0.839D+00
 Gap=     0.246 Goal=   None    Shift=    0.000
 RMSDP=6.26D-07 MaxDP=4.94D-05 DE=-2.59D-10 OVMax= 4.64D-06

 Cycle  18  Pass 1  IDiag  1:
 RMSU=  5.37D-08    CP:  7.80D-03  6.58D-01  7.54D-01  6.68D-01  2.32D-01
                    CP:  1.17D+00  1.29D+00  1.59D+00  1.06D+00  1.41D+00
                    CP:  1.54D+00  1.49D+00  1.63D+00  1.34D+00  1.65D+00
                    CP:  1.56D+00  1.41D+00
 E= -3010.57664676445     Delta-E=       -0.000000000043 Rises=F Damp=F
 DIIS: error= 8.52D-08 at cycle  18 NSaved=  18.
 NSaved=18 IEnMin=18 EnMin= -3010.57664676445     IErMin=18 ErrMin= 8.52D-08
 ErrMax= 8.52D-08  0.00D+00 EMaxC= 1.00D-01 BMatC= 1.96D-12 BMatP= 8.96D-12
 IDIUse=1 WtCom= 1.00D+00 WtEn= 0.00D+00
 Coeff-Com:  0.232D-06-0.313D-06-0.111D-06-0.542D-07-0.312D-06 0.600D-05
 Coeff-Com:  0.163D-04 0.103D-04 0.194D-04-0.288D-03-0.989D-03 0.146D-02
 Coeff-Com:  0.670D-02 0.709D-03-0.237D-01-0.146D+00 0.130D+00 0.103D+01
 Coeff:      0.232D-06-0.313D-06-0.111D-06-0.542D-07-0.312D-06 0.600D-05
 Coeff:      0.163D-04 0.103D-04 0.194D-04-0.288D-03-0.989D-03 0.146D-02
 Coeff:      0.670D-02 0.709D-03-0.237D-01-0.146D+00 0.130D+00 0.103D+01
 Gap=     0.246 Goal=   None    Shift=    0.000
 RMSDP=1.54D-07 MaxDP=1.05D-05 DE=-4.27D-11 OVMax= 2.82D-06

 Cycle  19  Pass 1  IDiag  1:
 RMSU=  2.31D-08    CP:  7.80D-03  6.58D-01  7.54D-01  6.68D-01  2.32D-01
                    CP:  1.17D+00  1.29D+00  1.59D+00  1.06D+00  1.41D+00
                    CP:  1.54D+00  1.49D+00  1.63D+00  1.33D+00  1.67D+00
                    CP:  1.63D+00  1.66D+00  1.50D+00
 E= -3010.57664676444     Delta-E=        0.000000000007 Rises=F Damp=F
 DIIS: error= 2.71D-08 at cycle  19 NSaved=  19.
 NSaved=19 IEnMin=18 EnMin= -3010.57664676445     IErMin=19 ErrMin= 2.71D-08
 ErrMax= 2.71D-08  0.00D+00 EMaxC= 1.00D-01 BMatC= 2.76D-13 BMatP= 1.96D-12
 IDIUse=1 WtCom= 1.00D+00 WtEn= 0.00D+00
 Coeff-Com:  0.658D-07-0.999D-07-0.857D-07 0.126D-09-0.233D-06 0.493D-06
 Coeff-Com:  0.264D-05 0.143D-04 0.280D-04-0.408D-05-0.372D-03-0.492D-03
 Coeff-Com:  0.123D-02 0.706D-02 0.726D-02-0.539D-01-0.836D-01 0.258D-01
 Coeff-Com:  0.110D+01
 Coeff:      0.658D-07-0.999D-07-0.857D-07 0.126D-09-0.233D-06 0.493D-06
 Coeff:      0.264D-05 0.143D-04 0.280D-04-0.408D-05-0.372D-03-0.492D-03
 Coeff:      0.123D-02 0.706D-02 0.726D-02-0.539D-01-0.836D-01 0.258D-01
 Coeff:      0.110D+01
 Gap=     0.246 Goal=   None    Shift=    0.000
 RMSDP=3.61D-08 MaxDP=1.77D-06 DE= 6.82D-12 OVMax= 1.21D-06

 Cycle  20  Pass 1  IDiag  1:
 RMSU=  9.83D-09    CP:  7.80D-03  6.58D-01  7.54D-01  6.68D-01  2.32D-01
                    CP:  1.17D+00  1.29D+00  1.59D+00  1.06D+00  1.41D+00
                    CP:  1.54D+00  1.49D+00  1.63D+00  1.33D+00  1.67D+00
                    CP:  1.63D+00  1.71D+00  1.71D+00  1.57D+00
 E= -3010.57664676446     Delta-E=       -0.000000000020 Rises=F Damp=F
 DIIS: error= 1.90D-08 at cycle  20 NSaved=  20.
 NSaved=20 IEnMin=20 EnMin= -3010.57664676446     IErMin=20 ErrMin= 1.90D-08
 ErrMax= 1.90D-08  0.00D+00 EMaxC= 1.00D-01 BMatC= 9.50D-14 BMatP= 2.76D-13
 IDIUse=1 WtCom= 1.00D+00 WtEn= 0.00D+00
 Coeff-Com:  0.708D-08-0.172D-07-0.142D-08-0.154D-07-0.403D-07-0.863D-06
 Coeff-Com: -0.216D-05 0.362D-05 0.544D-05 0.596D-04 0.315D-04-0.518D-03
 Coeff-Com: -0.717D-03 0.242D-02 0.886D-02 0.440D-02-0.559D-01-0.247D+00
 Coeff-Com:  0.478D+00 0.810D+00
 Coeff:      0.708D-08-0.172D-07-0.142D-08-0.154D-07-0.403D-07-0.863D-06
 Coeff:     -0.216D-05 0.362D-05 0.544D-05 0.596D-04 0.315D-04-0.518D-03
 Coeff:     -0.717D-03 0.242D-02 0.886D-02 0.440D-02-0.559D-01-0.247D+00
 Coeff:      0.478D+00 0.810D+00
 Gap=     0.246 Goal=   None    Shift=    0.000
 RMSDP=2.44D-08 MaxDP=1.33D-06 DE=-2.00D-11 OVMax= 5.36D-07

 Cycle  21  Pass 1  IDiag  1:
 Restarting incremental Fock formation.
 E= -3010.57664676443     Delta-E=        0.000000000030 Rises=F Damp=F
 DIIS: error= 5.35D-09 at cycle  21 NSaved=  20.
 NSaved=20 IEnMin=19 EnMin= -3010.57664676446     IErMin=20 ErrMin= 5.35D-09
 ErrMax= 5.35D-09  0.00D+00 EMaxC= 1.00D-01 BMatC= 5.92D-15 BMatP= 9.50D-14
 IDIUse=1 WtCom= 1.00D+00 WtEn= 0.00D+00
 Coeff-Com: -0.315D-09 0.183D-07-0.693D-08-0.274D-07-0.374D-06-0.684D-06
 Coeff-Com: -0.592D-06-0.254D-05 0.108D-04 0.436D-04-0.123D-04-0.212D-03
 Coeff-Com: -0.548D-03 0.120D-02 0.439D-02 0.552D-02-0.418D-01-0.388D-01
 Coeff-Com:  0.118D+00 0.952D+00
 Coeff:     -0.315D-09 0.183D-07-0.693D-08-0.274D-07-0.374D-06-0.684D-06
 Coeff:     -0.592D-06-0.254D-05 0.108D-04 0.436D-04-0.123D-04-0.212D-03
 Coeff:     -0.548D-03 0.120D-02 0.439D-02 0.552D-02-0.418D-01-0.388D-01
 Coeff:      0.118D+00 0.952D+00
 Gap=     0.246 Goal=   None    Shift=    0.000
 RMSDP=1.54D-08 MaxDP=1.03D-06 DE= 2.96D-11 OVMax= 1.02D-07

 Cycle  22  Pass 1  IDiag  1:
 RMSU=  1.31D-08    CP:  1.00D+00
 E= -3010.57664676446     Delta-E=       -0.000000000030 Rises=F Damp=F
 DIIS: error= 1.67D-09 at cycle  22 NSaved=  20.
 NSaved=20 IEnMin=20 EnMin= -3010.57664676446     IErMin=20 ErrMin= 1.67D-09
 ErrMax= 1.67D-09  0.00D+00 EMaxC= 1.00D-01 BMatC= 7.69D-16 BMatP= 5.92D-15
 IDIUse=1 WtCom= 1.00D+00 WtEn= 0.00D+00
 Large coefficients: NSaved= 20 BigCof=    0.00 CofMax=   10.00 Det=-1.75D-15
 Inversion failed.  Reducing to 19 matrices.
 Large coefficients: NSaved= 19 BigCof=    0.00 CofMax=   10.00 Det=-2.03D-15
 Inversion failed.  Reducing to 18 matrices.
 Large coefficients: NSaved= 18 BigCof=    0.00 CofMax=   10.00 Det=-2.69D-15
 Inversion failed.  Reducing to 17 matrices.
 Large coefficients: NSaved= 17 BigCof=    0.00 CofMax=   10.00 Det=-2.69D-15
 Inversion failed.  Reducing to 16 matrices.
 Large coefficients: NSaved= 16 BigCof=    0.00 CofMax=   10.00 Det=-2.75D-15
 Inversion failed.  Reducing to 15 matrices.
 Coeff-Com: -0.323D-06 0.813D-06-0.191D-05-0.129D-04 0.158D-04 0.894D-04
 Coeff-Com: -0.223D-04-0.262D-03-0.163D-02 0.449D-02 0.157D-01-0.318D-01
 Coeff-Com: -0.687D-01 0.520D-02 0.108D+01
 Coeff:     -0.323D-06 0.813D-06-0.191D-05-0.129D-04 0.158D-04 0.894D-04
 Coeff:     -0.223D-04-0.262D-03-0.163D-02 0.449D-02 0.157D-01-0.318D-01
 Coeff:     -0.687D-01 0.520D-02 0.108D+01
 Gap=     0.246 Goal=   None    Shift=    0.000
 RMSDP=4.66D-09 MaxDP=3.08D-07 DE=-3.05D-11 OVMax= 3.33D-08

 SCF Done:  E(RwB97XD) =  -3010.57664676     A.U. after   22 cycles
            NFock= 22  Conv=0.47D-08     -V/T= 2.0016
 KE= 3.005869435224D+03 PE=-8.636214144374D+03 EE= 1.877256070695D+03
 Leave Link  502 at Wed May  1 14:50:20 2024, MaxMem=  1207959552 cpu:            1284.2 elap:            1284.4
 (Enter /software/gaussian/g16-c01/sse4/g16/l601.exe)
 Copying SCF densities to generalized density rwf, IOpCl= 0 IROHF=0.

 **********************************************************************

            Population analysis using the SCF Density.

 **********************************************************************

 Alpha  occ. eigenvalues -- -483.36334 -62.91400 -56.71021 -56.70555 -56.70545
 Alpha  occ. eigenvalues --  -19.47288 -19.46642 -14.86214 -10.62473 -10.58968
 Alpha  occ. eigenvalues --  -10.58885 -10.57334 -10.56858 -10.51847  -9.07237
 Alpha  occ. eigenvalues --   -6.89711  -6.88163  -6.88133  -2.99663  -2.99251
 Alpha  occ. eigenvalues --   -2.99227  -2.97987  -2.97987  -1.50595  -1.33562
 Alpha  occ. eigenvalues --   -1.24452  -1.16647  -1.12334  -1.08170  -1.01969
 Alpha  occ. eigenvalues --   -0.97017  -0.92050  -0.86417  -0.82210  -0.81566
 Alpha  occ. eigenvalues --   -0.81019  -0.80181  -0.76917  -0.76375  -0.74731
 Alpha  occ. eigenvalues --   -0.69565  -0.67239  -0.65059  -0.63616  -0.62238
 Alpha  occ. eigenvalues --   -0.58303  -0.57951  -0.57041  -0.56218
 Alpha virt. eigenvalues --   -0.31587  -0.23703  -0.22261  -0.20427  -0.18180
 Alpha virt. eigenvalues --   -0.16831  -0.13955  -0.12260  -0.11379  -0.10468
 Alpha virt. eigenvalues --   -0.08262  -0.06681  -0.06137  -0.04384  -0.03478
 Alpha virt. eigenvalues --   -0.02361  -0.02045  -0.00438   0.00508   0.00898
 Alpha virt. eigenvalues --    0.01467   0.01820   0.04333   0.04715   0.04870
 Alpha virt. eigenvalues --    0.05435   0.07038   0.08000   0.09011   0.10116
 Alpha virt. eigenvalues --    0.10467   0.11287   0.11436   0.12457   0.13484
 Alpha virt. eigenvalues --    0.14245   0.14355   0.14876   0.15377   0.16002
 Alpha virt. eigenvalues --    0.17448   0.19270   0.19740   0.20312   0.20893
 Alpha virt. eigenvalues --    0.22411   0.22941   0.24113   0.24555   0.26237
 Alpha virt. eigenvalues --    0.26636   0.27102   0.27633   0.28599   0.29788
 Alpha virt. eigenvalues --    0.30461   0.31880   0.33420   0.34344   0.34933
 Alpha virt. eigenvalues --    0.36190   0.37207   0.38241   0.41296   0.41807
 Alpha virt. eigenvalues --    0.42628   0.43947   0.44376   0.45633   0.47144
 Alpha virt. eigenvalues --    0.47935   0.49114   0.49996   0.50813   0.51093
 Alpha virt. eigenvalues --    0.51333   0.52606   0.56528   0.56798   0.58684
 Alpha virt. eigenvalues --    0.60176   0.60754   0.63278   0.65268   0.66835
 Alpha virt. eigenvalues --    0.69446   0.70515   0.72041   0.72444   0.76070
 Alpha virt. eigenvalues --    0.76624   0.79177   0.80511   0.82126   0.84179
 Alpha virt. eigenvalues --    0.84878   0.87646   0.90422   0.91748   0.96293
 Alpha virt. eigenvalues --    0.99173   1.01057   1.02680   1.04585   1.05637
 Alpha virt. eigenvalues --    1.07204   1.09512   1.11609   1.12063   1.14606
 Alpha virt. eigenvalues --    1.22435   1.23704   1.25668   1.32722   1.35177
 Alpha virt. eigenvalues --    1.35597   1.36166   1.43403   1.53321   1.56140
 Alpha virt. eigenvalues --    1.56811   1.57782   1.59948   1.60861   1.64988
 Alpha virt. eigenvalues --    1.67835   1.68068   1.73370   1.74611   1.78309
 Alpha virt. eigenvalues --    1.79574   1.84401   1.87219   1.89027   1.90524
 Alpha virt. eigenvalues --    1.96109   2.01443   2.02264   2.03689   2.06310
 Alpha virt. eigenvalues --    2.07150   2.13898   2.20347   2.22483   2.31352
 Alpha virt. eigenvalues --    2.35790   2.39618   2.40615   2.42776   2.51643
 Alpha virt. eigenvalues --    2.56310   2.62487   2.65317   2.67426   2.70881
 Alpha virt. eigenvalues --    2.72185   2.75216   2.76606   2.79841   2.80515
 Alpha virt. eigenvalues --    2.92038   2.94406   2.99601   3.02601   3.07918
 Alpha virt. eigenvalues --    3.12163   3.15359   3.19289   3.22755   3.23999
 Alpha virt. eigenvalues --    3.26415   3.38238   3.48250   3.50528   3.53055
 Alpha virt. eigenvalues --    3.55741   3.68929   3.73229   3.81428   3.86007
 Alpha virt. eigenvalues --    4.03346   4.03612   4.11575   4.16632   4.37606
 Alpha virt. eigenvalues --    4.43441   4.56167   4.58986   4.92082   4.95070
 Alpha virt. eigenvalues --    5.03377   5.07925   5.61840   6.14831   6.59173
 Alpha virt. eigenvalues --    7.42047   7.43616   7.53641  23.20244  23.60390
 Alpha virt. eigenvalues --   23.65952  23.79257  23.95477  24.00730  35.31735
 Alpha virt. eigenvalues --   47.85993  49.84429  49.93261 289.75362 289.77035
 Alpha virt. eigenvalues --  289.895301020.86483
          Condensed to atoms (all electrons):
               1          2          3          4          5          6
     1  C    8.717509  -1.862452   0.301231  -1.717100  -1.178506   0.293893
     2  C   -1.862452  12.811244  -2.385604  -2.256993   1.572313  -0.005717
     3  C    0.301231  -2.385604  13.862272  -2.742367  -1.844631   0.019631
     4  C   -1.717100  -2.256993  -2.742367  18.774543   0.439025  -0.000429
     5  C   -1.178506   1.572313  -1.844631   0.439025   8.485355   0.009401
     6  H    0.293893  -0.005717   0.019631  -0.000429   0.009401   0.245574
     7  H    0.033809   0.250246   0.040041  -0.008609  -0.013111  -0.000542
     8  H    0.017472  -0.063164   0.181099   0.038030  -0.036786   0.000003
     9  H    0.079058  -0.035995   0.011777  -0.021237   0.271570  -0.001732
    10  N   -0.085469   0.288324  -0.969336   0.322410   0.075316  -0.000175
    11  O    0.067306  -0.154815  -0.221163  -0.100507  -0.086412  -0.000036
    12  O    0.243620   0.128381  -0.310956  -0.101091  -0.025437  -0.000020
    13  C    1.639576  -2.783435   0.833803  -6.779370  -1.756294  -0.003084
    14  H   -0.029008   0.047600  -0.032882   0.202767   0.008268   0.000013
    15  Br  -0.017129   0.048687  -0.141794  -0.355949   0.013100  -0.000087
               7          8          9         10         11         12
     1  C    0.033809   0.017472   0.079058  -0.085469   0.067306   0.243620
     2  C    0.250246  -0.063164  -0.035995   0.288324  -0.154815   0.128381
     3  C    0.040041   0.181099   0.011777  -0.969336  -0.221163  -0.310956
     4  C   -0.008609   0.038030  -0.021237   0.322410  -0.100507  -0.101091
     5  C   -0.013111  -0.036786   0.271570   0.075316  -0.086412  -0.025437
     6  H   -0.000542   0.000003  -0.001732  -0.000175  -0.000036  -0.000020
     7  H    0.228580   0.000061   0.000077  -0.016224  -0.000605   0.013962
     8  H    0.000061   0.395877   0.000104  -0.034277   0.030294  -0.001783
     9  H    0.000077   0.000104   0.310935   0.000140   0.000015   0.000000
    10  N   -0.016224  -0.034277   0.000140   7.434148   0.053175   0.252745
    11  O   -0.000605   0.030294   0.000015   0.053175   8.115119  -0.000362
    12  O    0.013962  -0.001783   0.000000   0.252745  -0.000362   7.594982
    13  C    0.009549   0.199638   0.018886  -0.241017   0.413704   0.005409
    14  H   -0.000034  -0.008066  -0.004977  -0.000380   0.000058  -0.000094
    15  Br   0.000233   0.012437   0.010731   0.030966  -0.004888   0.002543
              13         14         15
     1  C    1.639576  -0.029008  -0.017129
     2  C   -2.783435   0.047600   0.048687
     3  C    0.833803  -0.032882  -0.141794
     4  C   -6.779370   0.202767  -0.355949
     5  C   -1.756294   0.008268   0.013100
     6  H   -0.003084   0.000013  -0.000087
     7  H    0.009549  -0.000034   0.000233
     8  H    0.199638  -0.008066   0.012437
     9  H    0.018886  -0.004977   0.010731
    10  N   -0.241017  -0.000380   0.030966
    11  O    0.413704   0.000058  -0.004888
    12  O    0.005409  -0.000094   0.002543
    13  C   14.299161   0.129906   0.508176
    14  H    0.129906   0.441305  -0.083177
    15  Br   0.508176  -0.083177  34.992854
 Mulliken charges:
               1
     1  C   -0.503808
     2  C    0.401381
     3  C   -0.601120
     4  C    0.306878
     5  C    0.066828
     6  H    0.443309
     7  H    0.462567
     8  H    0.269060
     9  H    0.360647
    10  N   -0.110347
    11  O   -0.110885
    12  O    0.198102
    13  C   -0.494608
    14  H    0.328701
    15  Br  -0.016704
 Sum of Mulliken charges =   1.00000
 Mulliken charges with hydrogens summed into heavy atoms:
               1
     1  C   -0.060500
     2  C    0.863948
     3  C   -0.601120
     4  C    0.575938
     5  C    0.427475
    10  N   -0.110347
    11  O   -0.110885
    12  O    0.198102
    13  C   -0.165907
    15  Br  -0.016704
 Electronic spatial extent (au):  <R**2>=           2802.7930
 Charge=              1.0000 electrons
 Dipole moment (field-independent basis, Debye):
    X=              0.2715    Y=              7.8486    Z=              1.0338  Tot=              7.9210
 Quadrupole moment (field-independent basis, Debye-Ang):
   XX=            -69.4092   YY=            -57.1343   ZZ=            -65.2557
   XY=             10.6732   XZ=              0.1893   YZ=             -2.2505
 Traceless Quadrupole moment (field-independent basis, Debye-Ang):
   XX=             -5.4762   YY=              6.7988   ZZ=             -1.3226
   XY=             10.6732   XZ=              0.1893   YZ=             -2.2505
 Octapole moment (field-independent basis, Debye-Ang**2):
  XXX=           -288.2538  YYY=            140.7559  ZZZ=             84.7796  XYY=            -70.8419
  XXY=             75.2175  XXZ=             33.3875  XZZ=            -75.7943  YZZ=             30.2268
  YYZ=             37.6943  XYZ=             -1.5028
 Hexadecapole moment (field-independent basis, Debye-Ang**3):
 XXXX=          -2239.1349 YYYY=           -746.2089 ZZZZ=           -369.4656 XXXY=             86.5885
 XXXZ=            -25.6019 YYYX=            -31.7767 YYYZ=           -194.2648 ZZZX=            -23.5109
 ZZZY=           -159.5706 XXYY=           -459.1850 XXZZ=           -373.5734 YYZZ=           -192.3354
 XXYZ=            -61.9496 YYXZ=             -9.5913 ZZXY=             -7.7928
 N-N= 7.425119916908D+02 E-N=-8.636214144520D+03  KE= 3.005869435224D+03
 No NMR shielding tensors so no spin-rotation constants.
 Leave Link  601 at Wed May  1 14:50:28 2024, MaxMem=  1207959552 cpu:               7.6 elap:               7.7
 (Enter /software/gaussian/g16-c01/sse4/g16/l9999.exe)
 Unable to Open any file for archive entry.
 1\1\GINC-BHX0031\SP\RwB97XD\6-311+G(d)\C6H5Br1N1O2(1+)\BWEIGHT\01-May-
 2024\0\\#P wB97XD/6-311+G* NoSymm #P Field=Y-291\\TitleMe\\1,1\C,0,0.0
 295,1.3397,0.0682\C,0,1.4348,1.2867,0.0064\C,0,2.1118,0.0511,-0.0054\C
 ,0,1.4451,-1.1372,0.0312\C,0,-0.6879,0.1682,0.11\H,0,-0.4713,2.2984,0.
 0781\H,0,2.0273,2.1965,-0.0322\H,0,1.9897,-2.0764,0.0232\H,0,-1.7716,0
 .1804,0.1582\N,0,3.5864,0.051,-0.0675\O,0,4.1471,-1.0597,-0.0881\O,0,4
 .145,1.1639,-0.0901\C,0,-0.0236,-1.1458,0.0835\H,0,-0.4367,-1.8725,0.7
 889\Br,0,-0.5359,-1.8697,-1.7408\\Version=ES64L-G16RevC.01\HF=-3010.57
 66468\RMSD=4.656e-09\Dipole=-1.7997274,4.2359565,1.5528928\Quadrupole=
 -4.0713988,5.0547368,-0.9833381,7.9352522,0.1407314,-1.6732268\PG=C01 
 [X(C6H5Br1N1O2)]\\@
 The archive entry for this job was punched.


 BE CAREFUL NOT TO BECOME TOO GOOD OF A SONGBIRD OR 
 THEY'LL THROW YOU INTO A CAGE.

                                    -- SNOOPY TO WOODSTOCK
 Job cpu time:       0 days  0 hours 22 minutes 36.8 seconds.
 Elapsed time:       0 days  0 hours 22 minutes 37.6 seconds.
 File lengths (MBytes):  RWF=     40 Int=      0 D2E=      0 Chk=     32 Scr=      1
 Normal termination of Gaussian 16 at Wed May  1 14:50:29 2024.
