 Entering Gaussian System, Link 0=g16
 Initial command:
 /software/gaussian/g16-c01/sse4/g16/l1.exe "/local_scratch/24665382/Gau-11193.inp" -scrdir="/local_scratch/24665382/"
 Entering Link 1 = /software/gaussian/g16-c01/sse4/g16/l1.exe PID=     11228.
  
 Copyright (c) 1988-2019, Gaussian, Inc.  All Rights Reserved.
  
 This is part of the Gaussian(R) 16 program.  It is based on
 the Gaussian(R) 09 system (copyright 2009, Gaussian, Inc.),
 the Gaussian(R) 03 system (copyright 2003, Gaussian, Inc.),
 the Gaussian(R) 98 system (copyright 1998, Gaussian, Inc.),
 the Gaussian(R) 94 system (copyright 1995, Gaussian, Inc.),
 the Gaussian 92(TM) system (copyright 1992, Gaussian, Inc.),
 the Gaussian 90(TM) system (copyright 1990, Gaussian, Inc.),
 the Gaussian 88(TM) system (copyright 1988, Gaussian, Inc.),
 the Gaussian 86(TM) system (copyright 1986, Carnegie Mellon
 University), and the Gaussian 82(TM) system (copyright 1983,
 Carnegie Mellon University). Gaussian is a federally registered
 trademark of Gaussian, Inc.
  
 This software contains proprietary and confidential information,
 including trade secrets, belonging to Gaussian, Inc.
  
 This software is provided under written license and may be
 used, copied, transmitted, or stored only in accord with that
 written license.
  
 The following legend is applicable only to US Government
 contracts under FAR:
  
                    RESTRICTED RIGHTS LEGEND
  
 Use, reproduction and disclosure by the US Government is
 subject to restrictions as set forth in subparagraphs (a)
 and (c) of the Commercial Computer Software - Restricted
 Rights clause in FAR 52.227-19.
  
 Gaussian, Inc.
 340 Quinnipiac St., Bldg. 40, Wallingford CT 06492
  
  
 ---------------------------------------------------------------
 Warning -- This program may not be used in any manner that
 competes with the business of Gaussian, Inc. or will provide
 assistance to any competitor of Gaussian, Inc.  The licensee
 of this program is prohibited from giving any competitor of
 Gaussian, Inc. access to this program.  By using this program,
 the user acknowledges that Gaussian, Inc. is engaged in the
 business of creating and licensing software in the field of
 computational chemistry and represents and warrants to the
 licensee that it is not a competitor of Gaussian, Inc. and that
 it will not use this program in any manner prohibited above.
 ---------------------------------------------------------------
  

 Cite this work as:
 Gaussian 16, Revision C.01,
 M. J. Frisch, G. W. Trucks, H. B. Schlegel, G. E. Scuseria, 
 M. A. Robb, J. R. Cheeseman, G. Scalmani, V. Barone, 
 G. A. Petersson, H. Nakatsuji, X. Li, M. Caricato, A. V. Marenich, 
 J. Bloino, B. G. Janesko, R. Gomperts, B. Mennucci, H. P. Hratchian, 
 J. V. Ortiz, A. F. Izmaylov, J. L. Sonnenberg, D. Williams-Young, 
 F. Ding, F. Lipparini, F. Egidi, J. Goings, B. Peng, A. Petrone, 
 T. Henderson, D. Ranasinghe, V. G. Zakrzewski, J. Gao, N. Rega, 
 G. Zheng, W. Liang, M. Hada, M. Ehara, K. Toyota, R. Fukuda, 
 J. Hasegawa, M. Ishida, T. Nakajima, Y. Honda, O. Kitao, H. Nakai, 
 T. Vreven, K. Throssell, J. A. Montgomery, Jr., J. E. Peralta, 
 F. Ogliaro, M. J. Bearpark, J. J. Heyd, E. N. Brothers, K. N. Kudin, 
 V. N. Staroverov, T. A. Keith, R. Kobayashi, J. Normand, 
 K. Raghavachari, A. P. Rendell, J. C. Burant, S. S. Iyengar, 
 J. Tomasi, M. Cossi, J. M. Millam, M. Klene, C. Adamo, R. Cammi, 
 J. W. Ochterski, R. L. Martin, K. Morokuma, O. Farkas, 
 J. B. Foresman, and D. J. Fox, Gaussian, Inc., Wallingford CT, 2019.
 
 ******************************************
 Gaussian 16:  ES64L-G16RevC.01  3-Jul-2019
                 2-May-2024 
 ******************************************
 %chk=geometry.chk
 %mem=1GB
 %nprocshared=12
 Will use up to   12 processors via shared memory.
 --------------------------------------
 #P wB97XD/6-311+G* NoSymm #P Field=Z-9
 --------------------------------------
 1/38=1,172=1/1;
 2/12=2,15=1,17=6,18=5,40=1/2;
 3/5=4,6=6,7=11,11=2,14=3,15=-9,25=1,30=1,74=-58/1,2,3;
 4//1;
 5/5=2,38=5/2;
 6/7=2,8=2,9=2,10=2,28=1/1;
 99/5=1,9=1/99;
 Leave Link    1 at Thu May  2 13:58:21 2024, MaxMem=   134217728 cpu:               1.5 elap:               1.6
 (Enter /software/gaussian/g16-c01/sse4/g16/l101.exe)
 -------
 TitleMe
 -------
 Symbolic Z-matrix:
 Charge =  1 Multiplicity = 1
 C                     0.5193    1.233    -0.0319 
 C                     1.9445    1.2692   -0.0367 
 C                     2.6204    0.0928   -0.025 
 C                    -0.196     0.0301    0.001 
 H                    -0.0207    2.1742   -0.0434 
 H                     2.4828    2.2089   -0.0361 
 H                    -1.2777    0.0399    0.0117 
 N                     4.0921    0.0959    0.0366 
 O                     4.6393   -1.0217    0.1446 
 O                     4.6649    1.1984   -0.0233 
 C                     0.4943   -1.1671    0.021 
 H                    -0.0325   -2.1149    0.0545 
 C                     1.9629   -1.2165   -0.0211 
 H                     2.4436   -1.9631    0.6151 
 Br                    2.173    -1.9491   -1.9062 
 
 ITRead=  0  0  0  0  0  0  0  0  0  0  0  0  0  0  0
 MicOpt= -1 -1 -1 -1 -1 -1 -1 -1 -1 -1 -1 -1 -1 -1 -1
 NAtoms=     15 NQM=       15 NQMF=       0 NMMI=      0 NMMIF=      0
                NMic=       0 NMicF=      0.
                    Isotopes and Nuclear Properties:
 (Nuclear quadrupole moments (NQMom) in fm**2, nuclear magnetic moments (NMagM)
  in nuclear magnetons)

  Atom         1           2           3           4           5           6           7           8           9          10
 IAtWgt=          12          12          12          12           1           1           1          14          16          16
 AtmWgt=  12.0000000  12.0000000  12.0000000  12.0000000   1.0078250   1.0078250   1.0078250  14.0030740  15.9949146  15.9949146
 NucSpn=           0           0           0           0           1           1           1           2           0           0
 AtZEff=  -0.0000000  -0.0000000  -0.0000000  -0.0000000  -0.0000000  -0.0000000  -0.0000000  -0.0000000  -0.0000000  -0.0000000
 NQMom=    0.0000000   0.0000000   0.0000000   0.0000000   0.0000000   0.0000000   0.0000000   2.0440000   0.0000000   0.0000000
 NMagM=    0.0000000   0.0000000   0.0000000   0.0000000   2.7928460   2.7928460   2.7928460   0.4037610   0.0000000   0.0000000
 AtZNuc=   6.0000000   6.0000000   6.0000000   6.0000000   1.0000000   1.0000000   1.0000000   7.0000000   8.0000000   8.0000000

  Atom        11          12          13          14          15
 IAtWgt=          12           1          12           1          79
 AtmWgt=  12.0000000   1.0078250  12.0000000   1.0078250  78.9183361
 NucSpn=           0           1           0           1           3
 AtZEff=  -0.0000000  -0.0000000  -0.0000000  -0.0000000  -0.0000000
 NQMom=    0.0000000   0.0000000   0.0000000   0.0000000  31.3000000
 NMagM=    0.0000000   2.7928460   0.0000000   2.7928460   2.1063990
 AtZNuc=   6.0000000   1.0000000   6.0000000   1.0000000  35.0000000
 Leave Link  101 at Thu May  2 13:58:23 2024, MaxMem=   134217728 cpu:               1.5 elap:               1.5
 (Enter /software/gaussian/g16-c01/sse4/g16/l202.exe)
                          Input orientation:                          
 ---------------------------------------------------------------------
 Center     Atomic      Atomic             Coordinates (Angstroms)
 Number     Number       Type             X           Y           Z
 ---------------------------------------------------------------------
      1          6           0        0.519300    1.233000   -0.031900
      2          6           0        1.944500    1.269200   -0.036700
      3          6           0        2.620400    0.092800   -0.025000
      4          6           0       -0.196000    0.030100    0.001000
      5          1           0       -0.020700    2.174200   -0.043400
      6          1           0        2.482800    2.208900   -0.036100
      7          1           0       -1.277700    0.039900    0.011700
      8          7           0        4.092100    0.095900    0.036600
      9          8           0        4.639300   -1.021700    0.144600
     10          8           0        4.664900    1.198400   -0.023300
     11          6           0        0.494300   -1.167100    0.021000
     12          1           0       -0.032500   -2.114900    0.054500
     13          6           0        1.962900   -1.216500   -0.021100
     14          1           0        2.443600   -1.963100    0.615100
     15         35           0        2.173000   -1.949100   -1.906200
 ---------------------------------------------------------------------
                    Distance matrix (angstroms):
                    1          2          3          4          5
     1  C    0.000000
     2  C    1.425668   0.000000
     3  C    2.390549   1.356796   0.000000
     4  C    1.399895   2.473566   2.817218   0.000000
     5  H    1.085168   2.163581   3.362733   2.151712   0.000000
     6  H    2.192654   1.082960   2.120598   3.453189   2.503751
     7  H    2.157452   3.449071   3.898632   1.081797   2.477564
     8  N    3.750012   2.448304   1.472992   4.288753   4.608780
     9  O    4.699917   3.541615   2.312322   4.950458   5.653735
    10  O    4.145753   2.721354   2.324292   4.999386   4.786171
    11  C    2.400813   2.835836   2.471794   1.382101   3.381369
    12  H    3.394169   3.920329   3.452266   2.151887   4.290233
    13  C    2.843264   2.485817   1.465124   2.493060   3.928360
    14  H    3.786370   3.334922   2.160489   3.364142   4.860416
    15  Br   4.046416   3.728900   2.812194   3.628609   5.028314
                    6          7          8          9         10
     6  H    0.000000
     7  H    4.341452   0.000000
     8  N    2.657047   5.370150   0.000000
     9  O    3.888434   6.012948   1.249048   0.000000
    10  O    2.404752   6.054572   1.243863   2.226587   0.000000
    11  C    3.918516   2.144043   3.813080   4.149391   4.794941
    12  H    5.003018   2.489080   4.679774   4.798846   5.748876
    13  C    3.464662   3.475788   2.501842   2.688591   3.623886
    14  H    4.222698   4.268978   2.700314   2.434893   3.916224
    15  Br   4.569706   4.420610   3.411663   3.338935   4.434144
                   11         12         13         14         15
    11  C    0.000000
    12  H    1.084880   0.000000
    13  C    1.470034   2.189625   0.000000
    14  H    2.187771   2.543302   1.092353   0.000000
    15  Br   2.672762   2.955683   2.033334   2.535818   0.000000
 Symmetry turned off by external request.
 Stoichiometry    C6H5BrNO2(1+)
 Framework group  C1[X(C6H5BrNO2)]
 Deg. of freedom    39
 Full point group                 C1      NOp   1
 Rotational constants (GHZ):           1.1632986           0.9594224           0.5957624
 Leave Link  202 at Thu May  2 13:58:24 2024, MaxMem=   134217728 cpu:               1.2 elap:               1.2
 (Enter /software/gaussian/g16-c01/sse4/g16/l301.exe)
 Standard basis: 6-311+G(d) (5D, 7F)
 Ernie: Thresh=  0.10000D-02 Tol=  0.10000D-05 Strict=F.
 The following finite field(s) will be applied:
 An electric field of              0.0000  0.0000 -0.0009
   261 basis functions,   443 primitive gaussians,   273 cartesian basis functions
    49 alpha electrons       49 beta electrons
       nuclear repulsion energy       772.8945969580 Hartrees.
 IExCor= 4639 DFT=T Ex+Corr=wB97XD ExCW=0 ScaHFX=  1.000000
 ScaDFX=  1.000000  1.000000  1.000000  1.000000 ScalE2=  1.000000  1.000000
 IRadAn=      5 IRanWt=     -1 IRanGd=            0 ICorTp=0 IEmpDi=121
 HFx  wShort=  0.000000 wLong=  0.200000 cFull=  0.222036 cShort=  0.000000 cLong=  0.777964
 DFx  wShort=  0.000000 wLong=  0.200000 cFull=  0.000000 cShort=  0.000000 cLong=  1.000000
 NAtoms=   15 NActive=   15 NUniq=   15 SFac= 1.00D+00 NAtFMM=   60 NAOKFM=F Big=F
 Integral buffers will be    131072 words long.
 Raffenetti 2 integral format.
 Two-electron integral symmetry is turned off.
 R6Disp:  Grimme-D2 Dispersion energy=       -0.0080346408 Hartrees.
 Nuclear repulsion after empirical dispersion term =      772.8865623173 Hartrees.
 Leave Link  301 at Thu May  2 13:58:25 2024, MaxMem=   134217728 cpu:               1.1 elap:               1.1
 (Enter /software/gaussian/g16-c01/sse4/g16/l302.exe)
 NPDir=0 NMtPBC=     1 NCelOv=     1 NCel=       1 NClECP=     1 NCelD=      1
         NCelK=      1 NCelE2=     1 NClLst=     1 CellRange=     0.0.
 One-electron integrals computed using PRISM.
 NBasis=   261 RedAO= T EigKep=  2.52D-06  NBF=   261
 NBsUse=   261 1.00D-06 EigRej= -1.00D+00 NBFU=   261
 Precomputing XC quadrature grid using
 IXCGrd= 4 IRadAn=           5 IRanWt=          -1 IRanGd=           0 AccXCQ= 0.00D+00.
 Generated NRdTot=       0 NPtTot=           0 NUsed=           0 NTot=          32
 NSgBfM=   273   273   273   273   273 MxSgAt=    15 MxSgA2=    15.
 Leave Link  302 at Thu May  2 13:58:46 2024, MaxMem=   134217728 cpu:              21.5 elap:              21.6
 (Enter /software/gaussian/g16-c01/sse4/g16/l303.exe)
 DipDrv:  MaxL=1.
 The nuclear repulsion energy is now       772.9978677907 hartrees.
 Leave Link  303 at Thu May  2 13:58:50 2024, MaxMem=   134217728 cpu:               3.3 elap:               3.3
 (Enter /software/gaussian/g16-c01/sse4/g16/l401.exe)
 ExpMin= 3.50D-02 ExpMax= 4.40D+05 ExpMxC= 1.51D+04 IAcc=3 IRadAn=         5 AccDes= 0.00D+00
 Harris functional with IExCor= 4639 and IRadAn=       5 diagonalized for initial guess.
 HarFok:  IExCor= 4639 AccDes= 0.00D+00 IRadAn=         5 IDoV= 1 UseB2=F ITyADJ=14
 ICtDFT=  3500011 ScaDFX=  1.000000  1.000000  1.000000  1.000000
 FoFCou: FMM=F IPFlag=           0 FMFlag=      100000 FMFlg1=           0
         NFxFlg=           0 DoJE=T BraDBF=F KetDBF=T FulRan=T
         wScrn=  0.000000 ICntrl=       500 IOpCl=  0 I1Cent=   200000004 NGrid=           0
         NMat0=    1 NMatS0=      1 NMatT0=    0 NMatD0=    1 NMtDS0=    0 NMtDT0=    0
 Symmetry not used in FoFCou.
 Harris En= -2970.60002042261    
 JPrj=0 DoOrth=F DoCkMO=F.
 Leave Link  401 at Thu May  2 13:59:21 2024, MaxMem=   134217728 cpu:              31.2 elap:              31.3
 (Enter /software/gaussian/g16-c01/sse4/g16/l502.exe)
 Two-electron integral symmetry not used.
 Closed shell SCF:
 Using DIIS extrapolation, IDIIS=  1040.
 NGot=   134217728 LenX=   134063053 LenY=   133988083
 Requested convergence on RMS density matrix=1.00D-08 within 128 cycles.
 Requested convergence on MAX density matrix=1.00D-06.
 Requested convergence on             energy=1.00D-06.
 No special actions if energy rises.
 Fock matrices will be formed incrementally for  20 cycles.

 Cycle   1  Pass 1  IDiag  1:
 FoFJK:  IHMeth= 1 ICntrl=       0 DoSepK=T KAlg= 0 I1Cent=           0 FoldK=F
 IRaf=         1 NMat=       1 IRICut=       1 DoRegI=T DoRafI=F ISym2E= 0 IDoP0=0 IntGTp=1.
 FoFCou: FMM=F IPFlag=           0 FMFlag=      100000 FMFlg1=           0
         NFxFlg=           0 DoJE=T BraDBF=F KetDBF=F FulRan=T
         wScrn=  0.000000 ICntrl=       500 IOpCl=  0 I1Cent=           0 NGrid=           0
         NMat0=    1 NMatS0=      1 NMatT0=    0 NMatD0=    1 NMtDS0=    0 NMtDT0=    0
 Symmetry not used in FoFCou.
 E= -3009.69995734123    
 DIIS: error= 2.90D-01 at cycle   1 NSaved=   1.
 NSaved= 1 IEnMin= 1 EnMin= -3009.69995734123     IErMin= 1 ErrMin= 2.90D-01
 ErrMax= 2.90D-01  0.00D+00 EMaxC= 1.00D-01 BMatC= 1.19D+01 BMatP= 1.19D+01
 IDIUse=3 WtCom= 0.00D+00 WtEn= 1.00D+00
 Coeff-Com:  0.100D+01
 Coeff-En:   0.100D+01
 Coeff:      0.100D+01
 Gap=     0.315 Goal=   None    Shift=    0.000
 GapD=    0.315 DampG=1.000 DampE=0.250 DampFc=0.2500 IDamp=-1.
 Damping current iteration by 2.50D-01
 RMSDP=4.15D-02 MaxDP=4.00D+00              OVMax= 2.61D-01

 Cycle   2  Pass 1  IDiag  1:
 RMSU=  5.43D-03    CP:  9.18D-01
 E= -3009.99083882009     Delta-E=       -0.290881478861 Rises=F Damp=T
 DIIS: error= 2.19D-01 at cycle   2 NSaved=   2.
 NSaved= 2 IEnMin= 2 EnMin= -3009.99083882009     IErMin= 2 ErrMin= 2.19D-01
 ErrMax= 2.19D-01  0.00D+00 EMaxC= 1.00D-01 BMatC= 5.46D+00 BMatP= 1.19D+01
 IDIUse=3 WtCom= 0.00D+00 WtEn= 1.00D+00
 Coeff-Com: -0.183D+01 0.283D+01
 Coeff-En:   0.000D+00 0.100D+01
 Coeff:      0.000D+00 0.100D+01
 Gap=     0.269 Goal=   None    Shift=    0.000
 RMSDP=3.32D-02 MaxDP=3.31D+00 DE=-2.91D-01 OVMax= 7.08D-02

 Cycle   3  Pass 1  IDiag  1:
 RMSU=  5.01D-03    CP:  6.30D-01  3.00D+00
 E= -3010.37636114642     Delta-E=       -0.385522326328 Rises=F Damp=F
 DIIS: error= 6.59D-02 at cycle   3 NSaved=   3.
 NSaved= 3 IEnMin= 3 EnMin= -3010.37636114642     IErMin= 3 ErrMin= 6.59D-02
 ErrMax= 6.59D-02  0.00D+00 EMaxC= 1.00D-01 BMatC= 7.35D-01 BMatP= 5.46D+00
 IDIUse=3 WtCom= 3.41D-01 WtEn= 6.59D-01
 Coeff-Com:  0.261D+01-0.342D+01 0.181D+01
 Coeff-En:   0.360D-01 0.000D+00 0.964D+00
 Coeff:      0.914D+00-0.117D+01 0.125D+01
 Gap=     0.263 Goal=   None    Shift=    0.000
 RMSDP=1.11D-02 MaxDP=7.16D-01 DE=-3.86D-01 OVMax= 7.50D-02

 Cycle   4  Pass 1  IDiag  1:
 RMSU=  5.59D-03    CP:  6.69D-01  1.78D+00  2.08D+00
 E= -3010.48534404134     Delta-E=       -0.108982894917 Rises=F Damp=F
 DIIS: error= 3.77D-02 at cycle   4 NSaved=   4.
 NSaved= 4 IEnMin= 4 EnMin= -3010.48534404134     IErMin= 4 ErrMin= 3.77D-02
 ErrMax= 3.77D-02  0.00D+00 EMaxC= 1.00D-01 BMatC= 2.22D-01 BMatP= 7.35D-01
 IDIUse=3 WtCom= 6.23D-01 WtEn= 3.77D-01
 Coeff-Com: -0.183D-01 0.381D-01 0.353D+00 0.627D+00
 Coeff-En:   0.000D+00 0.000D+00 0.191D+00 0.809D+00
 Coeff:     -0.114D-01 0.238D-01 0.292D+00 0.696D+00
 Gap=     0.254 Goal=   None    Shift=    0.000
 RMSDP=5.61D-03 MaxDP=6.98D-01 DE=-1.09D-01 OVMax= 3.17D-02

 Cycle   5  Pass 1  IDiag  1:
 RMSU=  1.56D-03    CP:  6.27D-01  2.05D+00  1.93D+00  5.62D-01
 E= -3010.52841797534     Delta-E=       -0.043073934004 Rises=F Damp=F
 DIIS: error= 6.58D-03 at cycle   5 NSaved=   5.
 NSaved= 5 IEnMin= 5 EnMin= -3010.52841797534     IErMin= 5 ErrMin= 6.58D-03
 ErrMax= 6.58D-03  0.00D+00 EMaxC= 1.00D-01 BMatC= 9.25D-03 BMatP= 2.22D-01
 IDIUse=3 WtCom= 9.34D-01 WtEn= 6.58D-02
 Coeff-Com: -0.105D+00 0.145D+00 0.113D+00 0.392D+00 0.455D+00
 Coeff-En:   0.000D+00 0.000D+00 0.000D+00 0.000D+00 0.100D+01
 Coeff:     -0.981D-01 0.136D+00 0.106D+00 0.366D+00 0.491D+00
 Gap=     0.246 Goal=   None    Shift=    0.000
 RMSDP=1.53D-03 MaxDP=1.88D-01 DE=-4.31D-02 OVMax= 2.34D-02

 Cycle   6  Pass 1  IDiag  1:
 RMSU=  5.54D-04    CP:  6.33D-01  2.04D+00  2.01D+00  7.41D-01  6.30D-01
 E= -3010.53116372374     Delta-E=       -0.002745748394 Rises=F Damp=F
 DIIS: error= 2.87D-03 at cycle   6 NSaved=   6.
 NSaved= 6 IEnMin= 6 EnMin= -3010.53116372374     IErMin= 6 ErrMin= 2.87D-03
 ErrMax= 2.87D-03  0.00D+00 EMaxC= 1.00D-01 BMatC= 6.81D-04 BMatP= 9.25D-03
 IDIUse=3 WtCom= 9.71D-01 WtEn= 2.87D-02
 Coeff-Com: -0.959D-01 0.129D+00 0.235D-02 0.166D+00 0.336D+00 0.462D+00
 Coeff-En:   0.000D+00 0.000D+00 0.000D+00 0.000D+00 0.998D-01 0.900D+00
 Coeff:     -0.931D-01 0.125D+00 0.228D-02 0.161D+00 0.329D+00 0.475D+00
 Gap=     0.244 Goal=   None    Shift=    0.000
 RMSDP=4.36D-04 MaxDP=4.09D-02 DE=-2.75D-03 OVMax= 7.89D-03

 Cycle   7  Pass 1  IDiag  1:
 RMSU=  2.15D-04    CP:  6.32D-01  2.04D+00  2.00D+00  7.04D-01  7.44D-01
                    CP:  6.55D-01
 E= -3010.53164454206     Delta-E=       -0.000480818327 Rises=F Damp=F
 DIIS: error= 3.30D-04 at cycle   7 NSaved=   7.
 NSaved= 7 IEnMin= 7 EnMin= -3010.53164454206     IErMin= 7 ErrMin= 3.30D-04
 ErrMax= 3.30D-04  0.00D+00 EMaxC= 1.00D-01 BMatC= 1.57D-05 BMatP= 6.81D-04
 IDIUse=3 WtCom= 9.97D-01 WtEn= 3.30D-03
 Coeff-Com: -0.350D-01 0.467D-01-0.118D-01 0.337D-01 0.827D-01 0.182D+00
 Coeff-Com:  0.702D+00
 Coeff-En:   0.000D+00 0.000D+00 0.000D+00 0.000D+00 0.000D+00 0.000D+00
 Coeff-En:   0.100D+01
 Coeff:     -0.349D-01 0.465D-01-0.118D-01 0.336D-01 0.824D-01 0.182D+00
 Coeff:      0.703D+00
 Gap=     0.245 Goal=   None    Shift=    0.000
 RMSDP=1.36D-04 MaxDP=1.09D-02 DE=-4.81D-04 OVMax= 1.48D-03

 Cycle   8  Pass 1  IDiag  1:
 RMSU=  5.98D-05    CP:  6.31D-01  2.03D+00  2.00D+00  7.15D-01  7.87D-01
                    CP:  7.06D-01  9.09D-01
 E= -3010.53166225566     Delta-E=       -0.000017713595 Rises=F Damp=F
 DIIS: error= 1.01D-04 at cycle   8 NSaved=   8.
 NSaved= 8 IEnMin= 8 EnMin= -3010.53166225566     IErMin= 8 ErrMin= 1.01D-04
 ErrMax= 1.01D-04  0.00D+00 EMaxC= 1.00D-01 BMatC= 2.18D-06 BMatP= 1.57D-05
 IDIUse=3 WtCom= 9.99D-01 WtEn= 1.01D-03
 Coeff-Com:  0.448D-02-0.620D-02-0.343D-02-0.131D-01-0.278D-01-0.313D-01
 Coeff-Com:  0.170D+00 0.907D+00
 Coeff-En:   0.000D+00 0.000D+00 0.000D+00 0.000D+00 0.000D+00 0.000D+00
 Coeff-En:   0.000D+00 0.100D+01
 Coeff:      0.447D-02-0.619D-02-0.343D-02-0.131D-01-0.277D-01-0.312D-01
 Coeff:      0.170D+00 0.907D+00
 Gap=     0.245 Goal=   None    Shift=    0.000
 RMSDP=6.39D-05 MaxDP=4.77D-03 DE=-1.77D-05 OVMax= 1.32D-03

 Cycle   9  Pass 1  IDiag  1:
 RMSU=  2.39D-05    CP:  6.32D-01  2.03D+00  2.01D+00  7.19D-01  7.98D-01
                    CP:  7.10D-01  1.05D+00  1.21D+00
 E= -3010.53166653744     Delta-E=       -0.000004281781 Rises=F Damp=F
 DIIS: error= 2.21D-05 at cycle   9 NSaved=   9.
 NSaved= 9 IEnMin= 9 EnMin= -3010.53166653744     IErMin= 9 ErrMin= 2.21D-05
 ErrMax= 2.21D-05  0.00D+00 EMaxC= 1.00D-01 BMatC= 2.39D-07 BMatP= 2.18D-06
 IDIUse=1 WtCom= 1.00D+00 WtEn= 0.00D+00
 Coeff-Com:  0.649D-02-0.872D-02 0.699D-03-0.878D-02-0.178D-01-0.309D-01
 Coeff-Com: -0.595D-01 0.251D+00 0.868D+00
 Coeff:      0.649D-02-0.872D-02 0.699D-03-0.878D-02-0.178D-01-0.309D-01
 Coeff:     -0.595D-01 0.251D+00 0.868D+00
 Gap=     0.245 Goal=   None    Shift=    0.000
 RMSDP=3.82D-05 MaxDP=4.35D-03 DE=-4.28D-06 OVMax= 7.83D-04

 Cycle  10  Pass 1  IDiag  1:
 RMSU=  8.63D-06    CP:  6.31D-01  2.03D+00  2.01D+00  7.18D-01  8.05D-01
                    CP:  7.01D-01  1.09D+00  1.50D+00  1.05D+00
 E= -3010.53166741605     Delta-E=       -0.000000878609 Rises=F Damp=F
 DIIS: error= 1.34D-05 at cycle  10 NSaved=  10.
 NSaved=10 IEnMin=10 EnMin= -3010.53166741605     IErMin=10 ErrMin= 1.34D-05
 ErrMax= 1.34D-05  0.00D+00 EMaxC= 1.00D-01 BMatC= 6.62D-08 BMatP= 2.39D-07
 IDIUse=1 WtCom= 1.00D+00 WtEn= 0.00D+00
 Coeff-Com:  0.583D-03-0.756D-03 0.458D-03-0.192D-03 0.195D-02 0.329D-02
 Coeff-Com: -0.407D-01-0.892D-01 0.205D+00 0.920D+00
 Coeff:      0.583D-03-0.756D-03 0.458D-03-0.192D-03 0.195D-02 0.329D-02
 Coeff:     -0.407D-01-0.892D-01 0.205D+00 0.920D+00
 Gap=     0.245 Goal=   None    Shift=    0.000
 RMSDP=1.43D-05 MaxDP=1.41D-03 DE=-8.79D-07 OVMax= 4.30D-04

 Cycle  11  Pass 1  IDiag  1:
 RMSU=  7.53D-06    CP:  6.31D-01  2.03D+00  2.01D+00  7.18D-01  8.07D-01
                    CP:  6.98D-01  1.08D+00  1.63D+00  1.17D+00  1.38D+00
 E= -3010.53166764039     Delta-E=       -0.000000224339 Rises=F Damp=F
 DIIS: error= 6.70D-06 at cycle  11 NSaved=  11.
 NSaved=11 IEnMin=11 EnMin= -3010.53166764039     IErMin=11 ErrMin= 6.70D-06
 ErrMax= 6.70D-06  0.00D+00 EMaxC= 1.00D-01 BMatC= 7.82D-09 BMatP= 6.62D-08
 IDIUse=1 WtCom= 1.00D+00 WtEn= 0.00D+00
 Coeff-Com: -0.376D-03 0.503D-03 0.325D-04 0.892D-03 0.191D-02 0.427D-02
 Coeff-Com:  0.161D-01-0.190D-01-0.187D+00-0.201D+00 0.138D+01
 Coeff:     -0.376D-03 0.503D-03 0.325D-04 0.892D-03 0.191D-02 0.427D-02
 Coeff:      0.161D-01-0.190D-01-0.187D+00-0.201D+00 0.138D+01
 Gap=     0.245 Goal=   None    Shift=    0.000
 RMSDP=1.49D-05 MaxDP=1.44D-03 DE=-2.24D-07 OVMax= 3.32D-04

 Cycle  12  Pass 1  IDiag  1:
 RMSU=  1.65D-06    CP:  6.31D-01  2.03D+00  2.00D+00  7.17D-01  8.07D-01
                    CP:  6.91D-01  1.07D+00  1.73D+00  1.19D+00  1.83D+00
                    CP:  1.72D+00
 E= -3010.53166771209     Delta-E=       -0.000000071697 Rises=F Damp=F
 DIIS: error= 3.09D-06 at cycle  12 NSaved=  12.
 NSaved=12 IEnMin=12 EnMin= -3010.53166771209     IErMin=12 ErrMin= 3.09D-06
 ErrMax= 3.09D-06  0.00D+00 EMaxC= 1.00D-01 BMatC= 2.00D-09 BMatP= 7.82D-09
 IDIUse=1 WtCom= 1.00D+00 WtEn= 0.00D+00
 Coeff-Com: -0.197D-03 0.260D-03-0.378D-04 0.360D-03 0.273D-03 0.845D-03
 Coeff-Com:  0.125D-01 0.606D-02-0.103D+00-0.231D+00 0.565D+00 0.749D+00
 Coeff:     -0.197D-03 0.260D-03-0.378D-04 0.360D-03 0.273D-03 0.845D-03
 Coeff:      0.125D-01 0.606D-02-0.103D+00-0.231D+00 0.565D+00 0.749D+00
 Gap=     0.245 Goal=   None    Shift=    0.000
 RMSDP=2.25D-06 MaxDP=1.90D-04 DE=-7.17D-08 OVMax= 9.72D-05

 Cycle  13  Pass 1  IDiag  1:
 RMSU=  8.82D-07    CP:  6.31D-01  2.03D+00  2.00D+00  7.17D-01  8.07D-01
                    CP:  6.91D-01  1.07D+00  1.74D+00  1.20D+00  1.90D+00
                    CP:  1.89D+00  1.20D+00
 E= -3010.53166772045     Delta-E=       -0.000000008361 Rises=F Damp=F
 DIIS: error= 1.64D-06 at cycle  13 NSaved=  13.
 NSaved=13 IEnMin=13 EnMin= -3010.53166772045     IErMin=13 ErrMin= 1.64D-06
 ErrMax= 1.64D-06  0.00D+00 EMaxC= 1.00D-01 BMatC= 3.65D-10 BMatP= 2.00D-09
 IDIUse=1 WtCom= 1.00D+00 WtEn= 0.00D+00
 Coeff-Com:  0.138D-04-0.185D-04-0.219D-04-0.131D-03-0.466D-03-0.104D-02
 Coeff-Com: -0.265D-02 0.372D-02 0.373D-01 0.187D-01-0.263D+00 0.147D+00
 Coeff-Com:  0.106D+01
 Coeff:      0.138D-04-0.185D-04-0.219D-04-0.131D-03-0.466D-03-0.104D-02
 Coeff:     -0.265D-02 0.372D-02 0.373D-01 0.187D-01-0.263D+00 0.147D+00
 Coeff:      0.106D+01
 Gap=     0.245 Goal=   None    Shift=    0.000
 RMSDP=8.97D-07 MaxDP=4.74D-05 DE=-8.36D-09 OVMax= 4.51D-05

 Cycle  14  Pass 1  IDiag  1:
 RMSU=  3.22D-07    CP:  6.31D-01  2.03D+00  2.00D+00  7.17D-01  8.07D-01
                    CP:  6.90D-01  1.07D+00  1.74D+00  1.19D+00  1.92D+00
                    CP:  1.93D+00  1.45D+00  1.54D+00
 E= -3010.53166772225     Delta-E=       -0.000000001807 Rises=F Damp=F
 DIIS: error= 5.24D-07 at cycle  14 NSaved=  14.
 NSaved=14 IEnMin=14 EnMin= -3010.53166772225     IErMin=14 ErrMin= 5.24D-07
 ErrMax= 5.24D-07  0.00D+00 EMaxC= 1.00D-01 BMatC= 6.32D-11 BMatP= 3.65D-10
 IDIUse=1 WtCom= 1.00D+00 WtEn= 0.00D+00
 Coeff-Com:  0.119D-04-0.154D-04-0.860D-05-0.773D-04-0.160D-03-0.408D-03
 Coeff-Com: -0.242D-02 0.227D-03 0.269D-01 0.358D-01-0.175D+00-0.445D-01
 Coeff-Com:  0.390D+00 0.770D+00
 Coeff:      0.119D-04-0.154D-04-0.860D-05-0.773D-04-0.160D-03-0.408D-03
 Coeff:     -0.242D-02 0.227D-03 0.269D-01 0.358D-01-0.175D+00-0.445D-01
 Coeff:      0.390D+00 0.770D+00
 Gap=     0.245 Goal=   None    Shift=    0.000
 RMSDP=3.83D-07 MaxDP=3.88D-05 DE=-1.81D-09 OVMax= 1.37D-05

 Cycle  15  Pass 1  IDiag  1:
 RMSU=  1.33D-07    CP:  6.31D-01  2.03D+00  2.00D+00  7.17D-01  8.07D-01
                    CP:  6.90D-01  1.07D+00  1.74D+00  1.19D+00  1.92D+00
                    CP:  1.94D+00  1.51D+00  1.72D+00  1.25D+00
 E= -3010.53166772253     Delta-E=       -0.000000000273 Rises=F Damp=F
 DIIS: error= 2.74D-07 at cycle  15 NSaved=  15.
 NSaved=15 IEnMin=15 EnMin= -3010.53166772253     IErMin=15 ErrMin= 2.74D-07
 ErrMax= 2.74D-07  0.00D+00 EMaxC= 1.00D-01 BMatC= 1.22D-11 BMatP= 6.32D-11
 IDIUse=1 WtCom= 1.00D+00 WtEn= 0.00D+00
 Coeff-Com:  0.615D-05-0.816D-05 0.328D-05 0.249D-05 0.629D-04 0.120D-03
 Coeff-Com: -0.667D-04-0.653D-03-0.425D-03 0.636D-02 0.713D-02-0.482D-01
 Coeff-Com: -0.132D+00 0.251D+00 0.917D+00
 Coeff:      0.615D-05-0.816D-05 0.328D-05 0.249D-05 0.629D-04 0.120D-03
 Coeff:     -0.667D-04-0.653D-03-0.425D-03 0.636D-02 0.713D-02-0.482D-01
 Coeff:     -0.132D+00 0.251D+00 0.917D+00
 Gap=     0.245 Goal=   None    Shift=    0.000
 RMSDP=1.66D-07 MaxDP=8.27D-06 DE=-2.73D-10 OVMax= 6.16D-06

 Cycle  16  Pass 1  IDiag  1:
 RMSU=  6.27D-08    CP:  6.31D-01  2.03D+00  2.00D+00  7.17D-01  8.07D-01
                    CP:  6.90D-01  1.07D+00  1.74D+00  1.19D+00  1.93D+00
                    CP:  1.94D+00  1.53D+00  1.79D+00  1.44D+00  1.45D+00
 E= -3010.53166772255     Delta-E=       -0.000000000024 Rises=F Damp=F
 DIIS: error= 7.08D-08 at cycle  16 NSaved=  16.
 NSaved=16 IEnMin=16 EnMin= -3010.53166772255     IErMin=16 ErrMin= 7.08D-08
 ErrMax= 7.08D-08  0.00D+00 EMaxC= 1.00D-01 BMatC= 9.55D-13 BMatP= 1.22D-11
 IDIUse=1 WtCom= 1.00D+00 WtEn= 0.00D+00
 Coeff-Com: -0.136D-06 0.159D-06 0.155D-05 0.891D-05 0.286D-04 0.584D-04
 Coeff-Com:  0.211D-03-0.204D-03-0.292D-02-0.194D-02 0.186D-01-0.436D-02
 Coeff-Com: -0.568D-01-0.545D-01 0.128D+00 0.974D+00
 Coeff:     -0.136D-06 0.159D-06 0.155D-05 0.891D-05 0.286D-04 0.584D-04
 Coeff:      0.211D-03-0.204D-03-0.292D-02-0.194D-02 0.186D-01-0.436D-02
 Coeff:     -0.568D-01-0.545D-01 0.128D+00 0.974D+00
 Gap=     0.245 Goal=   None    Shift=    0.000
 RMSDP=6.34D-08 MaxDP=4.63D-06 DE=-2.36D-11 OVMax= 1.65D-06

 Cycle  17  Pass 1  IDiag  1:
 RMSU=  2.23D-08    CP:  6.31D-01  2.03D+00  2.00D+00  7.17D-01  8.07D-01
                    CP:  6.90D-01  1.07D+00  1.74D+00  1.19D+00  1.93D+00
                    CP:  1.94D+00  1.53D+00  1.80D+00  1.49D+00  1.73D+00
                    CP:  1.18D+00
 E= -3010.53166772260     Delta-E=       -0.000000000054 Rises=F Damp=F
 DIIS: error= 2.72D-08 at cycle  17 NSaved=  17.
 NSaved=17 IEnMin=17 EnMin= -3010.53166772260     IErMin=17 ErrMin= 2.72D-08
 ErrMax= 2.72D-08  0.00D+00 EMaxC= 1.00D-01 BMatC= 1.98D-13 BMatP= 9.55D-13
 IDIUse=1 WtCom= 1.00D+00 WtEn= 0.00D+00
 Coeff-Com: -0.166D-05 0.221D-05-0.209D-06 0.267D-05 0.130D-05 0.386D-06
 Coeff-Com:  0.513D-04 0.722D-04-0.615D-03-0.104D-02 0.361D-02 0.473D-02
 Coeff-Com:  0.563D-02-0.508D-01-0.915D-01 0.228D+00 0.902D+00
 Coeff:     -0.166D-05 0.221D-05-0.209D-06 0.267D-05 0.130D-05 0.386D-06
 Coeff:      0.513D-04 0.722D-04-0.615D-03-0.104D-02 0.361D-02 0.473D-02
 Coeff:      0.563D-02-0.508D-01-0.915D-01 0.228D+00 0.902D+00
 Gap=     0.245 Goal=   None    Shift=    0.000
 RMSDP=4.54D-08 MaxDP=4.15D-06 DE=-5.37D-11 OVMax= 6.01D-07

 Cycle  18  Pass 1  IDiag  1:
 RMSU=  7.22D-09    CP:  6.31D-01  2.03D+00  2.00D+00  7.17D-01  8.07D-01
                    CP:  6.90D-01  1.07D+00  1.74D+00  1.19D+00  1.93D+00
                    CP:  1.94D+00  1.54D+00  1.80D+00  1.48D+00  1.82D+00
                    CP:  1.40D+00  1.12D+00
 E= -3010.53166772259     Delta-E=        0.000000000011 Rises=F Damp=F
 DIIS: error= 1.53D-08 at cycle  18 NSaved=  18.
 NSaved=18 IEnMin=17 EnMin= -3010.53166772260     IErMin=18 ErrMin= 1.53D-08
 ErrMax= 1.53D-08  0.00D+00 EMaxC= 1.00D-01 BMatC= 4.46D-14 BMatP= 1.98D-13
 IDIUse=1 WtCom= 1.00D+00 WtEn= 0.00D+00
 Coeff-Com: -0.192D-06 0.258D-06-0.300D-06-0.122D-05-0.650D-05-0.148D-04
 Coeff-Com: -0.281D-04 0.877D-04 0.299D-03-0.141D-03-0.248D-02 0.249D-02
 Coeff-Com:  0.146D-01-0.993D-02-0.572D-01-0.952D-01 0.344D+00 0.804D+00
 Coeff:     -0.192D-06 0.258D-06-0.300D-06-0.122D-05-0.650D-05-0.148D-04
 Coeff:     -0.281D-04 0.877D-04 0.299D-03-0.141D-03-0.248D-02 0.249D-02
 Coeff:      0.146D-01-0.993D-02-0.572D-01-0.952D-01 0.344D+00 0.804D+00
 Gap=     0.245 Goal=   None    Shift=    0.000
 RMSDP=3.07D-08 MaxDP=3.15D-06 DE= 1.09D-11 OVMax= 2.41D-07

 Cycle  19  Pass 1  IDiag  1:
 RMSU=  2.52D-09    CP:  6.31D-01  2.03D+00  2.00D+00  7.17D-01  8.07D-01
                    CP:  6.90D-01  1.07D+00  1.74D+00  1.19D+00  1.93D+00
                    CP:  1.94D+00  1.54D+00  1.80D+00  1.46D+00  1.86D+00
                    CP:  1.46D+00  1.30D+00  1.20D+00
 E= -3010.53166772252     Delta-E=        0.000000000068 Rises=F Damp=F
 DIIS: error= 8.84D-09 at cycle  19 NSaved=  19.
 NSaved=19 IEnMin=17 EnMin= -3010.53166772260     IErMin=19 ErrMin= 8.84D-09
 ErrMax= 8.84D-09  0.00D+00 EMaxC= 1.00D-01 BMatC= 4.44D-15 BMatP= 4.46D-14
 IDIUse=1 WtCom= 1.00D+00 WtEn= 0.00D+00
 Large coefficients: NSaved= 19 BigCof=    0.00 CofMax=   10.00 Det=-8.51D-15
 Inversion failed.  Reducing to 18 matrices.
 Large coefficients: NSaved= 18 BigCof=    0.00 CofMax=   10.00 Det=-1.49D-14
 Inversion failed.  Reducing to 17 matrices.
 Coeff-Com: -0.334D-07-0.131D-06-0.184D-07-0.367D-06-0.679D-05-0.281D-05
 Coeff-Com:  0.817D-04 0.125D-03-0.447D-03-0.389D-03 0.552D-03 0.439D-02
 Coeff-Com:  0.665D-02-0.366D-01-0.914D-01 0.513D-01 0.107D+01
 Coeff:     -0.334D-07-0.131D-06-0.184D-07-0.367D-06-0.679D-05-0.281D-05
 Coeff:      0.817D-04 0.125D-03-0.447D-03-0.389D-03 0.552D-03 0.439D-02
 Coeff:      0.665D-02-0.366D-01-0.914D-01 0.513D-01 0.107D+01
 Gap=     0.245 Goal=   None    Shift=    0.000
 RMSDP=5.89D-09 MaxDP=5.41D-07 DE= 6.82D-11 OVMax= 1.76D-07

 SCF Done:  E(RwB97XD) =  -3010.53166772     A.U. after   19 cycles
            NFock= 19  Conv=0.59D-08     -V/T= 2.0016
 KE= 3.005852633491D+03 PE=-8.699659044501D+03 EE= 1.910276875496D+03
 Leave Link  502 at Thu May  2 14:19:10 2024, MaxMem=   134217728 cpu:            1189.4 elap:            1189.5
 (Enter /software/gaussian/g16-c01/sse4/g16/l601.exe)
 Copying SCF densities to generalized density rwf, IOpCl= 0 IROHF=0.

 **********************************************************************

            Population analysis using the SCF Density.

 **********************************************************************

 Alpha  occ. eigenvalues -- -483.31175 -62.86198 -56.65890 -56.65322 -56.65312
 Alpha  occ. eigenvalues --  -19.46196 -19.46180 -14.85620 -10.59174 -10.57998
 Alpha  occ. eigenvalues --  -10.57249 -10.56921 -10.53332 -10.52693  -9.02003
 Alpha  occ. eigenvalues --   -6.84682  -6.82816  -6.82784  -2.94586  -2.94095
 Alpha  occ. eigenvalues --   -2.94069  -2.92577  -2.92576  -1.49880  -1.32839
 Alpha  occ. eigenvalues --   -1.22386  -1.12819  -1.12402  -1.04762  -1.00267
 Alpha  occ. eigenvalues --   -0.95302  -0.90528  -0.84905  -0.80861  -0.80101
 Alpha  occ. eigenvalues --   -0.80018  -0.77864  -0.76157  -0.75538  -0.71947
 Alpha  occ. eigenvalues --   -0.68483  -0.67523  -0.63320  -0.59798  -0.57369
 Alpha  occ. eigenvalues --   -0.56728  -0.56210  -0.55890  -0.54573
 Alpha virt. eigenvalues --   -0.30048  -0.20338  -0.15633  -0.13011  -0.08502
 Alpha virt. eigenvalues --   -0.06032  -0.05471  -0.04858  -0.04123  -0.03163
 Alpha virt. eigenvalues --   -0.02305  -0.01553  -0.01425  -0.00639   0.00499
 Alpha virt. eigenvalues --    0.01023   0.01536   0.01730   0.02584   0.03489
 Alpha virt. eigenvalues --    0.04375   0.05482   0.05808   0.06135   0.06874
 Alpha virt. eigenvalues --    0.07550   0.07740   0.08150   0.09387   0.09616
 Alpha virt. eigenvalues --    0.10143   0.10789   0.11736   0.11912   0.12668
 Alpha virt. eigenvalues --    0.13058   0.13385   0.13645   0.14773   0.15739
 Alpha virt. eigenvalues --    0.16680   0.17253   0.17578   0.18804   0.19072
 Alpha virt. eigenvalues --    0.20170   0.20837   0.21574   0.22474   0.24147
 Alpha virt. eigenvalues --    0.24669   0.26639   0.28019   0.29481   0.31956
 Alpha virt. eigenvalues --    0.32615   0.33454   0.33608   0.34460   0.36618
 Alpha virt. eigenvalues --    0.37348   0.37795   0.39639   0.40753   0.41966
 Alpha virt. eigenvalues --    0.43422   0.44215   0.45495   0.47020   0.47474
 Alpha virt. eigenvalues --    0.48666   0.50528   0.50957   0.52330   0.53684
 Alpha virt. eigenvalues --    0.55206   0.56066   0.58178   0.58286   0.60300
 Alpha virt. eigenvalues --    0.61240   0.62394   0.64603   0.67640   0.68299
 Alpha virt. eigenvalues --    0.71446   0.71711   0.72946   0.74481   0.74749
 Alpha virt. eigenvalues --    0.74933   0.77426   0.79737   0.83321   0.85694
 Alpha virt. eigenvalues --    0.87156   0.87728   0.91591   0.94289   0.98834
 Alpha virt. eigenvalues --    1.00452   1.02647   1.03991   1.05762   1.07047
 Alpha virt. eigenvalues --    1.08892   1.12677   1.13435   1.14140   1.17991
 Alpha virt. eigenvalues --    1.21102   1.22940   1.28230   1.33585   1.36429
 Alpha virt. eigenvalues --    1.37055   1.39129   1.43306   1.55055   1.56827
 Alpha virt. eigenvalues --    1.57426   1.59976   1.61362   1.64084   1.65929
 Alpha virt. eigenvalues --    1.68238   1.71598   1.74076   1.75417   1.79612
 Alpha virt. eigenvalues --    1.84096   1.85504   1.87423   1.94969   1.96310
 Alpha virt. eigenvalues --    1.97995   2.02617   2.03112   2.07389   2.09076
 Alpha virt. eigenvalues --    2.12998   2.14796   2.22477   2.23806   2.27541
 Alpha virt. eigenvalues --    2.33674   2.40020   2.41653   2.44500   2.53425
 Alpha virt. eigenvalues --    2.58232   2.63315   2.66117   2.68899   2.71762
 Alpha virt. eigenvalues --    2.73786   2.76450   2.77566   2.80707   2.82196
 Alpha virt. eigenvalues --    2.93377   2.98269   3.01513   3.05971   3.09141
 Alpha virt. eigenvalues --    3.15010   3.16511   3.17713   3.22577   3.26633
 Alpha virt. eigenvalues --    3.27942   3.38043   3.46769   3.50290   3.54779
 Alpha virt. eigenvalues --    3.57721   3.68944   3.74271   3.83816   3.87522
 Alpha virt. eigenvalues --    4.10058   4.10913   4.19482   4.23610   4.43320
 Alpha virt. eigenvalues --    4.45278   4.54806   4.59927   4.93600   4.96428
 Alpha virt. eigenvalues --    5.05294   5.09766   5.62050   6.15196   6.68081
 Alpha virt. eigenvalues --    7.48931   7.51255   7.61363  23.22327  23.61461
 Alpha virt. eigenvalues --   23.72030  23.78178  23.95851  24.02285  35.31543
 Alpha virt. eigenvalues --   47.94156  49.85271  49.93934 289.81797 289.84136
 Alpha virt. eigenvalues --  289.967571020.95337
          Condensed to atoms (all electrons):
               1          2          3          4          5          6
     1  C    7.819306  -2.545711   0.826122  -0.061994   0.297912   0.057400
     2  C   -2.545711  17.168783  -4.109179   0.440323  -0.015773   0.190474
     3  C    0.826122  -4.109179  18.772131  -1.335932   0.025109   0.118702
     4  C   -0.061994   0.440323  -1.335932   6.406847   0.021277  -0.015558
     5  H    0.297912  -0.015773   0.025109   0.021277   0.331247  -0.001659
     6  H    0.057400   0.190474   0.118702  -0.015558  -0.001659   0.311951
     7  H    0.027062  -0.026756   0.021942   0.305707  -0.002784  -0.000004
     8  N   -0.097320   0.012506  -1.703984   0.019473  -0.000459  -0.029874
     9  O   -0.019108   0.253068  -0.098937  -0.016120  -0.000033  -0.002466
    10  O    0.272192  -0.200302  -0.235883  -0.022913   0.000008   0.021324
    11  C    0.753260  -0.654435   2.359797  -0.287539  -0.024684   0.008880
    12  H   -0.010978   0.017210   0.008977   0.016852   0.000016  -0.000017
    13  C   -1.212879  -4.522727  -8.375662   0.855047   0.024337  -0.009076
    14  H   -0.003991   0.011890   0.023306   0.004093  -0.000030   0.000041
    15  Br   0.005878  -0.199239  -0.220175   0.004210  -0.000054  -0.000547
               7          8          9         10         11         12
     1  C    0.027062  -0.097320  -0.019108   0.272192   0.753260  -0.010978
     2  C   -0.026756   0.012506   0.253068  -0.200302  -0.654435   0.017210
     3  C    0.021942  -1.703984  -0.098937  -0.235883   2.359797   0.008977
     4  C    0.305707   0.019473  -0.016120  -0.022913  -0.287539   0.016852
     5  H   -0.002784  -0.000459  -0.000033   0.000008  -0.024684   0.000016
     6  H   -0.000004  -0.029874  -0.002466   0.021324   0.008880  -0.000017
     7  H    0.338051   0.000002   0.000004   0.000000   0.031269  -0.002331
     8  N    0.000002   7.630553   0.061812   0.192712  -0.314379   0.000474
     9  O    0.000004   0.061812   7.885881   0.004941   0.264441   0.000103
    10  O    0.000000   0.192712   0.004941   7.818363   0.006228  -0.000022
    11  C    0.031269  -0.314379   0.264441   0.006228   7.931535   0.314470
    12  H   -0.002331   0.000474   0.000103  -0.000022   0.314470   0.321535
    13  C   -0.022613   1.333571  -0.377625   0.071357  -4.259820  -0.017637
    14  H   -0.000030  -0.029307   0.011921  -0.001744   0.013917  -0.004567
    15  Br  -0.000429   0.162427  -0.056309   0.003810   0.057345  -0.001058
              13         14         15
     1  C   -1.212879  -0.003991   0.005878
     2  C   -4.522727   0.011890  -0.199239
     3  C   -8.375662   0.023306  -0.220175
     4  C    0.855047   0.004093   0.004210
     5  H    0.024337  -0.000030  -0.000054
     6  H   -0.009076   0.000041  -0.000547
     7  H   -0.022613  -0.000030  -0.000429
     8  N    1.333571  -0.029307   0.162427
     9  O   -0.377625   0.011921  -0.056309
    10  O    0.071357  -0.001744   0.003810
    11  C   -4.259820   0.013917   0.057345
    12  H   -0.017637  -0.004567  -0.001058
    13  C   22.190625   0.280615   0.397412
    14  H    0.280615   0.319506  -0.039754
    15  Br   0.397412  -0.039754  34.712040
 Mulliken charges:
               1
     1  C   -0.107151
     2  C    0.179866
     3  C   -0.076333
     4  C   -0.333774
     5  H    0.345570
     6  H    0.350429
     7  H    0.330908
     8  N   -0.238207
     9  O    0.088428
    10  O    0.069927
    11  C   -0.200286
    12  H    0.356972
    13  C   -0.354924
    14  H    0.414134
    15  Br   0.174442
 Sum of Mulliken charges =   1.00000
 Mulliken charges with hydrogens summed into heavy atoms:
               1
     1  C    0.238419
     2  C    0.530295
     3  C   -0.076333
     4  C   -0.002866
     8  N   -0.238207
     9  O    0.088428
    10  O    0.069927
    11  C    0.156686
    13  C    0.059210
    15  Br   0.174442
 Electronic spatial extent (au):  <R**2>=           3946.3189
 Charge=              1.0000 electrons
 Dipole moment (field-independent basis, Debye):
    X=              2.7691    Y=             -0.8696    Z=             -0.5894  Tot=              2.9617
 Quadrupole moment (field-independent basis, Debye-Ang):
   XX=            -67.8489   YY=            -51.1975   ZZ=            -62.3712
   XY=             -2.8981   XZ=             -2.2282   YZ=              2.3004
 Traceless Quadrupole moment (field-independent basis, Debye-Ang):
   XX=             -7.3764   YY=              9.2750   ZZ=             -1.8987
   XY=             -2.8981   XZ=             -2.2282   YZ=              2.3004
 Octapole moment (field-independent basis, Debye-Ang**2):
  XXX=           -513.0358  YYY=             92.3297  ZZZ=             83.7148  XYY=           -136.6747
  XXY=             24.5342  XXZ=             26.4663  XZZ=           -132.9407  YZZ=             17.5347
  YYZ=             26.1682  XYZ=              7.6386
 Hexadecapole moment (field-independent basis, Debye-Ang**3):
 XXXX=          -3448.4795 YYYY=           -702.5323 ZZZZ=           -397.2096 XXXY=            179.4442
 XXXZ=            186.9840 YYYX=            185.6935 YYYZ=           -172.8986 ZZZX=            169.1483
 ZZZY=           -145.5998 XXYY=           -624.2717 XXZZ=           -527.1429 YYZZ=           -172.3424
 XXYZ=            -41.9983 YYXZ=             50.4642 ZZXY=             29.7486
 N-N= 7.729978677907D+02 E-N=-8.699659044103D+03  KE= 3.005852633491D+03
 No NMR shielding tensors so no spin-rotation constants.
 Leave Link  601 at Thu May  2 14:19:18 2024, MaxMem=   134217728 cpu:               7.6 elap:               7.6
 (Enter /software/gaussian/g16-c01/sse4/g16/l9999.exe)
 Unable to Open any file for archive entry.
 1\1\GINC-BHX0017\SP\RwB97XD\6-311+G(d)\C6H5Br1N1O2(1+)\BWEIGHT\02-May-
 2024\0\\#P wB97XD/6-311+G* NoSymm #P Field=Z-9\\TitleMe\\1,1\C,0,0.519
 3,1.233,-0.0319\C,0,1.9445,1.2692,-0.0367\C,0,2.6204,0.0928,-0.025\C,0
 ,-0.196,0.0301,0.001\H,0,-0.0207,2.1742,-0.0434\H,0,2.4828,2.2089,-0.0
 361\H,0,-1.2777,0.0399,0.0117\N,0,4.0921,0.0959,0.0366\O,0,4.6393,-1.0
 217,0.1446\O,0,4.6649,1.1984,-0.0233\C,0,0.4943,-1.1671,0.021\H,0,-0.0
 325,-2.1149,0.0545\C,0,1.9629,-1.2165,-0.0211\H,0,2.4436,-1.9631,0.615
 1\Br,0,2.173,-1.9491,-1.9062\\Version=ES64L-G16RevC.01\HF=-3010.531667
 7\RMSD=5.886e-09\Dipole=-3.2397512,0.886009,1.0173317\Quadrupole=-5.48
 41634,6.8957702,-1.4116068,-2.1546716,-1.6566473,1.7103177\PG=C01 [X(C
 6H5Br1N1O2)]\\@
 The archive entry for this job was punched.


 NO MATTER HOW THIN YOU SLICE IT, IT'S STILL BALONEY

                                   -- ALFRED E. SMITH
 Job cpu time:       0 days  0 hours 20 minutes 59.2 seconds.
 Elapsed time:       0 days  0 hours 20 minutes 59.5 seconds.
 File lengths (MBytes):  RWF=     40 Int=      0 D2E=      0 Chk=     32 Scr=      1
 Normal termination of Gaussian 16 at Thu May  2 14:19:19 2024.
