 Entering Gaussian System, Link 0=g16
 Initial command:
 /software/gaussian/g16-c01/sse4/g16/l1.exe "/local_scratch/24657527/Gau-24833.inp" -scrdir="/local_scratch/24657527/"
 Entering Link 1 = /software/gaussian/g16-c01/sse4/g16/l1.exe PID=     24834.
  
 Copyright (c) 1988-2019, Gaussian, Inc.  All Rights Reserved.
  
 This is part of the Gaussian(R) 16 program.  It is based on
 the Gaussian(R) 09 system (copyright 2009, Gaussian, Inc.),
 the Gaussian(R) 03 system (copyright 2003, Gaussian, Inc.),
 the Gaussian(R) 98 system (copyright 1998, Gaussian, Inc.),
 the Gaussian(R) 94 system (copyright 1995, Gaussian, Inc.),
 the Gaussian 92(TM) system (copyright 1992, Gaussian, Inc.),
 the Gaussian 90(TM) system (copyright 1990, Gaussian, Inc.),
 the Gaussian 88(TM) system (copyright 1988, Gaussian, Inc.),
 the Gaussian 86(TM) system (copyright 1986, Carnegie Mellon
 University), and the Gaussian 82(TM) system (copyright 1983,
 Carnegie Mellon University). Gaussian is a federally registered
 trademark of Gaussian, Inc.
  
 This software contains proprietary and confidential information,
 including trade secrets, belonging to Gaussian, Inc.
  
 This software is provided under written license and may be
 used, copied, transmitted, or stored only in accord with that
 written license.
  
 The following legend is applicable only to US Government
 contracts under FAR:
  
                    RESTRICTED RIGHTS LEGEND
  
 Use, reproduction and disclosure by the US Government is
 subject to restrictions as set forth in subparagraphs (a)
 and (c) of the Commercial Computer Software - Restricted
 Rights clause in FAR 52.227-19.
  
 Gaussian, Inc.
 340 Quinnipiac St., Bldg. 40, Wallingford CT 06492
  
  
 ---------------------------------------------------------------
 Warning -- This program may not be used in any manner that
 competes with the business of Gaussian, Inc. or will provide
 assistance to any competitor of Gaussian, Inc.  The licensee
 of this program is prohibited from giving any competitor of
 Gaussian, Inc. access to this program.  By using this program,
 the user acknowledges that Gaussian, Inc. is engaged in the
 business of creating and licensing software in the field of
 computational chemistry and represents and warrants to the
 licensee that it is not a competitor of Gaussian, Inc. and that
 it will not use this program in any manner prohibited above.
 ---------------------------------------------------------------
  

 Cite this work as:
 Gaussian 16, Revision C.01,
 M. J. Frisch, G. W. Trucks, H. B. Schlegel, G. E. Scuseria, 
 M. A. Robb, J. R. Cheeseman, G. Scalmani, V. Barone, 
 G. A. Petersson, H. Nakatsuji, X. Li, M. Caricato, A. V. Marenich, 
 J. Bloino, B. G. Janesko, R. Gomperts, B. Mennucci, H. P. Hratchian, 
 J. V. Ortiz, A. F. Izmaylov, J. L. Sonnenberg, D. Williams-Young, 
 F. Ding, F. Lipparini, F. Egidi, J. Goings, B. Peng, A. Petrone, 
 T. Henderson, D. Ranasinghe, V. G. Zakrzewski, J. Gao, N. Rega, 
 G. Zheng, W. Liang, M. Hada, M. Ehara, K. Toyota, R. Fukuda, 
 J. Hasegawa, M. Ishida, T. Nakajima, Y. Honda, O. Kitao, H. Nakai, 
 T. Vreven, K. Throssell, J. A. Montgomery, Jr., J. E. Peralta, 
 F. Ogliaro, M. J. Bearpark, J. J. Heyd, E. N. Brothers, K. N. Kudin, 
 V. N. Staroverov, T. A. Keith, R. Kobayashi, J. Normand, 
 K. Raghavachari, A. P. Rendell, J. C. Burant, S. S. Iyengar, 
 J. Tomasi, M. Cossi, J. M. Millam, M. Klene, C. Adamo, R. Cammi, 
 J. W. Ochterski, R. L. Martin, K. Morokuma, O. Farkas, 
 J. B. Foresman, and D. J. Fox, Gaussian, Inc., Wallingford CT, 2019.
 
 ******************************************
 Gaussian 16:  ES64L-G16RevC.01  3-Jul-2019
                 1-May-2024 
 ******************************************
 %chk=geometry.chk
 %mem=9GB
 %nprocshared=12
 Will use up to   12 processors via shared memory.
 ----------------------------------------
 #P wB97XD/6-311+G* NoSymm #P Field=Y+252
 ----------------------------------------
 1/38=1,172=1/1;
 2/12=2,15=1,17=6,18=5,40=1/2;
 3/5=4,6=6,7=11,11=2,14=2,15=252,25=1,30=1,74=-58/1,2,3;
 4//1;
 5/5=2,38=5/2;
 6/7=2,8=2,9=2,10=2,28=1/1;
 99/5=1,9=1/99;
 Leave Link    1 at Wed May  1 14:50:54 2024, MaxMem=  1207959552 cpu:               1.3 elap:               1.3
 (Enter /software/gaussian/g16-c01/sse4/g16/l101.exe)
 -------
 TitleMe
 -------
 Symbolic Z-matrix:
 Charge =  1 Multiplicity = 1
 C                     0.0295    1.3397    0.0682 
 C                     1.4348    1.2867    0.0064 
 C                     2.1118    0.0511   -0.0054 
 C                     1.4451   -1.1372    0.0312 
 C                    -0.6879    0.1682    0.11 
 H                    -0.4713    2.2984    0.0781 
 H                     2.0273    2.1965   -0.0322 
 H                     1.9897   -2.0764    0.0232 
 H                    -1.7716    0.1804    0.1582 
 N                     3.5864    0.051    -0.0675 
 O                     4.1471   -1.0597   -0.0881 
 O                     4.145     1.1639   -0.0901 
 C                    -0.0236   -1.1458    0.0835 
 H                    -0.4367   -1.8725    0.7889 
 Br                   -0.5359   -1.8697   -1.7408 
 
 ITRead=  0  0  0  0  0  0  0  0  0  0  0  0  0  0  0
 MicOpt= -1 -1 -1 -1 -1 -1 -1 -1 -1 -1 -1 -1 -1 -1 -1
 NAtoms=     15 NQM=       15 NQMF=       0 NMMI=      0 NMMIF=      0
                NMic=       0 NMicF=      0.
                    Isotopes and Nuclear Properties:
 (Nuclear quadrupole moments (NQMom) in fm**2, nuclear magnetic moments (NMagM)
  in nuclear magnetons)

  Atom         1           2           3           4           5           6           7           8           9          10
 IAtWgt=          12          12          12          12          12           1           1           1           1          14
 AtmWgt=  12.0000000  12.0000000  12.0000000  12.0000000  12.0000000   1.0078250   1.0078250   1.0078250   1.0078250  14.0030740
 NucSpn=           0           0           0           0           0           1           1           1           1           2
 AtZEff=  -0.0000000  -0.0000000  -0.0000000  -0.0000000  -0.0000000  -0.0000000  -0.0000000  -0.0000000  -0.0000000  -0.0000000
 NQMom=    0.0000000   0.0000000   0.0000000   0.0000000   0.0000000   0.0000000   0.0000000   0.0000000   0.0000000   2.0440000
 NMagM=    0.0000000   0.0000000   0.0000000   0.0000000   0.0000000   2.7928460   2.7928460   2.7928460   2.7928460   0.4037610
 AtZNuc=   6.0000000   6.0000000   6.0000000   6.0000000   6.0000000   1.0000000   1.0000000   1.0000000   1.0000000   7.0000000

  Atom        11          12          13          14          15
 IAtWgt=          16          16          12           1          79
 AtmWgt=  15.9949146  15.9949146  12.0000000   1.0078250  78.9183361
 NucSpn=           0           0           0           1           3
 AtZEff=  -0.0000000  -0.0000000  -0.0000000  -0.0000000  -0.0000000
 NQMom=    0.0000000   0.0000000   0.0000000   0.0000000  31.3000000
 NMagM=    0.0000000   0.0000000   0.0000000   2.7928460   2.1063990
 AtZNuc=   8.0000000   8.0000000   6.0000000   1.0000000  35.0000000
 Leave Link  101 at Wed May  1 14:50:55 2024, MaxMem=  1207959552 cpu:               1.4 elap:               1.4
 (Enter /software/gaussian/g16-c01/sse4/g16/l202.exe)
                          Input orientation:                          
 ---------------------------------------------------------------------
 Center     Atomic      Atomic             Coordinates (Angstroms)
 Number     Number       Type             X           Y           Z
 ---------------------------------------------------------------------
      1          6           0        0.029500    1.339700    0.068200
      2          6           0        1.434800    1.286700    0.006400
      3          6           0        2.111800    0.051100   -0.005400
      4          6           0        1.445100   -1.137200    0.031200
      5          6           0       -0.687900    0.168200    0.110000
      6          1           0       -0.471300    2.298400    0.078100
      7          1           0        2.027300    2.196500   -0.032200
      8          1           0        1.989700   -2.076400    0.023200
      9          1           0       -1.771600    0.180400    0.158200
     10          7           0        3.586400    0.051000   -0.067500
     11          8           0        4.147100   -1.059700   -0.088100
     12          8           0        4.145000    1.163900   -0.090100
     13          6           0       -0.023600   -1.145800    0.083500
     14          1           0       -0.436700   -1.872500    0.788900
     15         35           0       -0.535900   -1.869700   -1.740800
 ---------------------------------------------------------------------
                    Distance matrix (angstroms):
                    1          2          3          4          5
     1  C    0.000000
     2  C    1.407656   0.000000
     3  C    2.449874   1.408963   0.000000
     4  C    2.853126   2.424049   1.363043   0.000000
     5  C    1.374344   2.401589   2.804523   2.501993   0.000000
     6  H    1.081667   2.159142   3.424870   3.934226   2.141421
     7  H    2.176095   1.086408   2.147231   3.384750   3.392128
     8  H    3.938800   3.408612   2.131193   1.085702   3.495040
     9  H    2.143837   3.395283   3.888995   3.478413   1.084840
    10  N    3.785591   2.482297   1.475907   2.450862   4.279589
    11  O    4.768247   3.587631   2.320164   2.705743   4.992415
    12  O    4.122294   2.714696   2.319353   3.549540   4.938459
    13  C    2.486114   2.837240   2.449573   1.469656   1.472614
    14  H    3.324903   3.754379   3.290289   2.157764   2.165286
    15  Br   3.727252   4.110867   3.702891   2.756973   2.757100
                    6          7          8          9         10
     6  H    0.000000
     7  H    2.503108   0.000000
     8  H    5.019802   4.273425   0.000000
     9  H    2.486588   4.304945   4.388479   0.000000
    10  N    4.640790   2.652397   2.661486   5.364313   0.000000
    11  O    5.712624   3.885809   2.387560   6.052233   1.244373
    12  O    4.756638   2.356750   3.893289   6.002923   1.245428
    13  C    3.473180   3.923079   2.218790   2.195425   3.806210
    14  H    4.231175   4.827242   2.552506   2.528663   4.540772
    15  Br   4.548146   5.101303   3.087568   3.055498   4.845862
                   11         12         13         14         15
    11  O    0.000000
    12  O    2.223602   0.000000
    13  C    4.175117   4.768865   0.000000
    14  H    4.737193   5.566358   1.093770   0.000000
    15  Br   5.031700   5.817075   2.028436   2.531646   0.000000
 Symmetry turned off by external request.
 Stoichiometry    C6H5BrNO2(1+)
 Framework group  C1[X(C6H5BrNO2)]
 Deg. of freedom    39
 Full point group                 C1      NOp   1
 Rotational constants (GHZ):           1.8252210           0.5518633           0.4576002
 Leave Link  202 at Wed May  1 14:50:56 2024, MaxMem=  1207959552 cpu:               1.3 elap:               1.3
 (Enter /software/gaussian/g16-c01/sse4/g16/l301.exe)
 Standard basis: 6-311+G(d) (5D, 7F)
 Ernie: Thresh=  0.10000D-02 Tol=  0.10000D-05 Strict=F.
 The following finite field(s) will be applied:
 An electric field of              0.0000  0.0252  0.0000
   261 basis functions,   443 primitive gaussians,   273 cartesian basis functions
    49 alpha electrons       49 beta electrons
       nuclear repulsion energy       739.2122215416 Hartrees.
 IExCor= 4639 DFT=T Ex+Corr=wB97XD ExCW=0 ScaHFX=  1.000000
 ScaDFX=  1.000000  1.000000  1.000000  1.000000 ScalE2=  1.000000  1.000000
 IRadAn=      5 IRanWt=     -1 IRanGd=            0 ICorTp=0 IEmpDi=121
 HFx  wShort=  0.000000 wLong=  0.200000 cFull=  0.222036 cShort=  0.000000 cLong=  0.777964
 DFx  wShort=  0.000000 wLong=  0.200000 cFull=  0.000000 cShort=  0.000000 cLong=  1.000000
 NAtoms=   15 NActive=   15 NUniq=   15 SFac= 1.00D+00 NAtFMM=   60 NAOKFM=F Big=F
 Integral buffers will be    131072 words long.
 Raffenetti 2 integral format.
 Two-electron integral symmetry is turned off.
 R6Disp:  Grimme-D2 Dispersion energy=       -0.0077368520 Hartrees.
 Nuclear repulsion after empirical dispersion term =      739.2044846896 Hartrees.
 Leave Link  301 at Wed May  1 14:50:58 2024, MaxMem=  1207959552 cpu:               1.1 elap:               1.2
 (Enter /software/gaussian/g16-c01/sse4/g16/l302.exe)
 NPDir=0 NMtPBC=     1 NCelOv=     1 NCel=       1 NClECP=     1 NCelD=      1
         NCelK=      1 NCelE2=     1 NClLst=     1 CellRange=     0.0.
 One-electron integrals computed using PRISM.
 NBasis=   261 RedAO= T EigKep=  2.35D-06  NBF=   261
 NBsUse=   261 1.00D-06 EigRej= -1.00D+00 NBFU=   261
 Precomputing XC quadrature grid using
 IXCGrd= 4 IRadAn=           5 IRanWt=          -1 IRanGd=           0 AccXCQ= 0.00D+00.
 Generated NRdTot=       0 NPtTot=           0 NUsed=           0 NTot=          32
 NSgBfM=   273   273   273   273   273 MxSgAt=    15 MxSgA2=    15.
 Leave Link  302 at Wed May  1 14:51:19 2024, MaxMem=  1207959552 cpu:              21.5 elap:              21.5
 (Enter /software/gaussian/g16-c01/sse4/g16/l303.exe)
 DipDrv:  MaxL=1.
 The nuclear repulsion energy is now       736.3402518225 hartrees.
 Leave Link  303 at Wed May  1 14:51:22 2024, MaxMem=  1207959552 cpu:               3.3 elap:               3.3
 (Enter /software/gaussian/g16-c01/sse4/g16/l401.exe)
 ExpMin= 3.50D-02 ExpMax= 4.40D+05 ExpMxC= 1.51D+04 IAcc=3 IRadAn=         5 AccDes= 0.00D+00
 Harris functional with IExCor= 4639 and IRadAn=       5 diagonalized for initial guess.
 HarFok:  IExCor= 4639 AccDes= 0.00D+00 IRadAn=         5 IDoV= 1 UseB2=F ITyADJ=14
 ICtDFT=  3500011 ScaDFX=  1.000000  1.000000  1.000000  1.000000
 FoFCou: FMM=F IPFlag=           0 FMFlag=      100000 FMFlg1=           0
         NFxFlg=           0 DoJE=T BraDBF=F KetDBF=T FulRan=T
         wScrn=  0.000000 ICntrl=       500 IOpCl=  0 I1Cent=   200000004 NGrid=           0
         NMat0=    1 NMatS0=      1 NMatT0=    0 NMatD0=    1 NMtDS0=    0 NMtDT0=    0
 Symmetry not used in FoFCou.
 Harris En= -2970.79258663315    
 JPrj=0 DoOrth=F DoCkMO=F.
 Leave Link  401 at Wed May  1 14:51:53 2024, MaxMem=  1207959552 cpu:              30.9 elap:              30.9
 (Enter /software/gaussian/g16-c01/sse4/g16/l502.exe)
 Two-electron integral symmetry not used.
 Closed shell SCF:
 Using DIIS extrapolation, IDIIS=  1040.
 NGot=  1207959552 LenX=  1207804877 LenY=  1207729907
 Requested convergence on RMS density matrix=1.00D-08 within 128 cycles.
 Requested convergence on MAX density matrix=1.00D-06.
 Requested convergence on             energy=1.00D-06.
 No special actions if energy rises.
 Fock matrices will be formed incrementally for  20 cycles.

 Cycle   1  Pass 1  IDiag  1:
 FoFJK:  IHMeth= 1 ICntrl=       0 DoSepK=T KAlg= 0 I1Cent=           0 FoldK=F
 IRaf=         1 NMat=       1 IRICut=       1 DoRegI=T DoRafI=F ISym2E= 0 IDoP0=0 IntGTp=1.
 FoFCou: FMM=F IPFlag=           0 FMFlag=      100000 FMFlg1=           0
         NFxFlg=           0 DoJE=T BraDBF=F KetDBF=F FulRan=T
         wScrn=  0.000000 ICntrl=       500 IOpCl=  0 I1Cent=           0 NGrid=           0
         NMat0=    1 NMatS0=      1 NMatT0=    0 NMatD0=    1 NMtDS0=    0 NMtDT0=    0
 Symmetry not used in FoFCou.
 E= -3007.40841864684    
 DIIS: error= 3.21D-01 at cycle   1 NSaved=   1.
 NSaved= 1 IEnMin= 1 EnMin= -3007.40841864684     IErMin= 1 ErrMin= 3.21D-01
 ErrMax= 3.21D-01  0.00D+00 EMaxC= 1.00D-01 BMatC= 1.33D+01 BMatP= 1.33D+01
 IDIUse=3 WtCom= 0.00D+00 WtEn= 1.00D+00
 Coeff-Com:  0.100D+01
 Coeff-En:   0.100D+01
 Coeff:      0.100D+01
 Gap=     0.310 Goal=   None    Shift=    0.000
 GapD=    0.310 DampG=1.000 DampE=0.250 DampFc=0.2500 IDamp=-1.
 Damping current iteration by 2.50D-01
 RMSDP=3.66D+00 MaxDP=3.56D+02              OVMax= 7.36D-01

 Cycle   2  Pass 1  IDiag  1:
 RMSU=  2.82D-02    CP:  7.52D-01
 E= -3008.34685929472     Delta-E=       -0.938440647872 Rises=F Damp=T
 DIIS: error= 2.25D-01 at cycle   2 NSaved=   2.
 NSaved= 2 IEnMin= 2 EnMin= -3008.34685929472     IErMin= 2 ErrMin= 2.25D-01
 ErrMax= 2.25D-01  0.00D+00 EMaxC= 1.00D-01 BMatC= 5.50D+00 BMatP= 1.33D+01
 IDIUse=3 WtCom= 0.00D+00 WtEn= 1.00D+00
 Coeff-Com: -0.106D+01 0.206D+01
 Coeff-En:   0.146D+00 0.854D+00
 Coeff:      0.146D+00 0.854D+00
 Gap=     0.229 Goal=   None    Shift=    0.000
 RMSDP=2.75D+00 MaxDP=2.70D+02 DE=-9.38D-01 OVMax= 7.72D-01

 Cycle   3  Pass 1  IDiag  1:
 RMSU=  3.68D-02    CP:  6.83D-03  2.26D+00
 E= -3009.50227465550     Delta-E=       -1.155415360787 Rises=F Damp=F
 DIIS: error= 9.50D-02 at cycle   3 NSaved=   3.
 NSaved= 3 IEnMin= 3 EnMin= -3009.50227465550     IErMin= 3 ErrMin= 9.50D-02
 ErrMax= 9.50D-02  0.00D+00 EMaxC= 1.00D-01 BMatC= 2.08D+00 BMatP= 5.50D+00
 IDIUse=3 WtCom= 5.02D-02 WtEn= 9.50D-01
 EnCoef did   100 forward-backward iterations
 Coeff-Com:  0.133D+00 0.151D+00 0.716D+00
 Coeff-En:   0.255D+00 0.346D-02 0.741D+00
 Coeff:      0.249D+00 0.109D-01 0.740D+00
 Gap=     0.591 Goal=   None    Shift=    0.000
 RMSDP=3.27D-02 MaxDP=2.76D+00 DE=-1.16D+00 OVMax= 3.62D-01

 Cycle   4  Pass 1  IDiag  1:
 RMSU=  2.73D-02    CP:  8.39D-03  1.91D+00  1.37D+00
 E= -3009.53939792343     Delta-E=       -0.037123267928 Rises=F Damp=F
 DIIS: error= 1.09D-01 at cycle   4 NSaved=   4.
 NSaved= 4 IEnMin= 4 EnMin= -3009.53939792343     IErMin= 3 ErrMin= 9.50D-02
 ErrMax= 1.09D-01  0.00D+00 EMaxC= 1.00D-01 BMatC= 1.44D+00 BMatP= 2.08D+00
 IDIUse=3 WtCom= 0.00D+00 WtEn= 1.00D+00
 Coeff-Com:  0.196D+00-0.154D+00 0.503D+00 0.456D+00
 Coeff-En:   0.000D+00 0.000D+00 0.493D+00 0.507D+00
 Coeff:      0.000D+00 0.000D+00 0.493D+00 0.507D+00
 Gap=     0.192 Goal=   None    Shift=    0.000
 RMSDP=2.32D-02 MaxDP=1.29D+00 DE=-3.71D-02 OVMax= 4.16D-01

 Cycle   5  Pass 1  IDiag  1:
 RMSU=  1.81D-02    CP:  1.01D-02  2.09D+00  1.50D+00  5.98D-01
 E= -3010.48830705860     Delta-E=       -0.948909135172 Rises=F Damp=F
 DIIS: error= 2.65D-02 at cycle   5 NSaved=   5.
 NSaved= 5 IEnMin= 5 EnMin= -3010.48830705860     IErMin= 5 ErrMin= 2.65D-02
 ErrMax= 2.65D-02  0.00D+00 EMaxC= 1.00D-01 BMatC= 1.97D-01 BMatP= 1.44D+00
 IDIUse=3 WtCom= 7.35D-01 WtEn= 2.65D-01
 Coeff-Com: -0.476D-01 0.640D-01 0.174D+00 0.230D+00 0.579D+00
 Coeff-En:   0.000D+00 0.000D+00 0.000D+00 0.718D-02 0.993D+00
 Coeff:     -0.350D-01 0.470D-01 0.128D+00 0.171D+00 0.689D+00
 Gap=     0.255 Goal=   None    Shift=    0.000
 RMSDP=1.78D-02 MaxDP=1.43D+00 DE=-9.49D-01 OVMax= 1.03D-01

 Cycle   6  Pass 1  IDiag  1:
 RMSU=  5.17D-03    CP:  8.10D-03  1.76D+00  1.29D+00  5.75D-01  4.76D-01
 E= -3010.55642743662     Delta-E=       -0.068120378017 Rises=F Damp=F
 DIIS: error= 1.59D-02 at cycle   6 NSaved=   6.
 NSaved= 6 IEnMin= 6 EnMin= -3010.55642743662     IErMin= 6 ErrMin= 1.59D-02
 ErrMax= 1.59D-02  0.00D+00 EMaxC= 1.00D-01 BMatC= 3.91D-02 BMatP= 1.97D-01
 IDIUse=3 WtCom= 8.41D-01 WtEn= 1.59D-01
 Coeff-Com: -0.441D-01 0.610D-01 0.226D-01 0.284D-02 0.331D+00 0.627D+00
 Coeff-En:   0.000D+00 0.000D+00 0.000D+00 0.000D+00 0.145D+00 0.855D+00
 Coeff:     -0.371D-01 0.514D-01 0.190D-01 0.239D-02 0.301D+00 0.663D+00
 Gap=     0.268 Goal=   None    Shift=    0.000
 RMSDP=2.56D-03 MaxDP=1.28D-01 DE=-6.81D-02 OVMax= 5.39D-02

 Cycle   7  Pass 1  IDiag  1:
 RMSU=  1.94D-03    CP:  8.15D-03  1.76D+00  1.29D+00  5.19D-01  5.12D-01
                    CP:  9.97D-01
 E= -3010.57586452625     Delta-E=       -0.019437089629 Rises=F Damp=F
 DIIS: error= 2.99D-03 at cycle   7 NSaved=   7.
 NSaved= 7 IEnMin= 7 EnMin= -3010.57586452625     IErMin= 7 ErrMin= 2.99D-03
 ErrMax= 2.99D-03  0.00D+00 EMaxC= 1.00D-01 BMatC= 1.82D-03 BMatP= 3.91D-02
 IDIUse=3 WtCom= 9.70D-01 WtEn= 2.99D-02
 Coeff-Com: -0.212D-01 0.292D-01-0.115D-01-0.106D-01 0.553D-01 0.243D+00
 Coeff-Com:  0.716D+00
 Coeff-En:   0.000D+00 0.000D+00 0.000D+00 0.000D+00 0.000D+00 0.000D+00
 Coeff-En:   0.100D+01
 Coeff:     -0.206D-01 0.283D-01-0.112D-01-0.103D-01 0.536D-01 0.236D+00
 Coeff:      0.724D+00
 Gap=     0.234 Goal=   None    Shift=    0.000
 RMSDP=1.04D-03 MaxDP=8.10D-02 DE=-1.94D-02 OVMax= 1.06D-02

 Cycle   8  Pass 1  IDiag  1:
 RMSU=  5.60D-04    CP:  8.04D-03  1.76D+00  1.28D+00  5.26D-01  4.75D-01
                    CP:  1.03D+00  9.46D-01
 E= -3010.57707779503     Delta-E=       -0.001213268783 Rises=F Damp=F
 DIIS: error= 9.65D-04 at cycle   8 NSaved=   8.
 NSaved= 8 IEnMin= 8 EnMin= -3010.57707779503     IErMin= 8 ErrMin= 9.65D-04
 ErrMax= 9.65D-04  0.00D+00 EMaxC= 1.00D-01 BMatC= 1.68D-04 BMatP= 1.82D-03
 IDIUse=3 WtCom= 9.90D-01 WtEn= 9.65D-03
 Coeff-Com: -0.618D-02 0.823D-02-0.575D-02-0.127D-03-0.191D-01-0.131D-02
 Coeff-Com:  0.294D+00 0.730D+00
 Coeff-En:   0.000D+00 0.000D+00 0.000D+00 0.000D+00 0.000D+00 0.000D+00
 Coeff-En:   0.000D+00 0.100D+01
 Coeff:     -0.612D-02 0.815D-02-0.570D-02-0.126D-03-0.190D-01-0.130D-02
 Coeff:      0.292D+00 0.732D+00
 Gap=     0.234 Goal=   None    Shift=    0.000
 RMSDP=8.43D-04 MaxDP=5.94D-02 DE=-1.21D-03 OVMax= 6.06D-03

 Cycle   9  Pass 1  IDiag  1:
 RMSU=  2.36D-04    CP:  7.97D-03  1.76D+00  1.28D+00  5.25D-01  4.46D-01
                    CP:  1.03D+00  1.15D+00  1.44D+00
 E= -3010.57727857296     Delta-E=       -0.000200777926 Rises=F Damp=F
 DIIS: error= 4.06D-04 at cycle   9 NSaved=   9.
 NSaved= 9 IEnMin= 9 EnMin= -3010.57727857296     IErMin= 9 ErrMin= 4.06D-04
 ErrMax= 4.06D-04  0.00D+00 EMaxC= 1.00D-01 BMatC= 2.64D-05 BMatP= 1.68D-04
 IDIUse=3 WtCom= 9.96D-01 WtEn= 4.06D-03
 Coeff-Com: -0.516D-03 0.652D-03-0.119D-02 0.166D-02-0.166D-01-0.387D-01
 Coeff-Com: -0.592D-02 0.319D+00 0.742D+00
 Coeff-En:   0.000D+00 0.000D+00 0.000D+00 0.000D+00 0.000D+00 0.000D+00
 Coeff-En:   0.000D+00 0.000D+00 0.100D+01
 Coeff:     -0.514D-03 0.649D-03-0.118D-02 0.166D-02-0.165D-01-0.385D-01
 Coeff:     -0.590D-02 0.318D+00 0.743D+00
 Gap=     0.233 Goal=   None    Shift=    0.000
 RMSDP=2.70D-04 MaxDP=2.10D-02 DE=-2.01D-04 OVMax= 4.25D-03

 Cycle  10  Pass 1  IDiag  1:
 RMSU=  1.43D-04    CP:  7.97D-03  1.76D+00  1.28D+00  5.26D-01  4.41D-01
                    CP:  1.04D+00  1.24D+00  1.51D+00  1.09D+00
 E= -3010.57732267481     Delta-E=       -0.000044101853 Rises=F Damp=F
 DIIS: error= 8.46D-05 at cycle  10 NSaved=  10.
 NSaved=10 IEnMin=10 EnMin= -3010.57732267481     IErMin=10 ErrMin= 8.46D-05
 ErrMax= 8.46D-05  0.00D+00 EMaxC= 1.00D-01 BMatC= 3.35D-06 BMatP= 2.64D-05
 IDIUse=1 WtCom= 1.00D+00 WtEn= 0.00D+00
 Coeff-Com:  0.206D-03-0.303D-03-0.826D-05 0.128D-03 0.368D-04-0.131D-02
 Coeff-Com: -0.335D-01-0.491D-02 0.200D+00 0.840D+00
 Coeff:      0.206D-03-0.303D-03-0.826D-05 0.128D-03 0.368D-04-0.131D-02
 Coeff:     -0.335D-01-0.491D-02 0.200D+00 0.840D+00
 Gap=     0.234 Goal=   None    Shift=    0.000
 RMSDP=8.20D-05 MaxDP=4.65D-03 DE=-4.41D-05 OVMax= 3.43D-03

 Cycle  11  Pass 1  IDiag  1:
 RMSU=  4.76D-05    CP:  7.97D-03  1.76D+00  1.28D+00  5.27D-01  4.40D-01
                    CP:  1.04D+00  1.25D+00  1.55D+00  1.16D+00  1.33D+00
 E= -3010.57733561226     Delta-E=       -0.000012937448 Rises=F Damp=F
 DIIS: error= 5.31D-05 at cycle  11 NSaved=  11.
 NSaved=11 IEnMin=11 EnMin= -3010.57733561226     IErMin=11 ErrMin= 5.31D-05
 ErrMax= 5.31D-05  0.00D+00 EMaxC= 1.00D-01 BMatC= 8.17D-07 BMatP= 3.35D-06
 IDIUse=1 WtCom= 1.00D+00 WtEn= 0.00D+00
 Coeff-Com:  0.126D-03-0.197D-03-0.833D-04-0.270D-03 0.305D-02 0.829D-02
 Coeff-Com:  0.746D-02-0.475D-01-0.147D+00 0.551D-01 0.112D+01
 Coeff:      0.126D-03-0.197D-03-0.833D-04-0.270D-03 0.305D-02 0.829D-02
 Coeff:      0.746D-02-0.475D-01-0.147D+00 0.551D-01 0.112D+01
 Gap=     0.234 Goal=   None    Shift=    0.000
 RMSDP=1.38D-04 MaxDP=9.21D-03 DE=-1.29D-05 OVMax= 2.93D-03

 Cycle  12  Pass 1  IDiag  1:
 RMSU=  1.88D-05    CP:  7.98D-03  1.76D+00  1.28D+00  5.27D-01  4.42D-01
                    CP:  1.05D+00  1.27D+00  1.53D+00  1.14D+00  1.83D+00
                    CP:  1.63D+00
 E= -3010.57734190684     Delta-E=       -0.000006294582 Rises=F Damp=F
 DIIS: error= 2.68D-05 at cycle  12 NSaved=  12.
 NSaved=12 IEnMin=12 EnMin= -3010.57734190684     IErMin=12 ErrMin= 2.68D-05
 ErrMax= 2.68D-05  0.00D+00 EMaxC= 1.00D-01 BMatC= 2.33D-07 BMatP= 8.17D-07
 IDIUse=1 WtCom= 1.00D+00 WtEn= 0.00D+00
 Coeff-Com:  0.124D-03-0.166D-03 0.126D-04-0.717D-04 0.530D-03 0.214D-02
 Coeff-Com:  0.129D-01-0.152D-01-0.106D+00-0.241D+00 0.325D+00 0.102D+01
 Coeff:      0.124D-03-0.166D-03 0.126D-04-0.717D-04 0.530D-03 0.214D-02
 Coeff:      0.129D-01-0.152D-01-0.106D+00-0.241D+00 0.325D+00 0.102D+01
 Gap=     0.233 Goal=   None    Shift=    0.000
 RMSDP=9.22D-05 MaxDP=6.41D-03 DE=-6.29D-06 OVMax= 2.24D-03

 Cycle  13  Pass 1  IDiag  1:
 RMSU=  1.43D-05    CP:  7.99D-03  1.77D+00  1.28D+00  5.28D-01  4.44D-01
                    CP:  1.05D+00  1.28D+00  1.52D+00  1.16D+00  2.15D+00
                    CP:  2.09D+00  1.73D+00
 E= -3010.57734411441     Delta-E=       -0.000002207569 Rises=F Damp=F
 DIIS: error= 1.11D-05 at cycle  13 NSaved=  13.
 NSaved=13 IEnMin=13 EnMin= -3010.57734411441     IErMin=13 ErrMin= 1.11D-05
 ErrMax= 1.11D-05  0.00D+00 EMaxC= 1.00D-01 BMatC= 4.61D-08 BMatP= 2.33D-07
 IDIUse=1 WtCom= 1.00D+00 WtEn= 0.00D+00
 Coeff-Com:  0.196D-05 0.377D-05 0.448D-04 0.111D-04-0.560D-03-0.139D-02
 Coeff-Com:  0.617D-03 0.672D-02 0.163D-01-0.588D-01-0.206D+00 0.272D+00
 Coeff-Com:  0.972D+00
 Coeff:      0.196D-05 0.377D-05 0.448D-04 0.111D-04-0.560D-03-0.139D-02
 Coeff:      0.617D-03 0.672D-02 0.163D-01-0.588D-01-0.206D+00 0.272D+00
 Coeff:      0.972D+00
 Gap=     0.233 Goal=   None    Shift=    0.000
 RMSDP=2.95D-05 MaxDP=1.61D-03 DE=-2.21D-06 OVMax= 9.58D-04

 Cycle  14  Pass 1  IDiag  1:
 RMSU=  7.22D-06    CP:  7.99D-03  1.77D+00  1.28D+00  5.28D-01  4.44D-01
                    CP:  1.05D+00  1.28D+00  1.52D+00  1.15D+00  2.24D+00
                    CP:  2.24D+00  2.18D+00  1.33D+00
 E= -3010.57734448862     Delta-E=       -0.000000374206 Rises=F Damp=F
 DIIS: error= 4.30D-06 at cycle  14 NSaved=  14.
 NSaved=14 IEnMin=14 EnMin= -3010.57734448862     IErMin=14 ErrMin= 4.30D-06
 ErrMax= 4.30D-06  0.00D+00 EMaxC= 1.00D-01 BMatC= 8.58D-09 BMatP= 4.61D-08
 IDIUse=1 WtCom= 1.00D+00 WtEn= 0.00D+00
 Coeff-Com: -0.422D-05 0.777D-05 0.326D-04 0.169D-04-0.141D-03-0.811D-03
 Coeff-Com: -0.279D-02 0.194D-02 0.168D-01 0.302D-01-0.861D-01-0.104D+00
 Coeff-Com:  0.120D+00 0.102D+01
 Coeff:     -0.422D-05 0.777D-05 0.326D-04 0.169D-04-0.141D-03-0.811D-03
 Coeff:     -0.279D-02 0.194D-02 0.168D-01 0.302D-01-0.861D-01-0.104D+00
 Coeff:      0.120D+00 0.102D+01
 Gap=     0.233 Goal=   None    Shift=    0.000
 RMSDP=1.63D-05 MaxDP=1.28D-03 DE=-3.74D-07 OVMax= 3.77D-04

 Cycle  15  Pass 1  IDiag  1:
 RMSU=  1.88D-06    CP:  7.99D-03  1.77D+00  1.28D+00  5.28D-01  4.45D-01
                    CP:  1.05D+00  1.29D+00  1.52D+00  1.16D+00  2.27D+00
                    CP:  2.28D+00  2.36D+00  1.68D+00  1.39D+00
 E= -3010.57734454698     Delta-E=       -0.000000058360 Rises=F Damp=F
 DIIS: error= 2.76D-06 at cycle  15 NSaved=  15.
 NSaved=15 IEnMin=15 EnMin= -3010.57734454698     IErMin=15 ErrMin= 2.76D-06
 ErrMax= 2.76D-06  0.00D+00 EMaxC= 1.00D-01 BMatC= 2.74D-09 BMatP= 8.58D-09
 IDIUse=1 WtCom= 1.00D+00 WtEn= 0.00D+00
 Coeff-Com:  0.596D-06-0.627D-06 0.125D-04 0.636D-05 0.680D-04-0.112D-03
 Coeff-Com: -0.141D-02-0.967D-03 0.269D-02 0.257D-01 0.133D-01-0.912D-01
 Coeff-Com: -0.195D+00 0.431D+00 0.816D+00
 Coeff:      0.596D-06-0.627D-06 0.125D-04 0.636D-05 0.680D-04-0.112D-03
 Coeff:     -0.141D-02-0.967D-03 0.269D-02 0.257D-01 0.133D-01-0.912D-01
 Coeff:     -0.195D+00 0.431D+00 0.816D+00
 Gap=     0.233 Goal=   None    Shift=    0.000
 RMSDP=6.12D-06 MaxDP=3.87D-04 DE=-5.84D-08 OVMax= 1.20D-04

 Cycle  16  Pass 1  IDiag  1:
 RMSU=  1.18D-06    CP:  7.99D-03  1.77D+00  1.28D+00  5.28D-01  4.45D-01
                    CP:  1.05D+00  1.29D+00  1.52D+00  1.16D+00  2.29D+00
                    CP:  2.29D+00  2.44D+00  1.78D+00  1.59D+00  1.14D+00
 E= -3010.57734455603     Delta-E=       -0.000000009052 Rises=F Damp=F
 DIIS: error= 8.23D-07 at cycle  16 NSaved=  16.
 NSaved=16 IEnMin=16 EnMin= -3010.57734455603     IErMin=16 ErrMin= 8.23D-07
 ErrMax= 8.23D-07  0.00D+00 EMaxC= 1.00D-01 BMatC= 2.21D-10 BMatP= 2.74D-09
 IDIUse=1 WtCom= 1.00D+00 WtEn= 0.00D+00
 Coeff-Com:  0.150D-05-0.210D-05 0.261D-05-0.188D-05 0.369D-04 0.873D-04
 Coeff-Com:  0.107D-03-0.621D-03-0.140D-02 0.825D-03 0.127D-01-0.105D-02
 Coeff-Com: -0.595D-01-0.470D-01 0.141D+00 0.955D+00
 Coeff:      0.150D-05-0.210D-05 0.261D-05-0.188D-05 0.369D-04 0.873D-04
 Coeff:      0.107D-03-0.621D-03-0.140D-02 0.825D-03 0.127D-01-0.105D-02
 Coeff:     -0.595D-01-0.470D-01 0.141D+00 0.955D+00
 Gap=     0.233 Goal=   None    Shift=    0.000
 RMSDP=1.23D-06 MaxDP=6.26D-05 DE=-9.05D-09 OVMax= 2.99D-05

 Cycle  17  Pass 1  IDiag  1:
 RMSU=  3.50D-07    CP:  7.99D-03  1.77D+00  1.28D+00  5.28D-01  4.45D-01
                    CP:  1.05D+00  1.29D+00  1.52D+00  1.16D+00  2.29D+00
                    CP:  2.29D+00  2.45D+00  1.80D+00  1.65D+00  1.36D+00
                    CP:  1.08D+00
 E= -3010.57734455703     Delta-E=       -0.000000001002 Rises=F Damp=F
 DIIS: error= 2.58D-07 at cycle  17 NSaved=  17.
 NSaved=17 IEnMin=17 EnMin= -3010.57734455703     IErMin=17 ErrMin= 2.58D-07
 ErrMax= 2.58D-07  0.00D+00 EMaxC= 1.00D-01 BMatC= 4.23D-11 BMatP= 2.21D-10
 IDIUse=1 WtCom= 1.00D+00 WtEn= 0.00D+00
 Coeff-Com:  0.128D-05-0.172D-05 0.334D-06-0.111D-05 0.276D-05 0.364D-04
 Coeff-Com:  0.196D-03-0.715D-04-0.555D-03-0.253D-02 0.190D-02 0.957D-02
 Coeff-Com:  0.350D-02-0.610D-01-0.523D-01 0.325D+00 0.777D+00
 Coeff:      0.128D-05-0.172D-05 0.334D-06-0.111D-05 0.276D-05 0.364D-04
 Coeff:      0.196D-03-0.715D-04-0.555D-03-0.253D-02 0.190D-02 0.957D-02
 Coeff:      0.350D-02-0.610D-01-0.523D-01 0.325D+00 0.777D+00
 Gap=     0.233 Goal=   None    Shift=    0.000
 RMSDP=4.00D-07 MaxDP=2.19D-05 DE=-1.00D-09 OVMax= 1.13D-05

 Cycle  18  Pass 1  IDiag  1:
 RMSU=  1.24D-07    CP:  7.99D-03  1.77D+00  1.28D+00  5.28D-01  4.45D-01
                    CP:  1.05D+00  1.29D+00  1.52D+00  1.16D+00  2.29D+00
                    CP:  2.30D+00  2.44D+00  1.80D+00  1.65D+00  1.41D+00
                    CP:  1.12D+00  1.42D+00
 E= -3010.57734455724     Delta-E=       -0.000000000208 Rises=F Damp=F
 DIIS: error= 1.51D-07 at cycle  18 NSaved=  18.
 NSaved=18 IEnMin=18 EnMin= -3010.57734455724     IErMin=18 ErrMin= 1.51D-07
 ErrMax= 1.51D-07  0.00D+00 EMaxC= 1.00D-01 BMatC= 9.60D-12 BMatP= 4.23D-11
 IDIUse=1 WtCom= 1.00D+00 WtEn= 0.00D+00
 Coeff-Com:  0.770D-07-0.132D-06-0.104D-05-0.225D-06-0.625D-05-0.517D-05
 Coeff-Com:  0.359D-04 0.153D-03 0.187D-03-0.782D-03-0.235D-02 0.196D-02
 Coeff-Com:  0.150D-01-0.351D-02-0.486D-01-0.153D+00 0.192D+00 0.998D+00
 Coeff:      0.770D-07-0.132D-06-0.104D-05-0.225D-06-0.625D-05-0.517D-05
 Coeff:      0.359D-04 0.153D-03 0.187D-03-0.782D-03-0.235D-02 0.196D-02
 Coeff:      0.150D-01-0.351D-02-0.486D-01-0.153D+00 0.192D+00 0.998D+00
 Gap=     0.233 Goal=   None    Shift=    0.000
 RMSDP=3.26D-07 MaxDP=1.87D-05 DE=-2.08D-10 OVMax= 1.07D-05

 Cycle  19  Pass 1  IDiag  1:
 RMSU=  9.23D-08    CP:  7.99D-03  1.77D+00  1.28D+00  5.28D-01  4.45D-01
                    CP:  1.05D+00  1.29D+00  1.52D+00  1.16D+00  2.29D+00
                    CP:  2.30D+00  2.44D+00  1.81D+00  1.64D+00  1.45D+00
                    CP:  1.16D+00  1.74D+00  1.50D+00
 E= -3010.57734455726     Delta-E=       -0.000000000020 Rises=F Damp=F
 DIIS: error= 8.14D-08 at cycle  19 NSaved=  19.
 NSaved=19 IEnMin=19 EnMin= -3010.57734455726     IErMin=19 ErrMin= 8.14D-08
 ErrMax= 8.14D-08  0.00D+00 EMaxC= 1.00D-01 BMatC= 2.63D-12 BMatP= 9.60D-12
 IDIUse=1 WtCom= 1.00D+00 WtEn= 0.00D+00
 Coeff-Com: -0.708D-07 0.733D-07-0.382D-06 0.714D-07-0.172D-05-0.581D-05
 Coeff-Com: -0.358D-04 0.419D-04 0.141D-03 0.386D-03-0.745D-03-0.202D-02
 Coeff-Com:  0.223D-02 0.124D-01 0.648D-02-0.973D-01-0.143D+00 0.196D+00
 Coeff-Com:  0.103D+01
 Coeff:     -0.708D-07 0.733D-07-0.382D-06 0.714D-07-0.172D-05-0.581D-05
 Coeff:     -0.358D-04 0.419D-04 0.141D-03 0.386D-03-0.745D-03-0.202D-02
 Coeff:      0.223D-02 0.124D-01 0.648D-02-0.973D-01-0.143D+00 0.196D+00
 Coeff:      0.103D+01
 Gap=     0.233 Goal=   None    Shift=    0.000
 RMSDP=1.53D-07 MaxDP=8.12D-06 DE=-2.05D-11 OVMax= 6.53D-06

 Cycle  20  Pass 1  IDiag  1:
 RMSU=  2.71D-08    CP:  7.99D-03  1.77D+00  1.28D+00  5.28D-01  4.45D-01
                    CP:  1.05D+00  1.29D+00  1.52D+00  1.16D+00  2.29D+00
                    CP:  2.30D+00  2.44D+00  1.81D+00  1.64D+00  1.46D+00
                    CP:  1.15D+00  1.93D+00  1.94D+00  1.51D+00
 E= -3010.57734455733     Delta-E=       -0.000000000067 Rises=F Damp=F
 DIIS: error= 4.12D-08 at cycle  20 NSaved=  20.
 NSaved=20 IEnMin=20 EnMin= -3010.57734455733     IErMin=20 ErrMin= 4.12D-08
 ErrMax= 4.12D-08  0.00D+00 EMaxC= 1.00D-01 BMatC= 6.22D-13 BMatP= 2.63D-12
 IDIUse=1 WtCom= 1.00D+00 WtEn= 0.00D+00
 Coeff-Com: -0.875D-07 0.121D-06 0.502D-07 0.104D-06 0.107D-05-0.171D-06
 Coeff-Com: -0.196D-04-0.231D-04-0.136D-04 0.324D-03 0.568D-03-0.133D-02
 Coeff-Com: -0.333D-02 0.341D-02 0.175D-01 0.978D-02-0.954D-01-0.201D+00
 Coeff-Com:  0.186D+00 0.108D+01
 Coeff:     -0.875D-07 0.121D-06 0.502D-07 0.104D-06 0.107D-05-0.171D-06
 Coeff:     -0.196D-04-0.231D-04-0.136D-04 0.324D-03 0.568D-03-0.133D-02
 Coeff:     -0.333D-02 0.341D-02 0.175D-01 0.978D-02-0.954D-01-0.201D+00
 Coeff:      0.186D+00 0.108D+01
 Gap=     0.233 Goal=   None    Shift=    0.000
 RMSDP=1.01D-07 MaxDP=5.96D-06 DE=-6.68D-11 OVMax= 4.51D-06

 Cycle  21  Pass 1  IDiag  1:
 Restarting incremental Fock formation.
 E= -3010.57734455729     Delta-E=        0.000000000036 Rises=F Damp=F
 DIIS: error= 2.19D-08 at cycle  21 NSaved=  20.
 NSaved=20 IEnMin=19 EnMin= -3010.57734455733     IErMin=20 ErrMin= 2.19D-08
 ErrMax= 2.19D-08  0.00D+00 EMaxC= 1.00D-01 BMatC= 1.70D-13 BMatP= 6.22D-13
 IDIUse=1 WtCom= 1.00D+00 WtEn= 0.00D+00
 Coeff-Com:  0.164D-08 0.137D-06 0.365D-07 0.582D-06 0.109D-05 0.621D-05
 Coeff-Com: -0.135D-04-0.396D-04-0.662D-04 0.312D-03 0.244D-03-0.904D-03
 Coeff-Com: -0.381D-02 0.282D-02 0.274D-01 0.244D-01-0.646D-01-0.303D+00
 Coeff-Com:  0.233D+00 0.108D+01
 Coeff:      0.164D-08 0.137D-06 0.365D-07 0.582D-06 0.109D-05 0.621D-05
 Coeff:     -0.135D-04-0.396D-04-0.662D-04 0.312D-03 0.244D-03-0.904D-03
 Coeff:     -0.381D-02 0.282D-02 0.274D-01 0.244D-01-0.646D-01-0.303D+00
 Coeff:      0.233D+00 0.108D+01
 Gap=     0.233 Goal=   None    Shift=    0.000
 RMSDP=6.40D-08 MaxDP=4.62D-06 DE= 3.59D-11 OVMax= 2.12D-06

 Cycle  22  Pass 1  IDiag  1:
 RMSU=  5.24D-08    CP:  1.00D+00
 E= -3010.57734455728     Delta-E=        0.000000000006 Rises=F Damp=F
 DIIS: error= 9.66D-09 at cycle  22 NSaved=  20.
 NSaved=20 IEnMin=18 EnMin= -3010.57734455733     IErMin=20 ErrMin= 9.66D-09
 ErrMax= 9.66D-09  0.00D+00 EMaxC= 1.00D-01 BMatC= 2.16D-14 BMatP= 1.70D-13
 IDIUse=1 WtCom= 1.00D+00 WtEn= 0.00D+00
 Coeff-Com:  0.387D-07-0.260D-07 0.636D-07 0.326D-06 0.354D-05 0.303D-05
 Coeff-Com:  0.417D-06-0.479D-04-0.426D-04 0.171D-03 0.454D-03-0.964D-03
 Coeff-Com: -0.137D-02-0.213D-03 0.143D-01 0.347D-01-0.848D-01-0.124D+00
 Coeff-Com:  0.103D+00 0.106D+01
 Coeff:      0.387D-07-0.260D-07 0.636D-07 0.326D-06 0.354D-05 0.303D-05
 Coeff:      0.417D-06-0.479D-04-0.426D-04 0.171D-03 0.454D-03-0.964D-03
 Coeff:     -0.137D-02-0.213D-03 0.143D-01 0.347D-01-0.848D-01-0.124D+00
 Coeff:      0.103D+00 0.106D+01
 Gap=     0.233 Goal=   None    Shift=    0.000
 RMSDP=2.73D-08 MaxDP=1.64D-06 DE= 5.91D-12 OVMax= 6.12D-07

 Cycle  23  Pass 1  IDiag  1:
 RMSU=  1.25D-08    CP:  1.00D+00  1.40D+00
 E= -3010.57734455734     Delta-E=       -0.000000000052 Rises=F Damp=F
 DIIS: error= 2.99D-09 at cycle  23 NSaved=  20.
 NSaved=20 IEnMin=20 EnMin= -3010.57734455734     IErMin=20 ErrMin= 2.99D-09
 ErrMax= 2.99D-09  0.00D+00 EMaxC= 1.00D-01 BMatC= 3.86D-15 BMatP= 2.16D-14
 IDIUse=1 WtCom= 1.00D+00 WtEn= 0.00D+00
 Large coefficients: NSaved= 20 BigCof=    0.00 CofMax=   10.00 Det=-7.83D-15
 Inversion failed.  Reducing to 19 matrices.
 Large coefficients: NSaved= 19 BigCof=    0.00 CofMax=   10.00 Det=-8.18D-15
 Inversion failed.  Reducing to 18 matrices.
 Large coefficients: NSaved= 18 BigCof=    0.00 CofMax=   10.00 Det=-8.66D-15
 Inversion failed.  Reducing to 17 matrices.
 Large coefficients: NSaved= 17 BigCof=    0.00 CofMax=   10.00 Det=-8.86D-15
 Inversion failed.  Reducing to 16 matrices.
 Large coefficients: NSaved= 16 BigCof=    0.00 CofMax=   10.00 Det=-9.21D-15
 Inversion failed.  Reducing to 15 matrices.
 Coeff-Com:  0.405D-06 0.681D-05-0.101D-04-0.199D-04 0.286D-04 0.734D-04
 Coeff-Com:  0.126D-03-0.167D-02-0.340D-02 0.678D-02 0.194D-01-0.141D-01
 Coeff-Com: -0.116D+00 0.102D+00 0.101D+01
 Coeff:      0.405D-06 0.681D-05-0.101D-04-0.199D-04 0.286D-04 0.734D-04
 Coeff:      0.126D-03-0.167D-02-0.340D-02 0.678D-02 0.194D-01-0.141D-01
 Coeff:     -0.116D+00 0.102D+00 0.101D+01
 Gap=     0.233 Goal=   None    Shift=    0.000
 RMSDP=9.21D-09 MaxDP=5.08D-07 DE=-5.18D-11 OVMax= 1.29D-07

 SCF Done:  E(RwB97XD) =  -3010.57734456     A.U. after   23 cycles
            NFock= 23  Conv=0.92D-08     -V/T= 2.0016
 KE= 3.005789631068D+03 PE=-8.628018754106D+03 EE= 1.875311526658D+03
 Leave Link  502 at Wed May  1 15:14:09 2024, MaxMem=  1207959552 cpu:            1335.4 elap:            1335.6
 (Enter /software/gaussian/g16-c01/sse4/g16/l601.exe)
 Copying SCF densities to generalized density rwf, IOpCl= 0 IROHF=0.

 **********************************************************************

            Population analysis using the SCF Density.

 **********************************************************************

 Alpha  occ. eigenvalues -- -483.27707 -62.82669 -56.62411 -56.61777 -56.61767
 Alpha  occ. eigenvalues --  -19.45533 -19.45231 -14.84709 -10.57645 -10.56284
 Alpha  occ. eigenvalues --  -10.56107 -10.55159 -10.54935 -10.53921  -8.98427
 Alpha  occ. eigenvalues --   -6.81231  -6.79165  -6.79132  -2.91103  -2.90562
 Alpha  occ. eigenvalues --   -2.90535  -2.88884  -2.88883  -1.49079  -1.32078
 Alpha  occ. eigenvalues --   -1.21583  -1.12487  -1.11038  -1.01565  -1.00303
 Alpha  occ. eigenvalues --   -0.94278  -0.90090  -0.85052  -0.80379  -0.79701
 Alpha  occ. eigenvalues --   -0.79323  -0.77684  -0.75343  -0.74638  -0.71086
 Alpha  occ. eigenvalues --   -0.68190  -0.66583  -0.62264  -0.58655  -0.56801
 Alpha  occ. eigenvalues --   -0.55667  -0.54826  -0.51833  -0.51570
 Alpha virt. eigenvalues --   -0.28229  -0.20279  -0.19924  -0.15630  -0.14966
 Alpha virt. eigenvalues --   -0.11164  -0.09605  -0.09319  -0.07249  -0.05080
 Alpha virt. eigenvalues --   -0.04634  -0.02924  -0.01454  -0.00924  -0.00500
 Alpha virt. eigenvalues --   -0.00155   0.01449   0.02527   0.02869   0.03053
 Alpha virt. eigenvalues --    0.04836   0.05639   0.06252   0.06730   0.07102
 Alpha virt. eigenvalues --    0.07802   0.08869   0.09310   0.10200   0.11273
 Alpha virt. eigenvalues --    0.11798   0.12502   0.13347   0.13688   0.14385
 Alpha virt. eigenvalues --    0.15124   0.15403   0.15986   0.16583   0.17572
 Alpha virt. eigenvalues --    0.19039   0.19473   0.20533   0.21256   0.21631
 Alpha virt. eigenvalues --    0.23260   0.24380   0.25466   0.25877   0.28231
 Alpha virt. eigenvalues --    0.28557   0.28656   0.29163   0.31511   0.33099
 Alpha virt. eigenvalues --    0.34207   0.35636   0.36750   0.37767   0.38409
 Alpha virt. eigenvalues --    0.39228   0.40140   0.41517   0.42620   0.43552
 Alpha virt. eigenvalues --    0.44344   0.45360   0.46307   0.46967   0.48382
 Alpha virt. eigenvalues --    0.49239   0.51744   0.52229   0.52852   0.54315
 Alpha virt. eigenvalues --    0.55708   0.57086   0.57406   0.59694   0.61341
 Alpha virt. eigenvalues --    0.61769   0.64583   0.66972   0.68482   0.68814
 Alpha virt. eigenvalues --    0.70846   0.71553   0.72606   0.74302   0.75443
 Alpha virt. eigenvalues --    0.76611   0.79931   0.81950   0.85857   0.86687
 Alpha virt. eigenvalues --    0.87884   0.88484   0.93001   0.94282   0.98384
 Alpha virt. eigenvalues --    1.00945   1.01248   1.05318   1.06496   1.07633
 Alpha virt. eigenvalues --    1.10423   1.10620   1.12543   1.13293   1.15710
 Alpha virt. eigenvalues --    1.23101   1.25457   1.27438   1.33542   1.37172
 Alpha virt. eigenvalues --    1.37471   1.39952   1.46691   1.55199   1.57750
 Alpha virt. eigenvalues --    1.59145   1.59860   1.61240   1.63543   1.67393
 Alpha virt. eigenvalues --    1.69792   1.71015   1.74118   1.76044   1.79617
 Alpha virt. eigenvalues --    1.82063   1.85041   1.88602   1.96542   1.98981
 Alpha virt. eigenvalues --    2.00436   2.03659   2.04758   2.08696   2.09805
 Alpha virt. eigenvalues --    2.12421   2.15540   2.20452   2.22856   2.27281
 Alpha virt. eigenvalues --    2.38091   2.42330   2.43391   2.46040   2.52850
 Alpha virt. eigenvalues --    2.57485   2.63422   2.66714   2.69058   2.71801
 Alpha virt. eigenvalues --    2.74596   2.77125   2.77772   2.81524   2.82903
 Alpha virt. eigenvalues --    2.95028   2.97816   3.01233   3.07541   3.10023
 Alpha virt. eigenvalues --    3.13408   3.14263   3.18724   3.23691   3.25581
 Alpha virt. eigenvalues --    3.27865   3.39691   3.47135   3.51723   3.55453
 Alpha virt. eigenvalues --    3.57859   3.70597   3.74708   3.82817   3.88111
 Alpha virt. eigenvalues --    4.12908   4.13096   4.20255   4.25634   4.44848
 Alpha virt. eigenvalues --    4.46355   4.58432   4.60488   4.93481   4.96493
 Alpha virt. eigenvalues --    5.04829   5.09282   5.63344   6.16268   6.68558
 Alpha virt. eigenvalues --    7.51590   7.53183   7.62775  23.21988  23.62007
 Alpha virt. eigenvalues --   23.72405  23.79643  23.96049  24.02145  35.33245
 Alpha virt. eigenvalues --   47.94821  49.86010  49.94816 289.84074 289.85741
 Alpha virt. eigenvalues --  289.981411020.95140
          Condensed to atoms (all electrons):
               1          2          3          4          5          6
     1  C   12.034434  -5.554817   1.658976  -3.405034  -1.136690   0.268359
     2  C   -5.554817  18.021659  -4.216952   0.171732   1.202710  -0.026002
     3  C    1.658976  -4.216952  17.440429  -6.827118  -2.842595   0.004067
     4  C   -3.405034   0.171732  -6.827118  18.503613   2.988570   0.021975
     5  C   -1.136690   1.202710  -2.842595   2.988570   9.017414   0.089990
     6  H    0.268359  -0.026002   0.004067   0.021975   0.089990   0.458560
     7  H    0.121004   0.108965   0.197468  -0.062791  -0.045154  -0.004044
     8  H    0.000608   0.011209   0.033352   0.286593  -0.013308  -0.000006
     9  H    0.007092   0.005283  -0.000697   0.021994   0.277669  -0.002931
    10  N   -0.384744   0.585216  -1.135109   0.485570   0.052883  -0.000692
    11  O   -0.027076  -0.039879  -0.284091   0.108247  -0.046259  -0.000023
    12  O    0.464334  -0.164385  -0.284050  -0.136931  -0.056720   0.000021
    13  C    2.522853  -4.692080   2.905564  -6.404250  -3.520781  -0.028229
    14  H   -0.000172  -0.041468   0.040619  -0.185349  -0.043667  -0.000109
    15  Br   0.048067  -0.053595   0.182416   0.014903   0.190435  -0.000369
               7          8          9         10         11         12
     1  C    0.121004   0.000608   0.007092  -0.384744  -0.027076   0.464334
     2  C    0.108965   0.011209   0.005283   0.585216  -0.039879  -0.164385
     3  C    0.197468   0.033352  -0.000697  -1.135109  -0.284091  -0.284050
     4  C   -0.062791   0.286593   0.021994   0.485570   0.108247  -0.136931
     5  C   -0.045154  -0.013308   0.277669   0.052883  -0.046259  -0.056720
     6  H   -0.004044  -0.000006  -0.002931  -0.000692  -0.000023   0.000021
     7  H    0.398969   0.000022  -0.000023  -0.040051  -0.002401   0.031031
     8  H    0.000022   0.237345   0.000149  -0.016835   0.015767  -0.000179
     9  H   -0.000023   0.000149   0.347550   0.000481   0.000016   0.000003
    10  N   -0.040051  -0.016835   0.000481   7.414603   0.270617   0.040954
    11  O   -0.002401   0.015767   0.000016   0.270617   7.618142  -0.001553
    12  O    0.031031  -0.000179   0.000003   0.040954  -0.001553   8.137106
    13  C    0.031209  -0.004384   0.009966  -0.168342   0.227543   0.079430
    14  H   -0.000016  -0.002519  -0.006332  -0.000490  -0.000379  -0.000047
    15  Br  -0.000199   0.001408  -0.005050  -0.004517   0.000696   0.002011
              13         14         15
     1  C    2.522853  -0.000172   0.048067
     2  C   -4.692080  -0.041468  -0.053595
     3  C    2.905564   0.040619   0.182416
     4  C   -6.404250  -0.185349   0.014903
     5  C   -3.520781  -0.043667   0.190435
     6  H   -0.028229  -0.000109  -0.000369
     7  H    0.031209  -0.000016  -0.000199
     8  H   -0.004384  -0.002519   0.001408
     9  H    0.009966  -0.006332  -0.005050
    10  N   -0.168342  -0.000490  -0.004517
    11  O    0.227543  -0.000379   0.000696
    12  O    0.079430  -0.000047   0.002011
    13  C   15.264723   0.514625  -0.188595
    14  H    0.514625   0.284618  -0.025576
    15  Br  -0.188595  -0.025576  34.482795
 Mulliken charges:
               1
     1  C   -0.617196
     2  C    0.682403
     3  C   -0.872279
     4  C    0.418275
     5  C   -0.114496
     6  H    0.219431
     7  H    0.266010
     8  H    0.450778
     9  H    0.344830
    10  N   -0.099545
    11  O    0.160632
    12  O   -0.111024
    13  C   -0.549251
    14  H    0.466261
    15  Br   0.355170
 Sum of Mulliken charges =   1.00000
 Mulliken charges with hydrogens summed into heavy atoms:
               1
     1  C   -0.397764
     2  C    0.948413
     3  C   -0.872279
     4  C    0.869053
     5  C    0.230334
    10  N   -0.099545
    11  O    0.160632
    12  O   -0.111024
    13  C   -0.082990
    15  Br   0.355170
 Electronic spatial extent (au):  <R**2>=           2796.0089
 Charge=              1.0000 electrons
 Dipole moment (field-independent basis, Debye):
    X=             -1.6172    Y=             -7.9316    Z=             -1.0331  Tot=              8.1605
 Quadrupole moment (field-independent basis, Debye-Ang):
   XX=            -72.4898   YY=            -49.5515   ZZ=            -60.6330
   XY=             -6.7701   XZ=              1.9456   YZ=              5.0587
 Traceless Quadrupole moment (field-independent basis, Debye-Ang):
   XX=            -11.5983   YY=             11.3399   ZZ=              0.2584
   XY=             -6.7701   XZ=              1.9456   YZ=              5.0587
 Octapole moment (field-independent basis, Debye-Ang**2):
  XXX=           -306.5069  YYY=             43.9825  ZZZ=             71.1296  XYY=            -82.0109
  XXY=             -8.8377  XXZ=             31.3059  XZZ=            -80.5258  YZZ=              4.2737
  YYZ=             15.4656  XYZ=             -5.0208
 Hexadecapole moment (field-independent basis, Debye-Ang**3):
 XXXX=          -2306.6957 YYYY=           -649.8996 ZZZZ=           -332.3100 XXXY=           -203.4710
 XXXZ=            -18.5822 YYYX=            -85.5474 YYYZ=           -126.3047 ZZZX=            -13.7345
 ZZZY=           -116.2605 XXYY=           -461.9537 XXZZ=           -369.6362 YYZZ=           -142.7729
 XXYZ=            -48.5845 YYXZ=              4.2573 ZZXY=             -9.2949
 N-N= 7.363402518225D+02 E-N=-8.628018753774D+03  KE= 3.005789631068D+03
 No NMR shielding tensors so no spin-rotation constants.
 Leave Link  601 at Wed May  1 15:14:16 2024, MaxMem=  1207959552 cpu:               7.3 elap:               7.2
 (Enter /software/gaussian/g16-c01/sse4/g16/l9999.exe)
 Unable to Open any file for archive entry.
 1\1\GINC-BHX0031\SP\RwB97XD\6-311+G(d)\C6H5Br1N1O2(1+)\BWEIGHT\01-May-
 2024\0\\#P wB97XD/6-311+G* NoSymm #P Field=Y+252\\TitleMe\\1,1\C,0,0.0
 295,1.3397,0.0682\C,0,1.4348,1.2867,0.0064\C,0,2.1118,0.0511,-0.0054\C
 ,0,1.4451,-1.1372,0.0312\C,0,-0.6879,0.1682,0.11\H,0,-0.4713,2.2984,0.
 0781\H,0,2.0273,2.1965,-0.0322\H,0,1.9897,-2.0764,0.0232\H,0,-1.7716,0
 .1804,0.1582\N,0,3.5864,0.051,-0.0675\O,0,4.1471,-1.0597,-0.0881\O,0,4
 .145,1.1639,-0.0901\C,0,-0.0236,-1.1458,0.0835\H,0,-0.4367,-1.8725,0.7
 889\Br,0,-0.5359,-1.8697,-1.7408\\Version=ES64L-G16RevC.01\HF=-3010.57
 73446\RMSD=9.207e-09\Dipole=-2.5427767,-1.9724677,0.7397252\Quadrupole
 =-8.6230739,8.430947,0.1921269,-5.0333946,1.4465043,3.7609902\PG=C01 [
 X(C6H5Br1N1O2)]\\@
 The archive entry for this job was punched.


 Everything starts as somebody's daydream.
                           -- Larry Niven
 Job cpu time:       0 days  0 hours 23 minutes 24.2 seconds.
 Elapsed time:       0 days  0 hours 23 minutes 24.5 seconds.
 File lengths (MBytes):  RWF=     40 Int=      0 D2E=      0 Chk=     32 Scr=      1
 Normal termination of Gaussian 16 at Wed May  1 15:14:17 2024.
