 Entering Gaussian System, Link 0=g16
 Initial command:
 /software/gaussian/g16-c01/sse4/g16/l1.exe "/local_scratch/24665319/Gau-8689.inp" -scrdir="/local_scratch/24665319/"
 Entering Link 1 = /software/gaussian/g16-c01/sse4/g16/l1.exe PID=      8694.
  
 Copyright (c) 1988-2019, Gaussian, Inc.  All Rights Reserved.
  
 This is part of the Gaussian(R) 16 program.  It is based on
 the Gaussian(R) 09 system (copyright 2009, Gaussian, Inc.),
 the Gaussian(R) 03 system (copyright 2003, Gaussian, Inc.),
 the Gaussian(R) 98 system (copyright 1998, Gaussian, Inc.),
 the Gaussian(R) 94 system (copyright 1995, Gaussian, Inc.),
 the Gaussian 92(TM) system (copyright 1992, Gaussian, Inc.),
 the Gaussian 90(TM) system (copyright 1990, Gaussian, Inc.),
 the Gaussian 88(TM) system (copyright 1988, Gaussian, Inc.),
 the Gaussian 86(TM) system (copyright 1986, Carnegie Mellon
 University), and the Gaussian 82(TM) system (copyright 1983,
 Carnegie Mellon University). Gaussian is a federally registered
 trademark of Gaussian, Inc.
  
 This software contains proprietary and confidential information,
 including trade secrets, belonging to Gaussian, Inc.
  
 This software is provided under written license and may be
 used, copied, transmitted, or stored only in accord with that
 written license.
  
 The following legend is applicable only to US Government
 contracts under FAR:
  
                    RESTRICTED RIGHTS LEGEND
  
 Use, reproduction and disclosure by the US Government is
 subject to restrictions as set forth in subparagraphs (a)
 and (c) of the Commercial Computer Software - Restricted
 Rights clause in FAR 52.227-19.
  
 Gaussian, Inc.
 340 Quinnipiac St., Bldg. 40, Wallingford CT 06492
  
  
 ---------------------------------------------------------------
 Warning -- This program may not be used in any manner that
 competes with the business of Gaussian, Inc. or will provide
 assistance to any competitor of Gaussian, Inc.  The licensee
 of this program is prohibited from giving any competitor of
 Gaussian, Inc. access to this program.  By using this program,
 the user acknowledges that Gaussian, Inc. is engaged in the
 business of creating and licensing software in the field of
 computational chemistry and represents and warrants to the
 licensee that it is not a competitor of Gaussian, Inc. and that
 it will not use this program in any manner prohibited above.
 ---------------------------------------------------------------
  

 Cite this work as:
 Gaussian 16, Revision C.01,
 M. J. Frisch, G. W. Trucks, H. B. Schlegel, G. E. Scuseria, 
 M. A. Robb, J. R. Cheeseman, G. Scalmani, V. Barone, 
 G. A. Petersson, H. Nakatsuji, X. Li, M. Caricato, A. V. Marenich, 
 J. Bloino, B. G. Janesko, R. Gomperts, B. Mennucci, H. P. Hratchian, 
 J. V. Ortiz, A. F. Izmaylov, J. L. Sonnenberg, D. Williams-Young, 
 F. Ding, F. Lipparini, F. Egidi, J. Goings, B. Peng, A. Petrone, 
 T. Henderson, D. Ranasinghe, V. G. Zakrzewski, J. Gao, N. Rega, 
 G. Zheng, W. Liang, M. Hada, M. Ehara, K. Toyota, R. Fukuda, 
 J. Hasegawa, M. Ishida, T. Nakajima, Y. Honda, O. Kitao, H. Nakai, 
 T. Vreven, K. Throssell, J. A. Montgomery, Jr., J. E. Peralta, 
 F. Ogliaro, M. J. Bearpark, J. J. Heyd, E. N. Brothers, K. N. Kudin, 
 V. N. Staroverov, T. A. Keith, R. Kobayashi, J. Normand, 
 K. Raghavachari, A. P. Rendell, J. C. Burant, S. S. Iyengar, 
 J. Tomasi, M. Cossi, J. M. Millam, M. Klene, C. Adamo, R. Cammi, 
 J. W. Ochterski, R. L. Martin, K. Morokuma, O. Farkas, 
 J. B. Foresman, and D. J. Fox, Gaussian, Inc., Wallingford CT, 2019.
 
 ******************************************
 Gaussian 16:  ES64L-G16RevC.01  3-Jul-2019
                 2-May-2024 
 ******************************************
 %chk=geometry.chk
 %mem=1GB
 %nprocshared=12
 Will use up to   12 processors via shared memory.
 ---------------------------------------
 #P wB97XD/6-311+G* NoSymm #P Field=Y-38
 ---------------------------------------
 1/38=1,172=1/1;
 2/12=2,15=1,17=6,18=5,40=1/2;
 3/5=4,6=6,7=11,11=2,14=2,15=-38,25=1,30=1,74=-58/1,2,3;
 4//1;
 5/5=2,38=5/2;
 6/7=2,8=2,9=2,10=2,28=1/1;
 99/5=1,9=1/99;
 Leave Link    1 at Thu May  2 13:57:39 2024, MaxMem=   134217728 cpu:               1.5 elap:               1.5
 (Enter /software/gaussian/g16-c01/sse4/g16/l101.exe)
 -------
 TitleMe
 -------
 Symbolic Z-matrix:
 Charge =  1 Multiplicity = 1
 C                     0.5193    1.233    -0.0319 
 C                     1.9445    1.2692   -0.0367 
 C                     2.6204    0.0928   -0.025 
 C                    -0.196     0.0301    0.001 
 H                    -0.0207    2.1742   -0.0434 
 H                     2.4828    2.2089   -0.0361 
 H                    -1.2777    0.0399    0.0117 
 N                     4.0921    0.0959    0.0366 
 O                     4.6393   -1.0217    0.1446 
 O                     4.6649    1.1984   -0.0233 
 C                     0.4943   -1.1671    0.021 
 H                    -0.0325   -2.1149    0.0545 
 C                     1.9629   -1.2165   -0.0211 
 H                     2.4436   -1.9631    0.6151 
 Br                    2.173    -1.9491   -1.9062 
 
 ITRead=  0  0  0  0  0  0  0  0  0  0  0  0  0  0  0
 MicOpt= -1 -1 -1 -1 -1 -1 -1 -1 -1 -1 -1 -1 -1 -1 -1
 NAtoms=     15 NQM=       15 NQMF=       0 NMMI=      0 NMMIF=      0
                NMic=       0 NMicF=      0.
                    Isotopes and Nuclear Properties:
 (Nuclear quadrupole moments (NQMom) in fm**2, nuclear magnetic moments (NMagM)
  in nuclear magnetons)

  Atom         1           2           3           4           5           6           7           8           9          10
 IAtWgt=          12          12          12          12           1           1           1          14          16          16
 AtmWgt=  12.0000000  12.0000000  12.0000000  12.0000000   1.0078250   1.0078250   1.0078250  14.0030740  15.9949146  15.9949146
 NucSpn=           0           0           0           0           1           1           1           2           0           0
 AtZEff=  -0.0000000  -0.0000000  -0.0000000  -0.0000000  -0.0000000  -0.0000000  -0.0000000  -0.0000000  -0.0000000  -0.0000000
 NQMom=    0.0000000   0.0000000   0.0000000   0.0000000   0.0000000   0.0000000   0.0000000   2.0440000   0.0000000   0.0000000
 NMagM=    0.0000000   0.0000000   0.0000000   0.0000000   2.7928460   2.7928460   2.7928460   0.4037610   0.0000000   0.0000000
 AtZNuc=   6.0000000   6.0000000   6.0000000   6.0000000   1.0000000   1.0000000   1.0000000   7.0000000   8.0000000   8.0000000

  Atom        11          12          13          14          15
 IAtWgt=          12           1          12           1          79
 AtmWgt=  12.0000000   1.0078250  12.0000000   1.0078250  78.9183361
 NucSpn=           0           1           0           1           3
 AtZEff=  -0.0000000  -0.0000000  -0.0000000  -0.0000000  -0.0000000
 NQMom=    0.0000000   0.0000000   0.0000000   0.0000000  31.3000000
 NMagM=    0.0000000   2.7928460   0.0000000   2.7928460   2.1063990
 AtZNuc=   6.0000000   1.0000000   6.0000000   1.0000000  35.0000000
 Leave Link  101 at Thu May  2 13:57:41 2024, MaxMem=   134217728 cpu:               1.5 elap:               1.5
 (Enter /software/gaussian/g16-c01/sse4/g16/l202.exe)
                          Input orientation:                          
 ---------------------------------------------------------------------
 Center     Atomic      Atomic             Coordinates (Angstroms)
 Number     Number       Type             X           Y           Z
 ---------------------------------------------------------------------
      1          6           0        0.519300    1.233000   -0.031900
      2          6           0        1.944500    1.269200   -0.036700
      3          6           0        2.620400    0.092800   -0.025000
      4          6           0       -0.196000    0.030100    0.001000
      5          1           0       -0.020700    2.174200   -0.043400
      6          1           0        2.482800    2.208900   -0.036100
      7          1           0       -1.277700    0.039900    0.011700
      8          7           0        4.092100    0.095900    0.036600
      9          8           0        4.639300   -1.021700    0.144600
     10          8           0        4.664900    1.198400   -0.023300
     11          6           0        0.494300   -1.167100    0.021000
     12          1           0       -0.032500   -2.114900    0.054500
     13          6           0        1.962900   -1.216500   -0.021100
     14          1           0        2.443600   -1.963100    0.615100
     15         35           0        2.173000   -1.949100   -1.906200
 ---------------------------------------------------------------------
                    Distance matrix (angstroms):
                    1          2          3          4          5
     1  C    0.000000
     2  C    1.425668   0.000000
     3  C    2.390549   1.356796   0.000000
     4  C    1.399895   2.473566   2.817218   0.000000
     5  H    1.085168   2.163581   3.362733   2.151712   0.000000
     6  H    2.192654   1.082960   2.120598   3.453189   2.503751
     7  H    2.157452   3.449071   3.898632   1.081797   2.477564
     8  N    3.750012   2.448304   1.472992   4.288753   4.608780
     9  O    4.699917   3.541615   2.312322   4.950458   5.653735
    10  O    4.145753   2.721354   2.324292   4.999386   4.786171
    11  C    2.400813   2.835836   2.471794   1.382101   3.381369
    12  H    3.394169   3.920329   3.452266   2.151887   4.290233
    13  C    2.843264   2.485817   1.465124   2.493060   3.928360
    14  H    3.786370   3.334922   2.160489   3.364142   4.860416
    15  Br   4.046416   3.728900   2.812194   3.628609   5.028314
                    6          7          8          9         10
     6  H    0.000000
     7  H    4.341452   0.000000
     8  N    2.657047   5.370150   0.000000
     9  O    3.888434   6.012948   1.249048   0.000000
    10  O    2.404752   6.054572   1.243863   2.226587   0.000000
    11  C    3.918516   2.144043   3.813080   4.149391   4.794941
    12  H    5.003018   2.489080   4.679774   4.798846   5.748876
    13  C    3.464662   3.475788   2.501842   2.688591   3.623886
    14  H    4.222698   4.268978   2.700314   2.434893   3.916224
    15  Br   4.569706   4.420610   3.411663   3.338935   4.434144
                   11         12         13         14         15
    11  C    0.000000
    12  H    1.084880   0.000000
    13  C    1.470034   2.189625   0.000000
    14  H    2.187771   2.543302   1.092353   0.000000
    15  Br   2.672762   2.955683   2.033334   2.535818   0.000000
 Symmetry turned off by external request.
 Stoichiometry    C6H5BrNO2(1+)
 Framework group  C1[X(C6H5BrNO2)]
 Deg. of freedom    39
 Full point group                 C1      NOp   1
 Rotational constants (GHZ):           1.1632986           0.9594224           0.5957624
 Leave Link  202 at Thu May  2 13:57:42 2024, MaxMem=   134217728 cpu:               1.3 elap:               1.3
 (Enter /software/gaussian/g16-c01/sse4/g16/l301.exe)
 Standard basis: 6-311+G(d) (5D, 7F)
 Ernie: Thresh=  0.10000D-02 Tol=  0.10000D-05 Strict=F.
 The following finite field(s) will be applied:
 An electric field of              0.0000 -0.0038  0.0000
   261 basis functions,   443 primitive gaussians,   273 cartesian basis functions
    49 alpha electrons       49 beta electrons
       nuclear repulsion energy       772.8945969580 Hartrees.
 IExCor= 4639 DFT=T Ex+Corr=wB97XD ExCW=0 ScaHFX=  1.000000
 ScaDFX=  1.000000  1.000000  1.000000  1.000000 ScalE2=  1.000000  1.000000
 IRadAn=      5 IRanWt=     -1 IRanGd=            0 ICorTp=0 IEmpDi=121
 HFx  wShort=  0.000000 wLong=  0.200000 cFull=  0.222036 cShort=  0.000000 cLong=  0.777964
 DFx  wShort=  0.000000 wLong=  0.200000 cFull=  0.000000 cShort=  0.000000 cLong=  1.000000
 NAtoms=   15 NActive=   15 NUniq=   15 SFac= 1.00D+00 NAtFMM=   60 NAOKFM=F Big=F
 Integral buffers will be    131072 words long.
 Raffenetti 2 integral format.
 Two-electron integral symmetry is turned off.
 R6Disp:  Grimme-D2 Dispersion energy=       -0.0080346408 Hartrees.
 Nuclear repulsion after empirical dispersion term =      772.8865623173 Hartrees.
 Leave Link  301 at Thu May  2 13:57:44 2024, MaxMem=   134217728 cpu:               1.2 elap:               1.2
 (Enter /software/gaussian/g16-c01/sse4/g16/l302.exe)
 NPDir=0 NMtPBC=     1 NCelOv=     1 NCel=       1 NClECP=     1 NCelD=      1
         NCelK=      1 NCelE2=     1 NClLst=     1 CellRange=     0.0.
 One-electron integrals computed using PRISM.
 NBasis=   261 RedAO= T EigKep=  2.52D-06  NBF=   261
 NBsUse=   261 1.00D-06 EigRej= -1.00D+00 NBFU=   261
 Precomputing XC quadrature grid using
 IXCGrd= 4 IRadAn=           5 IRanWt=          -1 IRanGd=           0 AccXCQ= 0.00D+00.
 Generated NRdTot=       0 NPtTot=           0 NUsed=           0 NTot=          32
 NSgBfM=   273   273   273   273   273 MxSgAt=    15 MxSgA2=    15.
 Leave Link  302 at Thu May  2 13:58:06 2024, MaxMem=   134217728 cpu:              22.2 elap:              22.2
 (Enter /software/gaussian/g16-c01/sse4/g16/l303.exe)
 DipDrv:  MaxL=1.
 The nuclear repulsion energy is now       773.3485823645 hartrees.
 Leave Link  303 at Thu May  2 13:58:09 2024, MaxMem=   134217728 cpu:               3.3 elap:               3.3
 (Enter /software/gaussian/g16-c01/sse4/g16/l401.exe)
 ExpMin= 3.50D-02 ExpMax= 4.40D+05 ExpMxC= 1.51D+04 IAcc=3 IRadAn=         5 AccDes= 0.00D+00
 Harris functional with IExCor= 4639 and IRadAn=       5 diagonalized for initial guess.
 HarFok:  IExCor= 4639 AccDes= 0.00D+00 IRadAn=         5 IDoV= 1 UseB2=F ITyADJ=14
 ICtDFT=  3500011 ScaDFX=  1.000000  1.000000  1.000000  1.000000
 FoFCou: FMM=F IPFlag=           0 FMFlag=      100000 FMFlg1=           0
         NFxFlg=           0 DoJE=T BraDBF=F KetDBF=T FulRan=T
         wScrn=  0.000000 ICntrl=       500 IOpCl=  0 I1Cent=   200000004 NGrid=           0
         NMat0=    1 NMatS0=      1 NMatT0=    0 NMatD0=    1 NMtDS0=    0 NMtDT0=    0
 Symmetry not used in FoFCou.
 Harris En= -2970.60056802368    
 JPrj=0 DoOrth=F DoCkMO=F.
 Leave Link  401 at Thu May  2 13:58:41 2024, MaxMem=   134217728 cpu:              31.5 elap:              31.5
 (Enter /software/gaussian/g16-c01/sse4/g16/l502.exe)
 Two-electron integral symmetry not used.
 Closed shell SCF:
 Using DIIS extrapolation, IDIIS=  1040.
 NGot=   134217728 LenX=   134063053 LenY=   133988083
 Requested convergence on RMS density matrix=1.00D-08 within 128 cycles.
 Requested convergence on MAX density matrix=1.00D-06.
 Requested convergence on             energy=1.00D-06.
 No special actions if energy rises.
 Fock matrices will be formed incrementally for  20 cycles.

 Cycle   1  Pass 1  IDiag  1:
 FoFJK:  IHMeth= 1 ICntrl=       0 DoSepK=T KAlg= 0 I1Cent=           0 FoldK=F
 IRaf=         1 NMat=       1 IRICut=       1 DoRegI=T DoRafI=F ISym2E= 0 IDoP0=0 IntGTp=1.
 FoFCou: FMM=F IPFlag=           0 FMFlag=      100000 FMFlg1=           0
         NFxFlg=           0 DoJE=T BraDBF=F KetDBF=F FulRan=T
         wScrn=  0.000000 ICntrl=       500 IOpCl=  0 I1Cent=           0 NGrid=           0
         NMat0=    1 NMatS0=      1 NMatT0=    0 NMatD0=    1 NMtDS0=    0 NMtDT0=    0
 Symmetry not used in FoFCou.
 E= -3009.70126716898    
 DIIS: error= 2.90D-01 at cycle   1 NSaved=   1.
 NSaved= 1 IEnMin= 1 EnMin= -3009.70126716898     IErMin= 1 ErrMin= 2.90D-01
 ErrMax= 2.90D-01  0.00D+00 EMaxC= 1.00D-01 BMatC= 1.19D+01 BMatP= 1.19D+01
 IDIUse=3 WtCom= 0.00D+00 WtEn= 1.00D+00
 Coeff-Com:  0.100D+01
 Coeff-En:   0.100D+01
 Coeff:      0.100D+01
 Gap=     0.327 Goal=   None    Shift=    0.000
 GapD=    0.327 DampG=1.000 DampE=0.250 DampFc=0.2500 IDamp=-1.
 Damping current iteration by 2.50D-01
 RMSDP=4.70D-02 MaxDP=4.83D+00              OVMax= 2.60D-01

 Cycle   2  Pass 1  IDiag  1:
 RMSU=  5.33D-03    CP:  9.08D-01
 E= -3009.99106220552     Delta-E=       -0.289795036536 Rises=F Damp=T
 DIIS: error= 2.19D-01 at cycle   2 NSaved=   2.
 NSaved= 2 IEnMin= 2 EnMin= -3009.99106220552     IErMin= 2 ErrMin= 2.19D-01
 ErrMax= 2.19D-01  0.00D+00 EMaxC= 1.00D-01 BMatC= 5.46D+00 BMatP= 1.19D+01
 IDIUse=3 WtCom= 0.00D+00 WtEn= 1.00D+00
 Coeff-Com: -0.183D+01 0.283D+01
 Coeff-En:   0.000D+00 0.100D+01
 Coeff:      0.000D+00 0.100D+01
 Gap=     0.267 Goal=   None    Shift=    0.000
 RMSDP=3.61D-02 MaxDP=3.98D+00 DE=-2.90D-01 OVMax= 7.07D-02

 Cycle   3  Pass 1  IDiag  1:
 RMSU=  5.09D-03    CP:  6.11D-01  2.99D+00
 E= -3010.37759551145     Delta-E=       -0.386533305938 Rises=F Damp=F
 DIIS: error= 6.58D-02 at cycle   3 NSaved=   3.
 NSaved= 3 IEnMin= 3 EnMin= -3010.37759551145     IErMin= 3 ErrMin= 6.58D-02
 ErrMax= 6.58D-02  0.00D+00 EMaxC= 1.00D-01 BMatC= 7.31D-01 BMatP= 5.46D+00
 IDIUse=3 WtCom= 3.42D-01 WtEn= 6.58D-01
 Coeff-Com:  0.262D+01-0.344D+01 0.182D+01
 Coeff-En:   0.315D-01 0.000D+00 0.969D+00
 Coeff:      0.919D+00-0.118D+01 0.126D+01
 Gap=     0.263 Goal=   None    Shift=    0.000
 RMSDP=1.15D-02 MaxDP=7.13D-01 DE=-3.87D-01 OVMax= 7.45D-02

 Cycle   4  Pass 1  IDiag  1:
 RMSU=  3.52D-03    CP:  6.50D-01  1.43D+00  2.09D+00
 E= -3010.48456149468     Delta-E=       -0.106965983228 Rises=F Damp=F
 DIIS: error= 3.80D-02 at cycle   4 NSaved=   4.
 NSaved= 4 IEnMin= 4 EnMin= -3010.48456149468     IErMin= 4 ErrMin= 3.80D-02
 ErrMax= 3.80D-02  0.00D+00 EMaxC= 1.00D-01 BMatC= 2.26D-01 BMatP= 7.31D-01
 IDIUse=3 WtCom= 6.20D-01 WtEn= 3.80D-01
 Coeff-Com: -0.240D-01 0.456D-01 0.353D+00 0.626D+00
 Coeff-En:   0.000D+00 0.000D+00 0.195D+00 0.805D+00
 Coeff:     -0.149D-01 0.283D-01 0.293D+00 0.694D+00
 Gap=     0.257 Goal=   None    Shift=    0.000
 RMSDP=4.30D-03 MaxDP=4.11D-01 DE=-1.07D-01 OVMax= 3.48D-02

 Cycle   5  Pass 1  IDiag  1:
 RMSU=  1.52D-03    CP:  6.22D-01  1.80D+00  1.98D+00  6.83D-01
 E= -3010.52811873655     Delta-E=       -0.043557241872 Rises=F Damp=F
 DIIS: error= 6.64D-03 at cycle   5 NSaved=   5.
 NSaved= 5 IEnMin= 5 EnMin= -3010.52811873655     IErMin= 5 ErrMin= 6.64D-03
 ErrMax= 6.64D-03  0.00D+00 EMaxC= 1.00D-01 BMatC= 9.22D-03 BMatP= 2.26D-01
 IDIUse=3 WtCom= 9.34D-01 WtEn= 6.64D-02
 Coeff-Com: -0.103D+00 0.143D+00 0.117D+00 0.391D+00 0.453D+00
 Coeff-En:   0.000D+00 0.000D+00 0.000D+00 0.000D+00 0.100D+01
 Coeff:     -0.961D-01 0.133D+00 0.109D+00 0.365D+00 0.489D+00
 Gap=     0.247 Goal=   None    Shift=    0.000
 RMSDP=1.54D-03 MaxDP=1.75D-01 DE=-4.36D-02 OVMax= 1.81D-02

 Cycle   6  Pass 1  IDiag  1:
 RMSU=  8.43D-04    CP:  6.13D-01  1.77D+00  2.01D+00  7.43D-01  4.71D-01
 E= -3010.53084931986     Delta-E=       -0.002730583305 Rises=F Damp=F
 DIIS: error= 2.91D-03 at cycle   6 NSaved=   6.
 NSaved= 6 IEnMin= 6 EnMin= -3010.53084931986     IErMin= 6 ErrMin= 2.91D-03
 ErrMax= 2.91D-03  0.00D+00 EMaxC= 1.00D-01 BMatC= 7.10D-04 BMatP= 9.22D-03
 IDIUse=3 WtCom= 9.71D-01 WtEn= 2.91D-02
 Coeff-Com: -0.954D-01 0.129D+00 0.341D-02 0.166D+00 0.338D+00 0.459D+00
 Coeff-En:   0.000D+00 0.000D+00 0.000D+00 0.000D+00 0.108D+00 0.892D+00
 Coeff:     -0.926D-01 0.125D+00 0.332D-02 0.161D+00 0.332D+00 0.472D+00
 Gap=     0.245 Goal=   None    Shift=    0.000
 RMSDP=5.65D-04 MaxDP=7.61D-02 DE=-2.73D-03 OVMax= 5.77D-03

 Cycle   7  Pass 1  IDiag  1:
 RMSU=  1.91D-04    CP:  6.17D-01  1.77D+00  2.02D+00  7.65D-01  6.20D-01
                    CP:  6.84D-01
 E= -3010.53135679898     Delta-E=       -0.000507479120 Rises=F Damp=F
 DIIS: error= 3.36D-04 at cycle   7 NSaved=   7.
 NSaved= 7 IEnMin= 7 EnMin= -3010.53135679898     IErMin= 7 ErrMin= 3.36D-04
 ErrMax= 3.36D-04  0.00D+00 EMaxC= 1.00D-01 BMatC= 1.59D-05 BMatP= 7.10D-04
 IDIUse=3 WtCom= 9.97D-01 WtEn= 3.36D-03
 Coeff-Com: -0.332D-01 0.442D-01-0.122D-01 0.303D-01 0.801D-01 0.178D+00
 Coeff-Com:  0.713D+00
 Coeff-En:   0.000D+00 0.000D+00 0.000D+00 0.000D+00 0.000D+00 0.000D+00
 Coeff-En:   0.100D+01
 Coeff:     -0.331D-01 0.440D-01-0.122D-01 0.302D-01 0.798D-01 0.177D+00
 Coeff:      0.714D+00
 Gap=     0.246 Goal=   None    Shift=    0.000
 RMSDP=2.25D-04 MaxDP=2.69D-02 DE=-5.07D-04 OVMax= 1.95D-03

 Cycle   8  Pass 1  IDiag  1:
 RMSU=  7.06D-05    CP:  6.15D-01  1.76D+00  2.02D+00  7.73D-01  6.31D-01
                    CP:  8.13D-01  8.28D-01
 E= -3010.53137706575     Delta-E=       -0.000020266766 Rises=F Damp=F
 DIIS: error= 9.20D-05 at cycle   8 NSaved=   8.
 NSaved= 8 IEnMin= 8 EnMin= -3010.53137706575     IErMin= 8 ErrMin= 9.20D-05
 ErrMax= 9.20D-05  0.00D+00 EMaxC= 1.00D-01 BMatC= 2.39D-06 BMatP= 1.59D-05
 IDIUse=1 WtCom= 1.00D+00 WtEn= 0.00D+00
 Coeff-Com:  0.650D-02-0.892D-02-0.340D-02-0.154D-01-0.293D-01-0.352D-01
 Coeff-Com:  0.173D+00 0.913D+00
 Coeff:      0.650D-02-0.892D-02-0.340D-02-0.154D-01-0.293D-01-0.352D-01
 Coeff:      0.173D+00 0.913D+00
 Gap=     0.246 Goal=   None    Shift=    0.000
 RMSDP=6.27D-05 MaxDP=3.19D-03 DE=-2.03D-05 OVMax= 1.58D-03

 Cycle   9  Pass 1  IDiag  1:
 RMSU=  2.58D-05    CP:  6.15D-01  1.76D+00  2.03D+00  7.81D-01  6.32D-01
                    CP:  8.34D-01  9.55D-01  1.24D+00
 E= -3010.53138270120     Delta-E=       -0.000005635451 Rises=F Damp=F
 DIIS: error= 3.00D-05 at cycle   9 NSaved=   9.
 NSaved= 9 IEnMin= 9 EnMin= -3010.53138270120     IErMin= 9 ErrMin= 3.00D-05
 ErrMax= 3.00D-05  0.00D+00 EMaxC= 1.00D-01 BMatC= 3.17D-07 BMatP= 2.39D-06
 IDIUse=1 WtCom= 1.00D+00 WtEn= 0.00D+00
 Coeff-Com:  0.761D-02-0.102D-01 0.976D-03-0.942D-02-0.169D-01-0.332D-01
 Coeff-Com: -0.660D-01 0.229D+00 0.898D+00
 Coeff:      0.761D-02-0.102D-01 0.976D-03-0.942D-02-0.169D-01-0.332D-01
 Coeff:     -0.660D-01 0.229D+00 0.898D+00
 Gap=     0.246 Goal=   None    Shift=    0.000
 RMSDP=5.16D-05 MaxDP=6.28D-03 DE=-5.64D-06 OVMax= 9.41D-04

 Cycle  10  Pass 1  IDiag  1:
 RMSU=  9.74D-06    CP:  6.15D-01  1.76D+00  2.03D+00  7.81D-01  6.30D-01
                    CP:  8.51D-01  9.54D-01  1.57D+00  1.06D+00
 E= -3010.53138399956     Delta-E=       -0.000001298366 Rises=F Damp=F
 DIIS: error= 1.49D-05 at cycle  10 NSaved=  10.
 NSaved=10 IEnMin=10 EnMin= -3010.53138399956     IErMin=10 ErrMin= 1.49D-05
 ErrMax= 1.49D-05  0.00D+00 EMaxC= 1.00D-01 BMatC= 9.27D-08 BMatP= 3.17D-07
 IDIUse=1 WtCom= 1.00D+00 WtEn= 0.00D+00
 Coeff-Com:  0.570D-03-0.734D-03 0.549D-03 0.243D-03 0.426D-02 0.444D-02
 Coeff-Com: -0.411D-01-0.126D+00 0.208D+00 0.950D+00
 Coeff:      0.570D-03-0.734D-03 0.549D-03 0.243D-03 0.426D-02 0.444D-02
 Coeff:     -0.411D-01-0.126D+00 0.208D+00 0.950D+00
 Gap=     0.246 Goal=   None    Shift=    0.000
 RMSDP=1.88D-05 MaxDP=1.70D-03 DE=-1.30D-06 OVMax= 5.14D-04

 Cycle  11  Pass 1  IDiag  1:
 RMSU=  1.02D-05    CP:  6.15D-01  1.76D+00  2.03D+00  7.81D-01  6.32D-01
                    CP:  8.48D-01  9.34D-01  1.70D+00  1.26D+00  1.60D+00
 E= -3010.53138433770     Delta-E=       -0.000000338135 Rises=F Damp=F
 DIIS: error= 8.97D-06 at cycle  11 NSaved=  11.
 NSaved=11 IEnMin=11 EnMin= -3010.53138433770     IErMin=11 ErrMin= 8.97D-06
 ErrMax= 8.97D-06  0.00D+00 EMaxC= 1.00D-01 BMatC= 1.19D-08 BMatP= 9.27D-08
 IDIUse=1 WtCom= 1.00D+00 WtEn= 0.00D+00
 Coeff-Com: -0.419D-03 0.562D-03 0.604D-04 0.998D-03 0.231D-02 0.515D-02
 Coeff-Com:  0.146D-01-0.303D-01-0.169D+00-0.774D-01 0.125D+01
 Coeff:     -0.419D-03 0.562D-03 0.604D-04 0.998D-03 0.231D-02 0.515D-02
 Coeff:      0.146D-01-0.303D-01-0.169D+00-0.774D-01 0.125D+01
 Gap=     0.246 Goal=   None    Shift=    0.000
 RMSDP=1.70D-05 MaxDP=1.57D-03 DE=-3.38D-07 OVMax= 3.23D-04

 Cycle  12  Pass 1  IDiag  1:
 RMSU=  1.96D-06    CP:  6.15D-01  1.76D+00  2.03D+00  7.80D-01  6.31D-01
                    CP:  8.47D-01  9.14D-01  1.80D+00  1.31D+00  2.14D+00
                    CP:  1.60D+00
 E= -3010.53138442950     Delta-E=       -0.000000091799 Rises=F Damp=F
 DIIS: error= 5.27D-06 at cycle  12 NSaved=  12.
 NSaved=12 IEnMin=12 EnMin= -3010.53138442950     IErMin=12 ErrMin= 5.27D-06
 ErrMax= 5.27D-06  0.00D+00 EMaxC= 1.00D-01 BMatC= 3.89D-09 BMatP= 1.19D-08
 IDIUse=1 WtCom= 1.00D+00 WtEn= 0.00D+00
 Coeff-Com: -0.242D-03 0.320D-03-0.423D-04 0.414D-03 0.195D-03 0.134D-02
 Coeff-Com:  0.145D-01 0.678D-02-0.121D+00-0.221D+00 0.612D+00 0.706D+00
 Coeff:     -0.242D-03 0.320D-03-0.423D-04 0.414D-03 0.195D-03 0.134D-02
 Coeff:      0.145D-01 0.678D-02-0.121D+00-0.221D+00 0.612D+00 0.706D+00
 Gap=     0.246 Goal=   None    Shift=    0.000
 RMSDP=3.68D-06 MaxDP=3.16D-04 DE=-9.18D-08 OVMax= 1.11D-04

 Cycle  13  Pass 1  IDiag  1:
 RMSU=  1.06D-06    CP:  6.15D-01  1.76D+00  2.03D+00  7.80D-01  6.31D-01
                    CP:  8.45D-01  9.11D-01  1.81D+00  1.34D+00  2.28D+00
                    CP:  1.81D+00  1.20D+00
 E= -3010.53138444342     Delta-E=       -0.000000013921 Rises=F Damp=F
 DIIS: error= 1.68D-06 at cycle  13 NSaved=  13.
 NSaved=13 IEnMin=13 EnMin= -3010.53138444342     IErMin=13 ErrMin= 1.68D-06
 ErrMax= 1.68D-06  0.00D+00 EMaxC= 1.00D-01 BMatC= 4.89D-10 BMatP= 3.89D-09
 IDIUse=1 WtCom= 1.00D+00 WtEn= 0.00D+00
 Coeff-Com:  0.169D-04-0.228D-04-0.246D-04-0.140D-03-0.528D-03-0.116D-02
 Coeff-Com: -0.255D-02 0.551D-02 0.334D-01 0.803D-03-0.221D+00 0.106D+00
 Coeff-Com:  0.108D+01
 Coeff:      0.169D-04-0.228D-04-0.246D-04-0.140D-03-0.528D-03-0.116D-02
 Coeff:     -0.255D-02 0.551D-02 0.334D-01 0.803D-03-0.221D+00 0.106D+00
 Coeff:      0.108D+01
 Gap=     0.246 Goal=   None    Shift=    0.000
 RMSDP=1.24D-06 MaxDP=7.17D-05 DE=-1.39D-08 OVMax= 4.09D-05

 Cycle  14  Pass 1  IDiag  1:
 RMSU=  3.52D-07    CP:  6.15D-01  1.76D+00  2.03D+00  7.80D-01  6.31D-01
                    CP:  8.45D-01  9.10D-01  1.81D+00  1.34D+00  2.32D+00
                    CP:  1.86D+00  1.49D+00  1.55D+00
 E= -3010.53138444583     Delta-E=       -0.000000002410 Rises=F Damp=F
 DIIS: error= 6.23D-07 at cycle  14 NSaved=  14.
 NSaved=14 IEnMin=14 EnMin= -3010.53138444583     IErMin=14 ErrMin= 6.23D-07
 ErrMax= 6.23D-07  0.00D+00 EMaxC= 1.00D-01 BMatC= 8.91D-11 BMatP= 4.89D-10
 IDIUse=1 WtCom= 1.00D+00 WtEn= 0.00D+00
 Coeff-Com:  0.185D-04-0.241D-04-0.930D-05-0.945D-04-0.187D-03-0.533D-03
 Coeff-Com: -0.304D-02 0.823D-03 0.303D-01 0.318D-01-0.178D+00-0.615D-01
 Coeff-Com:  0.399D+00 0.781D+00
 Coeff:      0.185D-04-0.241D-04-0.930D-05-0.945D-04-0.187D-03-0.533D-03
 Coeff:     -0.304D-02 0.823D-03 0.303D-01 0.318D-01-0.178D+00-0.615D-01
 Coeff:      0.399D+00 0.781D+00
 Gap=     0.246 Goal=   None    Shift=    0.000
 RMSDP=5.38D-07 MaxDP=4.40D-05 DE=-2.41D-09 OVMax= 1.31D-05

 Cycle  15  Pass 1  IDiag  1:
 RMSU=  1.59D-07    CP:  6.15D-01  1.76D+00  2.03D+00  7.80D-01  6.31D-01
                    CP:  8.45D-01  9.09D-01  1.81D+00  1.34D+00  2.33D+00
                    CP:  1.88D+00  1.58D+00  1.74D+00  1.31D+00
 E= -3010.53138444621     Delta-E=       -0.000000000384 Rises=F Damp=F
 DIIS: error= 2.85D-07 at cycle  15 NSaved=  15.
 NSaved=15 IEnMin=15 EnMin= -3010.53138444621     IErMin=15 ErrMin= 2.85D-07
 ErrMax= 2.85D-07  0.00D+00 EMaxC= 1.00D-01 BMatC= 1.25D-11 BMatP= 8.91D-11
 IDIUse=1 WtCom= 1.00D+00 WtEn= 0.00D+00
 Coeff-Com:  0.505D-05-0.667D-05 0.400D-05 0.434D-05 0.579D-04 0.150D-03
 Coeff-Com: -0.814D-04-0.520D-03-0.106D-02 0.447D-02 0.988D-02-0.327D-01
 Coeff-Com: -0.143D+00 0.166D+00 0.997D+00
 Coeff:      0.505D-05-0.667D-05 0.400D-05 0.434D-05 0.579D-04 0.150D-03
 Coeff:     -0.814D-04-0.520D-03-0.106D-02 0.447D-02 0.988D-02-0.327D-01
 Coeff:     -0.143D+00 0.166D+00 0.997D+00
 Gap=     0.246 Goal=   None    Shift=    0.000
 RMSDP=2.66D-07 MaxDP=1.83D-05 DE=-3.84D-10 OVMax= 5.91D-06

 Cycle  16  Pass 1  IDiag  1:
 RMSU=  7.44D-08    CP:  6.15D-01  1.76D+00  2.03D+00  7.80D-01  6.31D-01
                    CP:  8.45D-01  9.09D-01  1.81D+00  1.34D+00  2.34D+00
                    CP:  1.88D+00  1.63D+00  1.80D+00  1.52D+00  1.55D+00
 E= -3010.53138444622     Delta-E=       -0.000000000014 Rises=F Damp=F
 DIIS: error= 8.47D-08 at cycle  16 NSaved=  16.
 NSaved=16 IEnMin=16 EnMin= -3010.53138444622     IErMin=16 ErrMin= 8.47D-08
 ErrMax= 8.47D-08  0.00D+00 EMaxC= 1.00D-01 BMatC= 1.21D-12 BMatP= 1.25D-11
 IDIUse=1 WtCom= 1.00D+00 WtEn= 0.00D+00
 Coeff-Com: -0.604D-06 0.794D-06 0.188D-05 0.894D-05 0.196D-04 0.669D-04
 Coeff-Com:  0.200D-03-0.126D-03-0.290D-02-0.180D-02 0.177D-01-0.293D-03
 Coeff-Com: -0.524D-01-0.628D-01 0.118D+00 0.984D+00
 Coeff:     -0.604D-06 0.794D-06 0.188D-05 0.894D-05 0.196D-04 0.669D-04
 Coeff:      0.200D-03-0.126D-03-0.290D-02-0.180D-02 0.177D-01-0.293D-03
 Coeff:     -0.524D-01-0.628D-01 0.118D+00 0.984D+00
 Gap=     0.246 Goal=   None    Shift=    0.000
 RMSDP=9.62D-08 MaxDP=8.22D-06 DE=-1.41D-11 OVMax= 1.46D-06

 Cycle  17  Pass 1  IDiag  1:
 RMSU=  2.15D-08    CP:  6.15D-01  1.76D+00  2.03D+00  7.80D-01  6.31D-01
                    CP:  8.44D-01  9.09D-01  1.81D+00  1.34D+00  2.34D+00
                    CP:  1.89D+00  1.63D+00  1.81D+00  1.56D+00  1.86D+00
                    CP:  1.26D+00
 E= -3010.53138444629     Delta-E=       -0.000000000062 Rises=F Damp=F
 DIIS: error= 3.08D-08 at cycle  17 NSaved=  17.
 NSaved=17 IEnMin=17 EnMin= -3010.53138444629     IErMin=17 ErrMin= 3.08D-08
 ErrMax= 3.08D-08  0.00D+00 EMaxC= 1.00D-01 BMatC= 2.07D-13 BMatP= 1.21D-12
 IDIUse=1 WtCom= 1.00D+00 WtEn= 0.00D+00
 Coeff-Com: -0.177D-05 0.237D-05-0.286D-06 0.200D-05-0.267D-05-0.332D-05
 Coeff-Com:  0.332D-04 0.100D-03-0.425D-03-0.850D-03 0.232D-02 0.326D-02
 Coeff-Com:  0.936D-02-0.367D-01-0.106D+00 0.190D+00 0.939D+00
 Coeff:     -0.177D-05 0.237D-05-0.286D-06 0.200D-05-0.267D-05-0.332D-05
 Coeff:      0.332D-04 0.100D-03-0.425D-03-0.850D-03 0.232D-02 0.326D-02
 Coeff:      0.936D-02-0.367D-01-0.106D+00 0.190D+00 0.939D+00
 Gap=     0.246 Goal=   None    Shift=    0.000
 RMSDP=6.47D-08 MaxDP=6.31D-06 DE=-6.23D-11 OVMax= 5.56D-07

 Cycle  18  Pass 1  IDiag  1:
 RMSU=  7.00D-09    CP:  6.15D-01  1.76D+00  2.03D+00  7.80D-01  6.31D-01
                    CP:  8.44D-01  9.09D-01  1.81D+00  1.34D+00  2.34D+00
                    CP:  1.89D+00  1.63D+00  1.81D+00  1.56D+00  1.96D+00
                    CP:  1.49D+00  1.15D+00
 E= -3010.53138444628     Delta-E=        0.000000000003 Rises=F Damp=F
 DIIS: error= 1.72D-08 at cycle  18 NSaved=  18.
 NSaved=18 IEnMin=17 EnMin= -3010.53138444629     IErMin=18 ErrMin= 1.72D-08
 ErrMax= 1.72D-08  0.00D+00 EMaxC= 1.00D-01 BMatC= 3.98D-14 BMatP= 2.07D-13
 IDIUse=1 WtCom= 1.00D+00 WtEn= 0.00D+00
 Coeff-Com: -0.208D-06 0.279D-06-0.322D-06-0.117D-05-0.591D-05-0.147D-04
 Coeff-Com: -0.267D-04 0.802D-04 0.281D-03-0.138D-03-0.203D-02 0.113D-02
 Coeff-Com:  0.129D-01-0.334D-02-0.566D-01-0.899D-01 0.332D+00 0.806D+00
 Coeff:     -0.208D-06 0.279D-06-0.322D-06-0.117D-05-0.591D-05-0.147D-04
 Coeff:     -0.267D-04 0.802D-04 0.281D-03-0.138D-03-0.203D-02 0.113D-02
 Coeff:      0.129D-01-0.334D-02-0.566D-01-0.899D-01 0.332D+00 0.806D+00
 Gap=     0.246 Goal=   None    Shift=    0.000
 RMSDP=3.01D-08 MaxDP=3.11D-06 DE= 3.18D-12 OVMax= 2.57D-07

 Cycle  19  Pass 1  IDiag  1:
 RMSU=  2.45D-09    CP:  6.15D-01  1.76D+00  2.03D+00  7.80D-01  6.31D-01
                    CP:  8.44D-01  9.09D-01  1.81D+00  1.34D+00  2.34D+00
                    CP:  1.89D+00  1.63D+00  1.81D+00  1.55D+00  2.00D+00
                    CP:  1.55D+00  1.31D+00  1.19D+00
 E= -3010.53138444629     Delta-E=       -0.000000000009 Rises=F Damp=F
 DIIS: error= 9.40D-09 at cycle  19 NSaved=  19.
 NSaved=19 IEnMin=19 EnMin= -3010.53138444629     IErMin=19 ErrMin= 9.40D-09
 ErrMax= 9.40D-09  0.00D+00 EMaxC= 1.00D-01 BMatC= 4.19D-15 BMatP= 3.98D-14
 IDIUse=1 WtCom= 1.00D+00 WtEn= 0.00D+00
 Large coefficients: NSaved= 19 BigCof=    0.00 CofMax=   10.00 Det=-1.28D-14
 Inversion failed.  Reducing to 18 matrices.
 Large coefficients: NSaved= 18 BigCof=    0.00 CofMax=   10.00 Det=-7.32D-15
 Inversion failed.  Reducing to 17 matrices.
 Coeff-Com:  0.387D-08 0.834D-07 0.111D-05 0.204D-05-0.239D-05-0.181D-04
 Coeff-Com:  0.368D-04 0.135D-03-0.932D-04-0.530D-03-0.177D-02 0.474D-02
 Coeff-Com:  0.161D-01-0.251D-01-0.139D+00-0.191D-01 0.116D+01
 Coeff:      0.387D-08 0.834D-07 0.111D-05 0.204D-05-0.239D-05-0.181D-04
 Coeff:      0.368D-04 0.135D-03-0.932D-04-0.530D-03-0.177D-02 0.474D-02
 Coeff:      0.161D-01-0.251D-01-0.139D+00-0.191D-01 0.116D+01
 Gap=     0.246 Goal=   None    Shift=    0.000
 RMSDP=4.29D-09 MaxDP=3.72D-07 DE=-9.09D-12 OVMax= 1.95D-07

 SCF Done:  E(RwB97XD) =  -3010.53138445     A.U. after   19 cycles
            NFock= 19  Conv=0.43D-08     -V/T= 2.0016
 KE= 3.005857375439D+03 PE=-8.700151972488D+03 EE= 1.910414630238D+03
 Leave Link  502 at Thu May  2 14:18:02 2024, MaxMem=   134217728 cpu:            1160.1 elap:            1160.7
 (Enter /software/gaussian/g16-c01/sse4/g16/l601.exe)
 Copying SCF densities to generalized density rwf, IOpCl= 0 IROHF=0.

 **********************************************************************

            Population analysis using the SCF Density.

 **********************************************************************

 Alpha  occ. eigenvalues -- -483.31614 -62.86643 -56.66330 -56.65769 -56.65760
 Alpha  occ. eigenvalues --  -19.46238 -19.46175 -14.85639 -10.59227 -10.58455
 Alpha  occ. eigenvalues --  -10.57489 -10.56924 -10.53229 -10.52822  -9.02453
 Alpha  occ. eigenvalues --   -6.85115  -6.83271  -6.83246  -2.95023  -2.94536
 Alpha  occ. eigenvalues --   -2.94515  -2.93040  -2.93039  -1.49898  -1.32856
 Alpha  occ. eigenvalues --   -1.22556  -1.12974  -1.12562  -1.05035  -1.00424
 Alpha  occ. eigenvalues --   -0.95450  -0.90629  -0.84997  -0.80930  -0.80236
 Alpha  occ. eigenvalues --   -0.80052  -0.78002  -0.76179  -0.75673  -0.72132
 Alpha  occ. eigenvalues --   -0.68607  -0.67576  -0.63439  -0.60061  -0.57435
 Alpha  occ. eigenvalues --   -0.56970  -0.56571  -0.55899  -0.54851
 Alpha virt. eigenvalues --   -0.30232  -0.20367  -0.15985  -0.13124  -0.09241
 Alpha virt. eigenvalues --   -0.06206  -0.05777  -0.05151  -0.04276  -0.03159
 Alpha virt. eigenvalues --   -0.02535  -0.02026  -0.01825  -0.01099  -0.00068
 Alpha virt. eigenvalues --    0.00502   0.01464   0.01758   0.02522   0.03263
 Alpha virt. eigenvalues --    0.04242   0.05105   0.05778   0.05993   0.06973
 Alpha virt. eigenvalues --    0.07317   0.07541   0.08414   0.09000   0.09971
 Alpha virt. eigenvalues --    0.10235   0.10527   0.11656   0.11799   0.12719
 Alpha virt. eigenvalues --    0.13005   0.13454   0.13871   0.14673   0.15783
 Alpha virt. eigenvalues --    0.16626   0.17327   0.17822   0.18616   0.19028
 Alpha virt. eigenvalues --    0.20069   0.21126   0.21681   0.22578   0.24082
 Alpha virt. eigenvalues --    0.24708   0.26545   0.27684   0.29127   0.31314
 Alpha virt. eigenvalues --    0.32019   0.33240   0.33722   0.34508   0.36606
 Alpha virt. eigenvalues --    0.37110   0.37617   0.39762   0.40476   0.41679
 Alpha virt. eigenvalues --    0.43362   0.44163   0.45598   0.47046   0.47379
 Alpha virt. eigenvalues --    0.48567   0.50225   0.50809   0.52051   0.53761
 Alpha virt. eigenvalues --    0.54980   0.55669   0.57896   0.58532   0.60140
 Alpha virt. eigenvalues --    0.61191   0.62220   0.64267   0.67123   0.68244
 Alpha virt. eigenvalues --    0.71686   0.71808   0.72656   0.74198   0.74622
 Alpha virt. eigenvalues --    0.74941   0.77621   0.79857   0.82925   0.85519
 Alpha virt. eigenvalues --    0.87061   0.87630   0.91575   0.94205   0.98918
 Alpha virt. eigenvalues --    1.00293   1.02535   1.03984   1.05645   1.06992
 Alpha virt. eigenvalues --    1.08594   1.12641   1.13437   1.14202   1.18070
 Alpha virt. eigenvalues --    1.20863   1.22844   1.28187   1.33372   1.36356
 Alpha virt. eigenvalues --    1.36920   1.39008   1.43071   1.54843   1.56686
 Alpha virt. eigenvalues --    1.57421   1.59913   1.61223   1.64000   1.65753
 Alpha virt. eigenvalues --    1.68171   1.71498   1.74016   1.75281   1.79507
 Alpha virt. eigenvalues --    1.83870   1.85473   1.87499   1.94490   1.95966
 Alpha virt. eigenvalues --    1.97860   2.02336   2.03035   2.07238   2.08841
 Alpha virt. eigenvalues --    2.12779   2.14673   2.22392   2.23733   2.27625
 Alpha virt. eigenvalues --    2.33649   2.39795   2.41615   2.44346   2.53341
 Alpha virt. eigenvalues --    2.58016   2.63244   2.66080   2.68842   2.71738
 Alpha virt. eigenvalues --    2.73773   2.76413   2.77486   2.80662   2.82018
 Alpha virt. eigenvalues --    2.93195   2.98120   3.01428   3.05687   3.09068
 Alpha virt. eigenvalues --    3.14969   3.16501   3.17590   3.22519   3.26646
 Alpha virt. eigenvalues --    3.28024   3.37979   3.46751   3.50218   3.54775
 Alpha virt. eigenvalues --    3.57599   3.68922   3.74253   3.83691   3.87403
 Alpha virt. eigenvalues --    4.09576   4.10426   4.19041   4.23146   4.42921
 Alpha virt. eigenvalues --    4.45210   4.54663   4.59910   4.93624   4.96383
 Alpha virt. eigenvalues --    5.05355   5.09680   5.62031   6.15186   6.67592
 Alpha virt. eigenvalues --    7.48444   7.50771   7.60890  23.22216  23.61367
 Alpha virt. eigenvalues --   23.71644  23.78101  23.95732  24.02300  35.31524
 Alpha virt. eigenvalues --   47.93705  49.85254  49.93916 289.81353 289.83693
 Alpha virt. eigenvalues --  289.963181020.94896
          Condensed to atoms (all electrons):
               1          2          3          4          5          6
     1  C    7.660698  -2.211299   0.715430  -0.024338   0.297286   0.053665
     2  C   -2.211299  16.943349  -3.753448   0.408003  -0.012956   0.201966
     3  C    0.715430  -3.753448  19.186744  -1.310271   0.023116   0.105985
     4  C   -0.024338   0.408003  -1.310271   6.367416   0.018612  -0.013791
     5  H    0.297286  -0.012956   0.023116   0.018612   0.316892  -0.001443
     6  H    0.053665   0.201966   0.105985  -0.013791  -0.001443   0.299869
     7  H    0.031660  -0.026756   0.021788   0.306198  -0.002621  -0.000001
     8  N   -0.092688  -0.073418  -1.804744   0.026705  -0.000391  -0.028039
     9  O   -0.008751   0.265282  -0.047498  -0.019496  -0.000030  -0.002341
    10  O    0.259548  -0.169204  -0.250128  -0.020926  -0.000006   0.020191
    11  C    0.723027  -0.581386   2.346528  -0.264193  -0.023069   0.007947
    12  H   -0.014608   0.018765   0.009334   0.023706   0.000022  -0.000017
    13  C   -1.289325  -4.980281  -8.972441   0.834441   0.023584  -0.008093
    14  H   -0.000568   0.007638   0.022514   0.000673  -0.000030   0.000049
    15  Br   0.011976  -0.222252  -0.224788  -0.009337  -0.000009  -0.000502
               7          8          9         10         11         12
     1  C    0.031660  -0.092688  -0.008751   0.259548   0.723027  -0.014608
     2  C   -0.026756  -0.073418   0.265282  -0.169204  -0.581386   0.018765
     3  C    0.021788  -1.804744  -0.047498  -0.250128   2.346528   0.009334
     4  C    0.306198   0.026705  -0.019496  -0.020926  -0.264193   0.023706
     5  H   -0.002621  -0.000391  -0.000030  -0.000006  -0.023069   0.000022
     6  H   -0.000001  -0.028039  -0.002341   0.020191   0.007947  -0.000017
     7  H    0.337283  -0.000009   0.000005   0.000000   0.026027  -0.002464
     8  N   -0.000009   7.657939   0.033997   0.210585  -0.345480   0.000343
     9  O    0.000005   0.033997   7.925640   0.006576   0.277711   0.000130
    10  O    0.000000   0.210585   0.006576   7.777058   0.000670  -0.000026
    11  C    0.026027  -0.345480   0.277711   0.000670   7.995922   0.305503
    12  H   -0.002464   0.000343   0.000130  -0.000026   0.305503   0.334962
    13  C   -0.022363   1.513493  -0.453302   0.071414  -4.332722  -0.013397
    14  H   -0.000026  -0.028125   0.012069  -0.001594   0.040375  -0.004979
    15  Br  -0.000412   0.168433  -0.057389   0.004113   0.029554  -0.000069
              13         14         15
     1  C   -1.289325  -0.000568   0.011976
     2  C   -4.980281   0.007638  -0.222252
     3  C   -8.972441   0.022514  -0.224788
     4  C    0.834441   0.000673  -0.009337
     5  H    0.023584  -0.000030  -0.000009
     6  H   -0.008093   0.000049  -0.000502
     7  H   -0.022363  -0.000026  -0.000412
     8  N    1.513493  -0.028125   0.168433
     9  O   -0.453302   0.012069  -0.057389
    10  O    0.071414  -0.001594   0.004113
    11  C   -4.332722   0.040375   0.029554
    12  H   -0.013397  -0.004979  -0.000069
    13  C   23.270987   0.262493   0.449611
    14  H    0.262493   0.331506  -0.043979
    15  Br   0.449611  -0.043979  34.739888
 Mulliken charges:
               1
     1  C   -0.111715
     2  C    0.185999
     3  C   -0.068123
     4  C   -0.323401
     5  H    0.361045
     6  H    0.364554
     7  H    0.331691
     8  N   -0.238602
     9  O    0.067397
    10  O    0.091727
    11  C   -0.206414
    12  H    0.342796
    13  C   -0.354099
    14  H    0.401984
    15  Br   0.155162
 Sum of Mulliken charges =   1.00000
 Mulliken charges with hydrogens summed into heavy atoms:
               1
     1  C    0.249329
     2  C    0.550553
     3  C   -0.068123
     4  C    0.008291
     8  N   -0.238602
     9  O    0.067397
    10  O    0.091727
    11  C    0.136382
    13  C    0.047885
    15  Br   0.155162
 Electronic spatial extent (au):  <R**2>=           3946.9108
 Charge=              1.0000 electrons
 Dipole moment (field-independent basis, Debye):
    X=              2.7256    Y=              0.2092    Z=             -0.5997  Tot=              2.7986
 Quadrupole moment (field-independent basis, Debye-Ang):
   XX=            -67.9082   YY=            -51.7303   ZZ=            -62.5754
   XY=             -0.6459   XZ=             -2.2312   YZ=              1.8698
 Traceless Quadrupole moment (field-independent basis, Debye-Ang):
   XX=             -7.1703   YY=              9.0077   ZZ=             -1.8374
   XY=             -0.6459   XZ=             -2.2312   YZ=              1.8698
 Octapole moment (field-independent basis, Debye-Ang**2):
  XXX=           -512.9696  YYY=             98.8037  ZZZ=             84.0964  XYY=           -137.8624
  XXY=             32.8497  XXZ=             26.1562  XZZ=           -133.4851  YZZ=             19.1557
  YYZ=             27.3754  XYZ=              6.7002
 Hexadecapole moment (field-independent basis, Debye-Ang**3):
 XXXX=          -3446.4774 YYYY=           -709.5445 ZZZZ=           -398.7513 XXXY=            213.1995
 XXXZ=            184.8645 YYYX=            198.3029 YYYZ=           -177.4810 ZZZX=            170.1387
 ZZZY=           -148.1807 XXYY=           -626.7949 XXZZ=           -528.6579 YYZZ=           -175.5744
 XXYZ=            -44.3073 YYXZ=             53.1711 ZZXY=             33.2582
 N-N= 7.733485823645D+02 E-N=-8.700151972071D+03  KE= 3.005857375439D+03
 No NMR shielding tensors so no spin-rotation constants.
 Leave Link  601 at Thu May  2 14:18:09 2024, MaxMem=   134217728 cpu:               7.5 elap:               7.5
 (Enter /software/gaussian/g16-c01/sse4/g16/l9999.exe)
 Unable to Open any file for archive entry.
 1\1\GINC-BHX0011\SP\RwB97XD\6-311+G(d)\C6H5Br1N1O2(1+)\BWEIGHT\02-May-
 2024\0\\#P wB97XD/6-311+G* NoSymm #P Field=Y-38\\TitleMe\\1,1\C,0,0.51
 93,1.233,-0.0319\C,0,1.9445,1.2692,-0.0367\C,0,2.6204,0.0928,-0.025\C,
 0,-0.196,0.0301,0.001\H,0,-0.0207,2.1742,-0.0434\H,0,2.4828,2.2089,-0.
 0361\H,0,-1.2777,0.0399,0.0117\N,0,4.0921,0.0959,0.0366\O,0,4.6393,-1.
 0217,0.1446\O,0,4.6649,1.1984,-0.0233\C,0,0.4943,-1.1671,0.021\H,0,-0.
 0325,-2.1149,0.0545\C,0,1.9629,-1.2165,-0.0211\H,0,2.4436,-1.9631,0.61
 51\Br,0,2.173,-1.9491,-1.9062\\Version=ES64L-G16RevC.01\HF=-3010.53138
 44\RMSD=4.293e-09\Dipole=-3.256894,1.3104216,1.0132923\Quadrupole=-5.3
 309179,6.6969855,-1.3660675,-0.4802295,-1.6588354,1.3901138\PG=C01 [X(
 C6H5Br1N1O2)]\\@
 The archive entry for this job was punched.


 SCIENCE IS LONG AND LIFE IS SHORT.

                     DON MOSER IN THE FEBRUARY 1979 SMITHSONIAN
 Job cpu time:       0 days  0 hours 20 minutes 31.1 seconds.
 Elapsed time:       0 days  0 hours 20 minutes 31.6 seconds.
 File lengths (MBytes):  RWF=     40 Int=      0 D2E=      0 Chk=     32 Scr=      1
 Normal termination of Gaussian 16 at Thu May  2 14:18:10 2024.
