 Entering Gaussian System, Link 0=g16
 Initial command:
 /software/gaussian/g16-c01/sse4/g16/l1.exe "/local_scratch/24665406/Gau-8813.inp" -scrdir="/local_scratch/24665406/"
 Entering Link 1 = /software/gaussian/g16-c01/sse4/g16/l1.exe PID=      8819.
  
 Copyright (c) 1988-2019, Gaussian, Inc.  All Rights Reserved.
  
 This is part of the Gaussian(R) 16 program.  It is based on
 the Gaussian(R) 09 system (copyright 2009, Gaussian, Inc.),
 the Gaussian(R) 03 system (copyright 2003, Gaussian, Inc.),
 the Gaussian(R) 98 system (copyright 1998, Gaussian, Inc.),
 the Gaussian(R) 94 system (copyright 1995, Gaussian, Inc.),
 the Gaussian 92(TM) system (copyright 1992, Gaussian, Inc.),
 the Gaussian 90(TM) system (copyright 1990, Gaussian, Inc.),
 the Gaussian 88(TM) system (copyright 1988, Gaussian, Inc.),
 the Gaussian 86(TM) system (copyright 1986, Carnegie Mellon
 University), and the Gaussian 82(TM) system (copyright 1983,
 Carnegie Mellon University). Gaussian is a federally registered
 trademark of Gaussian, Inc.
  
 This software contains proprietary and confidential information,
 including trade secrets, belonging to Gaussian, Inc.
  
 This software is provided under written license and may be
 used, copied, transmitted, or stored only in accord with that
 written license.
  
 The following legend is applicable only to US Government
 contracts under FAR:
  
                    RESTRICTED RIGHTS LEGEND
  
 Use, reproduction and disclosure by the US Government is
 subject to restrictions as set forth in subparagraphs (a)
 and (c) of the Commercial Computer Software - Restricted
 Rights clause in FAR 52.227-19.
  
 Gaussian, Inc.
 340 Quinnipiac St., Bldg. 40, Wallingford CT 06492
  
  
 ---------------------------------------------------------------
 Warning -- This program may not be used in any manner that
 competes with the business of Gaussian, Inc. or will provide
 assistance to any competitor of Gaussian, Inc.  The licensee
 of this program is prohibited from giving any competitor of
 Gaussian, Inc. access to this program.  By using this program,
 the user acknowledges that Gaussian, Inc. is engaged in the
 business of creating and licensing software in the field of
 computational chemistry and represents and warrants to the
 licensee that it is not a competitor of Gaussian, Inc. and that
 it will not use this program in any manner prohibited above.
 ---------------------------------------------------------------
  

 Cite this work as:
 Gaussian 16, Revision C.01,
 M. J. Frisch, G. W. Trucks, H. B. Schlegel, G. E. Scuseria, 
 M. A. Robb, J. R. Cheeseman, G. Scalmani, V. Barone, 
 G. A. Petersson, H. Nakatsuji, X. Li, M. Caricato, A. V. Marenich, 
 J. Bloino, B. G. Janesko, R. Gomperts, B. Mennucci, H. P. Hratchian, 
 J. V. Ortiz, A. F. Izmaylov, J. L. Sonnenberg, D. Williams-Young, 
 F. Ding, F. Lipparini, F. Egidi, J. Goings, B. Peng, A. Petrone, 
 T. Henderson, D. Ranasinghe, V. G. Zakrzewski, J. Gao, N. Rega, 
 G. Zheng, W. Liang, M. Hada, M. Ehara, K. Toyota, R. Fukuda, 
 J. Hasegawa, M. Ishida, T. Nakajima, Y. Honda, O. Kitao, H. Nakai, 
 T. Vreven, K. Throssell, J. A. Montgomery, Jr., J. E. Peralta, 
 F. Ogliaro, M. J. Bearpark, J. J. Heyd, E. N. Brothers, K. N. Kudin, 
 V. N. Staroverov, T. A. Keith, R. Kobayashi, J. Normand, 
 K. Raghavachari, A. P. Rendell, J. C. Burant, S. S. Iyengar, 
 J. Tomasi, M. Cossi, J. M. Millam, M. Klene, C. Adamo, R. Cammi, 
 J. W. Ochterski, R. L. Martin, K. Morokuma, O. Farkas, 
 J. B. Foresman, and D. J. Fox, Gaussian, Inc., Wallingford CT, 2019.
 
 ******************************************
 Gaussian 16:  ES64L-G16RevC.01  3-Jul-2019
                 2-May-2024 
 ******************************************
 %chk=geometry.chk
 %mem=1GB
 %nprocshared=12
 Will use up to   12 processors via shared memory.
 ----------------------------------------
 #P wB97XD/6-311+G* NoSymm #P Field=Z+223
 ----------------------------------------
 1/38=1,172=1/1;
 2/12=2,15=1,17=6,18=5,40=1/2;
 3/5=4,6=6,7=11,11=2,14=3,15=223,25=1,30=1,74=-58/1,2,3;
 4//1;
 5/5=2,38=5/2;
 6/7=2,8=2,9=2,10=2,28=1/1;
 99/5=1,9=1/99;
 Leave Link    1 at Thu May  2 13:58:19 2024, MaxMem=   134217728 cpu:               1.8 elap:               1.8
 (Enter /software/gaussian/g16-c01/sse4/g16/l101.exe)
 -------
 TitleMe
 -------
 Symbolic Z-matrix:
 Charge =  1 Multiplicity = 1
 C                     0.5193    1.233    -0.0319 
 C                     1.9445    1.2692   -0.0367 
 C                     2.6204    0.0928   -0.025 
 C                    -0.196     0.0301    0.001 
 H                    -0.0207    2.1742   -0.0434 
 H                     2.4828    2.2089   -0.0361 
 H                    -1.2777    0.0399    0.0117 
 N                     4.0921    0.0959    0.0366 
 O                     4.6393   -1.0217    0.1446 
 O                     4.6649    1.1984   -0.0233 
 C                     0.4943   -1.1671    0.021 
 H                    -0.0325   -2.1149    0.0545 
 C                     1.9629   -1.2165   -0.0211 
 H                     2.4436   -1.9631    0.6151 
 Br                    2.173    -1.9491   -1.9062 
 
 ITRead=  0  0  0  0  0  0  0  0  0  0  0  0  0  0  0
 MicOpt= -1 -1 -1 -1 -1 -1 -1 -1 -1 -1 -1 -1 -1 -1 -1
 NAtoms=     15 NQM=       15 NQMF=       0 NMMI=      0 NMMIF=      0
                NMic=       0 NMicF=      0.
                    Isotopes and Nuclear Properties:
 (Nuclear quadrupole moments (NQMom) in fm**2, nuclear magnetic moments (NMagM)
  in nuclear magnetons)

  Atom         1           2           3           4           5           6           7           8           9          10
 IAtWgt=          12          12          12          12           1           1           1          14          16          16
 AtmWgt=  12.0000000  12.0000000  12.0000000  12.0000000   1.0078250   1.0078250   1.0078250  14.0030740  15.9949146  15.9949146
 NucSpn=           0           0           0           0           1           1           1           2           0           0
 AtZEff=  -0.0000000  -0.0000000  -0.0000000  -0.0000000  -0.0000000  -0.0000000  -0.0000000  -0.0000000  -0.0000000  -0.0000000
 NQMom=    0.0000000   0.0000000   0.0000000   0.0000000   0.0000000   0.0000000   0.0000000   2.0440000   0.0000000   0.0000000
 NMagM=    0.0000000   0.0000000   0.0000000   0.0000000   2.7928460   2.7928460   2.7928460   0.4037610   0.0000000   0.0000000
 AtZNuc=   6.0000000   6.0000000   6.0000000   6.0000000   1.0000000   1.0000000   1.0000000   7.0000000   8.0000000   8.0000000

  Atom        11          12          13          14          15
 IAtWgt=          12           1          12           1          79
 AtmWgt=  12.0000000   1.0078250  12.0000000   1.0078250  78.9183361
 NucSpn=           0           1           0           1           3
 AtZEff=  -0.0000000  -0.0000000  -0.0000000  -0.0000000  -0.0000000
 NQMom=    0.0000000   0.0000000   0.0000000   0.0000000  31.3000000
 NMagM=    0.0000000   2.7928460   0.0000000   2.7928460   2.1063990
 AtZNuc=   6.0000000   1.0000000   6.0000000   1.0000000  35.0000000
 Leave Link  101 at Thu May  2 13:58:20 2024, MaxMem=   134217728 cpu:               1.5 elap:               1.5
 (Enter /software/gaussian/g16-c01/sse4/g16/l202.exe)
                          Input orientation:                          
 ---------------------------------------------------------------------
 Center     Atomic      Atomic             Coordinates (Angstroms)
 Number     Number       Type             X           Y           Z
 ---------------------------------------------------------------------
      1          6           0        0.519300    1.233000   -0.031900
      2          6           0        1.944500    1.269200   -0.036700
      3          6           0        2.620400    0.092800   -0.025000
      4          6           0       -0.196000    0.030100    0.001000
      5          1           0       -0.020700    2.174200   -0.043400
      6          1           0        2.482800    2.208900   -0.036100
      7          1           0       -1.277700    0.039900    0.011700
      8          7           0        4.092100    0.095900    0.036600
      9          8           0        4.639300   -1.021700    0.144600
     10          8           0        4.664900    1.198400   -0.023300
     11          6           0        0.494300   -1.167100    0.021000
     12          1           0       -0.032500   -2.114900    0.054500
     13          6           0        1.962900   -1.216500   -0.021100
     14          1           0        2.443600   -1.963100    0.615100
     15         35           0        2.173000   -1.949100   -1.906200
 ---------------------------------------------------------------------
                    Distance matrix (angstroms):
                    1          2          3          4          5
     1  C    0.000000
     2  C    1.425668   0.000000
     3  C    2.390549   1.356796   0.000000
     4  C    1.399895   2.473566   2.817218   0.000000
     5  H    1.085168   2.163581   3.362733   2.151712   0.000000
     6  H    2.192654   1.082960   2.120598   3.453189   2.503751
     7  H    2.157452   3.449071   3.898632   1.081797   2.477564
     8  N    3.750012   2.448304   1.472992   4.288753   4.608780
     9  O    4.699917   3.541615   2.312322   4.950458   5.653735
    10  O    4.145753   2.721354   2.324292   4.999386   4.786171
    11  C    2.400813   2.835836   2.471794   1.382101   3.381369
    12  H    3.394169   3.920329   3.452266   2.151887   4.290233
    13  C    2.843264   2.485817   1.465124   2.493060   3.928360
    14  H    3.786370   3.334922   2.160489   3.364142   4.860416
    15  Br   4.046416   3.728900   2.812194   3.628609   5.028314
                    6          7          8          9         10
     6  H    0.000000
     7  H    4.341452   0.000000
     8  N    2.657047   5.370150   0.000000
     9  O    3.888434   6.012948   1.249048   0.000000
    10  O    2.404752   6.054572   1.243863   2.226587   0.000000
    11  C    3.918516   2.144043   3.813080   4.149391   4.794941
    12  H    5.003018   2.489080   4.679774   4.798846   5.748876
    13  C    3.464662   3.475788   2.501842   2.688591   3.623886
    14  H    4.222698   4.268978   2.700314   2.434893   3.916224
    15  Br   4.569706   4.420610   3.411663   3.338935   4.434144
                   11         12         13         14         15
    11  C    0.000000
    12  H    1.084880   0.000000
    13  C    1.470034   2.189625   0.000000
    14  H    2.187771   2.543302   1.092353   0.000000
    15  Br   2.672762   2.955683   2.033334   2.535818   0.000000
 Symmetry turned off by external request.
 Stoichiometry    C6H5BrNO2(1+)
 Framework group  C1[X(C6H5BrNO2)]
 Deg. of freedom    39
 Full point group                 C1      NOp   1
 Rotational constants (GHZ):           1.1632986           0.9594224           0.5957624
 Leave Link  202 at Thu May  2 13:58:22 2024, MaxMem=   134217728 cpu:               1.3 elap:               1.3
 (Enter /software/gaussian/g16-c01/sse4/g16/l301.exe)
 Standard basis: 6-311+G(d) (5D, 7F)
 Ernie: Thresh=  0.10000D-02 Tol=  0.10000D-05 Strict=F.
 The following finite field(s) will be applied:
 An electric field of              0.0000  0.0000  0.0223
   261 basis functions,   443 primitive gaussians,   273 cartesian basis functions
    49 alpha electrons       49 beta electrons
       nuclear repulsion energy       772.8945969580 Hartrees.
 IExCor= 4639 DFT=T Ex+Corr=wB97XD ExCW=0 ScaHFX=  1.000000
 ScaDFX=  1.000000  1.000000  1.000000  1.000000 ScalE2=  1.000000  1.000000
 IRadAn=      5 IRanWt=     -1 IRanGd=            0 ICorTp=0 IEmpDi=121
 HFx  wShort=  0.000000 wLong=  0.200000 cFull=  0.222036 cShort=  0.000000 cLong=  0.777964
 DFx  wShort=  0.000000 wLong=  0.200000 cFull=  0.000000 cShort=  0.000000 cLong=  1.000000
 NAtoms=   15 NActive=   15 NUniq=   15 SFac= 1.00D+00 NAtFMM=   60 NAOKFM=F Big=F
 Integral buffers will be    131072 words long.
 Raffenetti 2 integral format.
 Two-electron integral symmetry is turned off.
 R6Disp:  Grimme-D2 Dispersion energy=       -0.0080346408 Hartrees.
 Nuclear repulsion after empirical dispersion term =      772.8865623173 Hartrees.
 Leave Link  301 at Thu May  2 13:58:23 2024, MaxMem=   134217728 cpu:               1.0 elap:               1.0
 (Enter /software/gaussian/g16-c01/sse4/g16/l302.exe)
 NPDir=0 NMtPBC=     1 NCelOv=     1 NCel=       1 NClECP=     1 NCelD=      1
         NCelK=      1 NCelE2=     1 NClLst=     1 CellRange=     0.0.
 One-electron integrals computed using PRISM.
 NBasis=   261 RedAO= T EigKep=  2.52D-06  NBF=   261
 NBsUse=   261 1.00D-06 EigRej= -1.00D+00 NBFU=   261
 Precomputing XC quadrature grid using
 IXCGrd= 4 IRadAn=           5 IRanWt=          -1 IRanGd=           0 AccXCQ= 0.00D+00.
 Generated NRdTot=       0 NPtTot=           0 NUsed=           0 NTot=          32
 NSgBfM=   273   273   273   273   273 MxSgAt=    15 MxSgA2=    15.
 Leave Link  302 at Thu May  2 13:58:45 2024, MaxMem=   134217728 cpu:              22.3 elap:              22.3
 (Enter /software/gaussian/g16-c01/sse4/g16/l303.exe)
 DipDrv:  MaxL=1.
 The nuclear repulsion energy is now       770.1286600307 hartrees.
 Leave Link  303 at Thu May  2 13:58:49 2024, MaxMem=   134217728 cpu:               3.4 elap:               3.4
 (Enter /software/gaussian/g16-c01/sse4/g16/l401.exe)
 ExpMin= 3.50D-02 ExpMax= 4.40D+05 ExpMxC= 1.51D+04 IAcc=3 IRadAn=         5 AccDes= 0.00D+00
 Harris functional with IExCor= 4639 and IRadAn=       5 diagonalized for initial guess.
 HarFok:  IExCor= 4639 AccDes= 0.00D+00 IRadAn=         5 IDoV= 1 UseB2=F ITyADJ=14
 ICtDFT=  3500011 ScaDFX=  1.000000  1.000000  1.000000  1.000000
 FoFCou: FMM=F IPFlag=           0 FMFlag=      100000 FMFlg1=           0
         NFxFlg=           0 DoJE=T BraDBF=F KetDBF=T FulRan=T
         wScrn=  0.000000 ICntrl=       500 IOpCl=  0 I1Cent=   200000004 NGrid=           0
         NMat0=    1 NMatS0=      1 NMatT0=    0 NMatD0=    1 NMtDS0=    0 NMtDT0=    0
 Symmetry not used in FoFCou.
 Harris En= -2970.64492305944    
 JPrj=0 DoOrth=F DoCkMO=F.
 Leave Link  401 at Thu May  2 13:59:20 2024, MaxMem=   134217728 cpu:              31.6 elap:              31.6
 (Enter /software/gaussian/g16-c01/sse4/g16/l502.exe)
 Two-electron integral symmetry not used.
 Closed shell SCF:
 Using DIIS extrapolation, IDIIS=  1040.
 NGot=   134217728 LenX=   134063053 LenY=   133988083
 Requested convergence on RMS density matrix=1.00D-08 within 128 cycles.
 Requested convergence on MAX density matrix=1.00D-06.
 Requested convergence on             energy=1.00D-06.
 No special actions if energy rises.
 Fock matrices will be formed incrementally for  20 cycles.

 Cycle   1  Pass 1  IDiag  1:
 FoFJK:  IHMeth= 1 ICntrl=       0 DoSepK=T KAlg= 0 I1Cent=           0 FoldK=F
 IRaf=         1 NMat=       1 IRICut=       1 DoRegI=T DoRafI=F ISym2E= 0 IDoP0=0 IntGTp=1.
 FoFCou: FMM=F IPFlag=           0 FMFlag=      100000 FMFlg1=           0
         NFxFlg=           0 DoJE=T BraDBF=F KetDBF=F FulRan=T
         wScrn=  0.000000 ICntrl=       500 IOpCl=  0 I1Cent=           0 NGrid=           0
         NMat0=    1 NMatS0=      1 NMatT0=    0 NMatD0=    1 NMtDS0=    0 NMtDT0=    0
 Symmetry not used in FoFCou.
 E= -3009.62495303490    
 DIIS: error= 2.91D-01 at cycle   1 NSaved=   1.
 NSaved= 1 IEnMin= 1 EnMin= -3009.62495303490     IErMin= 1 ErrMin= 2.91D-01
 ErrMax= 2.91D-01  0.00D+00 EMaxC= 1.00D-01 BMatC= 1.21D+01 BMatP= 1.21D+01
 IDIUse=3 WtCom= 0.00D+00 WtEn= 1.00D+00
 Coeff-Com:  0.100D+01
 Coeff-En:   0.100D+01
 Coeff:      0.100D+01
 Gap=     0.321 Goal=   None    Shift=    0.000
 GapD=    0.321 DampG=1.000 DampE=0.250 DampFc=0.2500 IDamp=-1.
 Damping current iteration by 2.50D-01
 RMSDP=2.44D-01 MaxDP=2.84D+01              OVMax= 2.61D-01

 Cycle   2  Pass 1  IDiag  1:
 RMSU=  1.03D-02    CP:  8.17D-01
 E= -3009.95489210644     Delta-E=       -0.329939071541 Rises=F Damp=T
 DIIS: error= 2.19D-01 at cycle   2 NSaved=   2.
 NSaved= 2 IEnMin= 2 EnMin= -3009.95489210644     IErMin= 2 ErrMin= 2.19D-01
 ErrMax= 2.19D-01  0.00D+00 EMaxC= 1.00D-01 BMatC= 5.47D+00 BMatP= 1.21D+01
 IDIUse=3 WtCom= 0.00D+00 WtEn= 1.00D+00
 Coeff-Com: -0.177D+01 0.277D+01
 Coeff-En:   0.000D+00 0.100D+01
 Coeff:      0.000D+00 0.100D+01
 Gap=     0.259 Goal=   None    Shift=    0.000
 RMSDP=1.73D-01 MaxDP=2.06D+01 DE=-3.30D-01 OVMax= 1.11D-01

 Cycle   3  Pass 1  IDiag  1:
 RMSU=  6.93D-03    CP:  2.93D-01  3.00D+00
 E= -3010.36442908969     Delta-E=       -0.409536983246 Rises=F Damp=F
 DIIS: error= 6.75D-02 at cycle   3 NSaved=   3.
 NSaved= 3 IEnMin= 3 EnMin= -3010.36442908969     IErMin= 3 ErrMin= 6.75D-02
 ErrMax= 6.75D-02  0.00D+00 EMaxC= 1.00D-01 BMatC= 8.06D-01 BMatP= 5.47D+00
 IDIUse=3 WtCom= 3.25D-01 WtEn= 6.75D-01
 Coeff-Com:  0.245D+01-0.321D+01 0.176D+01
 Coeff-En:   0.787D-01 0.000D+00 0.921D+00
 Coeff:      0.849D+00-0.104D+01 0.119D+01
 Gap=     0.285 Goal=   None    Shift=    0.000
 RMSDP=3.05D-02 MaxDP=3.67D+00 DE=-4.10D-01 OVMax= 1.37D-01

 Cycle   4  Pass 1  IDiag  1:
 RMSU=  9.56D-03    CP:  3.81D-01  3.00D+00  1.46D+00
 E= -3010.50543217133     Delta-E=       -0.141003081647 Rises=F Damp=F
 DIIS: error= 3.55D-02 at cycle   4 NSaved=   4.
 NSaved= 4 IEnMin= 4 EnMin= -3010.50543217133     IErMin= 4 ErrMin= 3.55D-02
 ErrMax= 3.55D-02  0.00D+00 EMaxC= 1.00D-01 BMatC= 2.08D-01 BMatP= 8.06D-01
 IDIUse=3 WtCom= 6.45D-01 WtEn= 3.55D-01
 Coeff-Com: -0.204D+00 0.286D+00 0.234D+00 0.685D+00
 Coeff-En:   0.000D+00 0.000D+00 0.171D+00 0.829D+00
 Coeff:     -0.132D+00 0.184D+00 0.211D+00 0.736D+00
 Gap=     0.241 Goal=   None    Shift=    0.000
 RMSDP=2.01D-02 MaxDP=2.75D+00 DE=-1.41D-01 OVMax= 5.25D-02

 Cycle   5  Pass 1  IDiag  1:
 RMSU=  3.45D-03    CP:  3.21D-01  3.00D+00  1.31D+00  6.40D-01
 E= -3010.55225662256     Delta-E=       -0.046824451232 Rises=F Damp=F
 DIIS: error= 6.72D-03 at cycle   5 NSaved=   5.
 NSaved= 5 IEnMin= 5 EnMin= -3010.55225662256     IErMin= 5 ErrMin= 6.72D-03
 ErrMax= 6.72D-03  0.00D+00 EMaxC= 1.00D-01 BMatC= 9.96D-03 BMatP= 2.08D-01
 IDIUse=3 WtCom= 9.33D-01 WtEn= 6.72D-02
 Coeff-Com: -0.199D+00 0.271D+00 0.472D-01 0.420D+00 0.461D+00
 Coeff-En:   0.000D+00 0.000D+00 0.000D+00 0.000D+00 0.100D+01
 Coeff:     -0.186D+00 0.252D+00 0.440D-01 0.392D+00 0.497D+00
 Gap=     0.226 Goal=   None    Shift=    0.000
 RMSDP=4.09D-03 MaxDP=5.44D-01 DE=-4.68D-02 OVMax= 2.48D-02

 Cycle   6  Pass 1  IDiag  1:
 RMSU=  8.17D-04    CP:  3.33D-01  3.00D+00  1.39D+00  7.22D-01  7.82D-01
 E= -3010.55559472894     Delta-E=       -0.003338106379 Rises=F Damp=F
 DIIS: error= 2.66D-03 at cycle   6 NSaved=   6.
 NSaved= 6 IEnMin= 6 EnMin= -3010.55559472894     IErMin= 6 ErrMin= 2.66D-03
 ErrMax= 2.66D-03  0.00D+00 EMaxC= 1.00D-01 BMatC= 5.87D-04 BMatP= 9.96D-03
 IDIUse=3 WtCom= 9.73D-01 WtEn= 2.66D-02
 Coeff-Com: -0.130D+00 0.176D+00-0.975D-02 0.201D+00 0.326D+00 0.437D+00
 Coeff-En:   0.000D+00 0.000D+00 0.000D+00 0.000D+00 0.237D-01 0.976D+00
 Coeff:     -0.127D+00 0.171D+00-0.949D-02 0.195D+00 0.318D+00 0.452D+00
 Gap=     0.227 Goal=   None    Shift=    0.000
 RMSDP=1.22D-03 MaxDP=1.53D-01 DE=-3.34D-03 OVMax= 9.03D-03

 Cycle   7  Pass 1  IDiag  1:
 RMSU=  3.32D-04    CP:  3.29D-01  3.00D+00  1.39D+00  7.05D-01  9.18D-01
                    CP:  9.85D-01
 E= -3010.55606907550     Delta-E=       -0.000474346556 Rises=F Damp=F
 DIIS: error= 4.18D-04 at cycle   7 NSaved=   7.
 NSaved= 7 IEnMin= 7 EnMin= -3010.55606907550     IErMin= 7 ErrMin= 4.18D-04
 ErrMax= 4.18D-04  0.00D+00 EMaxC= 1.00D-01 BMatC= 3.06D-05 BMatP= 5.87D-04
 IDIUse=3 WtCom= 9.96D-01 WtEn= 4.18D-03
 Coeff-Com: -0.395D-01 0.526D-01-0.164D-01 0.313D-01 0.548D-01 0.166D+00
 Coeff-Com:  0.751D+00
 Coeff-En:   0.000D+00 0.000D+00 0.000D+00 0.000D+00 0.000D+00 0.000D+00
 Coeff-En:   0.100D+01
 Coeff:     -0.393D-01 0.524D-01-0.163D-01 0.312D-01 0.545D-01 0.165D+00
 Coeff:      0.752D+00
 Gap=     0.228 Goal=   None    Shift=    0.000
 RMSDP=5.39D-04 MaxDP=7.14D-02 DE=-4.74D-04 OVMax= 5.59D-03

 Cycle   8  Pass 1  IDiag  1:
 RMSU=  1.26D-04    CP:  3.28D-01  3.00D+00  1.39D+00  7.04D-01  9.77D-01
                    CP:  1.06D+00  1.21D+00
 E= -3010.55614766077     Delta-E=       -0.000078585274 Rises=F Damp=F
 DIIS: error= 2.25D-04 at cycle   8 NSaved=   8.
 NSaved= 8 IEnMin= 8 EnMin= -3010.55614766077     IErMin= 8 ErrMin= 2.25D-04
 ErrMax= 2.25D-04  0.00D+00 EMaxC= 1.00D-01 BMatC= 8.61D-06 BMatP= 3.06D-05
 IDIUse=3 WtCom= 9.98D-01 WtEn= 2.25D-03
 Coeff-Com:  0.758D-02-0.105D-01-0.625D-02-0.265D-01-0.531D-01-0.577D-01
 Coeff-Com:  0.276D+00 0.870D+00
 Coeff-En:   0.000D+00 0.000D+00 0.000D+00 0.000D+00 0.000D+00 0.000D+00
 Coeff-En:   0.000D+00 0.100D+01
 Coeff:      0.756D-02-0.105D-01-0.624D-02-0.265D-01-0.530D-01-0.576D-01
 Coeff:      0.276D+00 0.870D+00
 Gap=     0.228 Goal=   None    Shift=    0.000
 RMSDP=2.35D-04 MaxDP=2.38D-02 DE=-7.86D-05 OVMax= 4.52D-03

 Cycle   9  Pass 1  IDiag  1:
 RMSU=  5.38D-05    CP:  3.28D-01  3.00D+00  1.40D+00  7.04D-01  1.02D+00
                    CP:  1.18D+00  1.63D+00  1.50D+00
 E= -3010.55618957933     Delta-E=       -0.000041918553 Rises=F Damp=F
 DIIS: error= 6.32D-05 at cycle   9 NSaved=   9.
 NSaved= 9 IEnMin= 9 EnMin= -3010.55618957933     IErMin= 9 ErrMin= 6.32D-05
 ErrMax= 6.32D-05  0.00D+00 EMaxC= 1.00D-01 BMatC= 1.54D-06 BMatP= 8.61D-06
 IDIUse=1 WtCom= 1.00D+00 WtEn= 0.00D+00
 Coeff-Com:  0.783D-02-0.104D-01 0.266D-02-0.954D-02-0.200D-01-0.534D-01
 Coeff-Com: -0.195D+00 0.808D-01 0.120D+01
 Coeff:      0.783D-02-0.104D-01 0.266D-02-0.954D-02-0.200D-01-0.534D-01
 Coeff:     -0.195D+00 0.808D-01 0.120D+01
 Gap=     0.228 Goal=   None    Shift=    0.000
 RMSDP=2.20D-04 MaxDP=2.07D-02 DE=-4.19D-05 OVMax= 4.54D-03

 Cycle  10  Pass 1  IDiag  1:
 RMSU=  8.64D-05    CP:  3.28D-01  3.00D+00  1.39D+00  7.02D-01  1.05D+00
                    CP:  1.19D+00  1.80D+00  2.12D+00  2.10D+00
 E= -3010.55620788641     Delta-E=       -0.000018307088 Rises=F Damp=F
 DIIS: error= 2.84D-05 at cycle  10 NSaved=  10.
 NSaved=10 IEnMin=10 EnMin= -3010.55620788641     IErMin=10 ErrMin= 2.84D-05
 ErrMax= 2.84D-05  0.00D+00 EMaxC= 1.00D-01 BMatC= 3.86D-07 BMatP= 1.54D-06
 IDIUse=1 WtCom= 1.00D+00 WtEn= 0.00D+00
 Coeff-Com: -0.256D-02 0.353D-02 0.880D-03 0.500D-02 0.929D-02 0.996D-02
 Coeff-Com: -0.677D-01-0.151D+00 0.174D+00 0.102D+01
 Coeff:     -0.256D-02 0.353D-02 0.880D-03 0.500D-02 0.929D-02 0.996D-02
 Coeff:     -0.677D-01-0.151D+00 0.174D+00 0.102D+01
 Gap=     0.228 Goal=   None    Shift=    0.000
 RMSDP=9.28D-05 MaxDP=6.52D-03 DE=-1.83D-05 OVMax= 1.95D-03

 Cycle  11  Pass 1  IDiag  1:
 RMSU=  1.68D-05    CP:  3.28D-01  3.00D+00  1.39D+00  7.01D-01  1.06D+00
                    CP:  1.17D+00  1.81D+00  2.34D+00  2.78D+00  1.52D+00
 E= -3010.55621121868     Delta-E=       -0.000003332265 Rises=F Damp=F
 DIIS: error= 1.82D-05 at cycle  11 NSaved=  11.
 NSaved=11 IEnMin=11 EnMin= -3010.55621121868     IErMin=11 ErrMin= 1.82D-05
 ErrMax= 1.82D-05  0.00D+00 EMaxC= 1.00D-01 BMatC= 1.20D-07 BMatP= 3.86D-07
 IDIUse=1 WtCom= 1.00D+00 WtEn= 0.00D+00
 Coeff-Com: -0.155D-02 0.207D-02-0.191D-03 0.308D-02 0.615D-02 0.139D-01
 Coeff-Com:  0.532D-01-0.538D-01-0.379D+00 0.246D+00 0.111D+01
 Coeff:     -0.155D-02 0.207D-02-0.191D-03 0.308D-02 0.615D-02 0.139D-01
 Coeff:      0.532D-01-0.538D-01-0.379D+00 0.246D+00 0.111D+01
 Gap=     0.228 Goal=   None    Shift=    0.000
 RMSDP=7.40D-05 MaxDP=4.56D-03 DE=-3.33D-06 OVMax= 1.49D-03

 Cycle  12  Pass 1  IDiag  1:
 RMSU=  1.69D-05    CP:  3.28D-01  3.00D+00  1.39D+00  7.01D-01  1.07D+00
                    CP:  1.16D+00  1.83D+00  2.49D+00  3.00D+00  2.05D+00
                    CP:  1.36D+00
 E= -3010.55621227879     Delta-E=       -0.000001060108 Rises=F Damp=F
 DIIS: error= 5.83D-06 at cycle  12 NSaved=  12.
 NSaved=12 IEnMin=12 EnMin= -3010.55621227879     IErMin=12 ErrMin= 5.83D-06
 ErrMax= 5.83D-06  0.00D+00 EMaxC= 1.00D-01 BMatC= 1.86D-08 BMatP= 1.20D-07
 IDIUse=1 WtCom= 1.00D+00 WtEn= 0.00D+00
 Coeff-Com: -0.374D-03 0.486D-03-0.177D-03 0.695D-03 0.981D-03 0.314D-02
 Coeff-Com:  0.288D-01-0.910D-02-0.162D+00-0.831D-02 0.397D+00 0.749D+00
 Coeff:     -0.374D-03 0.486D-03-0.177D-03 0.695D-03 0.981D-03 0.314D-02
 Coeff:      0.288D-01-0.910D-02-0.162D+00-0.831D-02 0.397D+00 0.749D+00
 Gap=     0.228 Goal=   None    Shift=    0.000
 RMSDP=2.38D-05 MaxDP=1.94D-03 DE=-1.06D-06 OVMax= 3.48D-04

 Cycle  13  Pass 1  IDiag  1:
 RMSU=  3.00D-06    CP:  3.28D-01  3.00D+00  1.39D+00  7.01D-01  1.07D+00
                    CP:  1.16D+00  1.83D+00  2.51D+00  3.00D+00  2.18D+00
                    CP:  1.43D+00  1.39D+00
 E= -3010.55621234986     Delta-E=       -0.000000071071 Rises=F Damp=F
 DIIS: error= 3.36D-06 at cycle  13 NSaved=  13.
 NSaved=13 IEnMin=13 EnMin= -3010.55621234986     IErMin=13 ErrMin= 3.36D-06
 ErrMax= 3.36D-06  0.00D+00 EMaxC= 1.00D-01 BMatC= 3.68D-09 BMatP= 1.86D-08
 IDIUse=1 WtCom= 1.00D+00 WtEn= 0.00D+00
 Coeff-Com:  0.883D-04-0.119D-03-0.564D-04-0.452D-03-0.134D-02-0.293D-02
 Coeff-Com: -0.522D-02 0.755D-02 0.570D-01-0.596D-01-0.184D+00 0.242D+00
 Coeff-Com:  0.947D+00
 Coeff:      0.883D-04-0.119D-03-0.564D-04-0.452D-03-0.134D-02-0.293D-02
 Coeff:     -0.522D-02 0.755D-02 0.570D-01-0.596D-01-0.184D+00 0.242D+00
 Coeff:      0.947D+00
 Gap=     0.228 Goal=   None    Shift=    0.000
 RMSDP=1.21D-05 MaxDP=1.11D-03 DE=-7.11D-08 OVMax= 1.64D-04

 Cycle  14  Pass 1  IDiag  1:
 RMSU=  2.42D-06    CP:  3.28D-01  3.00D+00  1.38D+00  7.02D-01  1.07D+00
                    CP:  1.16D+00  1.84D+00  2.52D+00  3.00D+00  2.23D+00
                    CP:  1.45D+00  1.58D+00  1.47D+00
 E= -3010.55621236394     Delta-E=       -0.000000014082 Rises=F Damp=F
 DIIS: error= 1.04D-06 at cycle  14 NSaved=  14.
 NSaved=14 IEnMin=14 EnMin= -3010.55621236394     IErMin=14 ErrMin= 1.04D-06
 ErrMax= 1.04D-06  0.00D+00 EMaxC= 1.00D-01 BMatC= 4.31D-10 BMatP= 3.68D-09
 IDIUse=1 WtCom= 1.00D+00 WtEn= 0.00D+00
 Coeff-Com:  0.681D-04-0.900D-04 0.748D-05-0.184D-03-0.343D-03-0.851D-03
 Coeff-Com: -0.372D-02 0.226D-02 0.306D-01-0.120D-01-0.891D-01-0.335D-01
 Coeff-Com:  0.234D+00 0.872D+00
 Coeff:      0.681D-04-0.900D-04 0.748D-05-0.184D-03-0.343D-03-0.851D-03
 Coeff:     -0.372D-02 0.226D-02 0.306D-01-0.120D-01-0.891D-01-0.335D-01
 Coeff:      0.234D+00 0.872D+00
 Gap=     0.228 Goal=   None    Shift=    0.000
 RMSDP=3.29D-06 MaxDP=2.94D-04 DE=-1.41D-08 OVMax= 4.61D-05

 Cycle  15  Pass 1  IDiag  1:
 RMSU=  5.36D-07    CP:  3.28D-01  3.00D+00  1.38D+00  7.02D-01  1.07D+00
                    CP:  1.16D+00  1.84D+00  2.52D+00  3.00D+00  2.24D+00
                    CP:  1.45D+00  1.63D+00  1.68D+00  1.41D+00
 E= -3010.55621236620     Delta-E=       -0.000000002257 Rises=F Damp=F
 DIIS: error= 6.04D-07 at cycle  15 NSaved=  15.
 NSaved=15 IEnMin=15 EnMin= -3010.55621236620     IErMin=15 ErrMin= 6.04D-07
 ErrMax= 6.04D-07  0.00D+00 EMaxC= 1.00D-01 BMatC= 1.10D-10 BMatP= 4.31D-10
 IDIUse=1 WtCom= 1.00D+00 WtEn= 0.00D+00
 Coeff-Com:  0.473D-05-0.588D-05 0.132D-04 0.309D-04 0.158D-03 0.293D-03
 Coeff-Com:  0.736D-04-0.724D-03-0.171D-02 0.813D-02 0.517D-02-0.572D-01
 Coeff-Com: -0.969D-01 0.250D+00 0.893D+00
 Coeff:      0.473D-05-0.588D-05 0.132D-04 0.309D-04 0.158D-03 0.293D-03
 Coeff:      0.736D-04-0.724D-03-0.171D-02 0.813D-02 0.517D-02-0.572D-01
 Coeff:     -0.969D-01 0.250D+00 0.893D+00
 Gap=     0.228 Goal=   None    Shift=    0.000
 RMSDP=1.61D-06 MaxDP=1.43D-04 DE=-2.26D-09 OVMax= 2.44D-05

 Cycle  16  Pass 1  IDiag  1:
 RMSU=  2.62D-07    CP:  3.28D-01  3.00D+00  1.38D+00  7.02D-01  1.07D+00
                    CP:  1.16D+00  1.84D+00  2.52D+00  3.00D+00  2.25D+00
                    CP:  1.44D+00  1.65D+00  1.80D+00  1.59D+00  1.32D+00
 E= -3010.55621236702     Delta-E=       -0.000000000823 Rises=F Damp=F
 DIIS: error= 3.02D-07 at cycle  16 NSaved=  16.
 NSaved=16 IEnMin=16 EnMin= -3010.55621236702     IErMin=16 ErrMin= 3.02D-07
 ErrMax= 3.02D-07  0.00D+00 EMaxC= 1.00D-01 BMatC= 2.90D-11 BMatP= 1.10D-10
 IDIUse=1 WtCom= 1.00D+00 WtEn= 0.00D+00
 Coeff-Com: -0.333D-04 0.444D-04-0.404D-05 0.673D-04 0.116D-03 0.265D-03
 Coeff-Com:  0.110D-02-0.761D-03-0.913D-02 0.605D-02 0.244D-01-0.145D-02
 Coeff-Com: -0.719D-01-0.232D+00 0.106D+00 0.118D+01
 Coeff:     -0.333D-04 0.444D-04-0.404D-05 0.673D-04 0.116D-03 0.265D-03
 Coeff:      0.110D-02-0.761D-03-0.913D-02 0.605D-02 0.244D-01-0.145D-02
 Coeff:     -0.719D-01-0.232D+00 0.106D+00 0.118D+01
 Gap=     0.228 Goal=   None    Shift=    0.000
 RMSDP=1.00D-06 MaxDP=7.82D-05 DE=-8.23D-10 OVMax= 2.16D-05

 Cycle  17  Pass 1  IDiag  1:
 RMSU=  1.48D-07    CP:  3.28D-01  3.00D+00  1.38D+00  7.02D-01  1.07D+00
                    CP:  1.16D+00  1.84D+00  2.52D+00  3.00D+00  2.25D+00
                    CP:  1.44D+00  1.67D+00  1.88D+00  1.66D+00  1.66D+00
                    CP:  1.99D+00
 E= -3010.55621236731     Delta-E=       -0.000000000296 Rises=F Damp=F
 DIIS: error= 1.37D-07 at cycle  17 NSaved=  17.
 NSaved=17 IEnMin=17 EnMin= -3010.55621236731     IErMin=17 ErrMin= 1.37D-07
 ErrMax= 1.37D-07  0.00D+00 EMaxC= 1.00D-01 BMatC= 5.69D-12 BMatP= 2.90D-11
 IDIUse=1 WtCom= 1.00D+00 WtEn= 0.00D+00
 Coeff-Com: -0.847D-05 0.113D-04-0.380D-05 0.152D-05-0.351D-04-0.811D-04
 Coeff-Com:  0.389D-05 0.239D-03-0.654D-04-0.185D-02-0.172D-03 0.130D-01
 Coeff-Com:  0.220D-01-0.581D-01-0.203D+00-0.638D-01 0.129D+01
 Coeff:     -0.847D-05 0.113D-04-0.380D-05 0.152D-05-0.351D-04-0.811D-04
 Coeff:      0.389D-05 0.239D-03-0.654D-04-0.185D-02-0.172D-03 0.130D-01
 Coeff:      0.220D-01-0.581D-01-0.203D+00-0.638D-01 0.129D+01
 Gap=     0.228 Goal=   None    Shift=    0.000
 RMSDP=5.31D-07 MaxDP=5.90D-05 DE=-2.96D-10 OVMax= 1.21D-05

 Cycle  18  Pass 1  IDiag  1:
 RMSU=  6.32D-08    CP:  3.28D-01  3.00D+00  1.38D+00  7.02D-01  1.07D+00
                    CP:  1.16D+00  1.84D+00  2.52D+00  3.00D+00  2.25D+00
                    CP:  1.44D+00  1.68D+00  1.90D+00  1.65D+00  1.75D+00
                    CP:  2.80D+00  1.86D+00
 E= -3010.55621236747     Delta-E=       -0.000000000152 Rises=F Damp=F
 DIIS: error= 6.96D-08 at cycle  18 NSaved=  18.
 NSaved=18 IEnMin=18 EnMin= -3010.55621236747     IErMin=18 ErrMin= 6.96D-08
 ErrMax= 6.96D-08  0.00D+00 EMaxC= 1.00D-01 BMatC= 1.24D-12 BMatP= 5.69D-12
 IDIUse=1 WtCom= 1.00D+00 WtEn= 0.00D+00
 Coeff-Com:  0.126D-05-0.169D-05-0.806D-06-0.878D-05-0.308D-04-0.741D-04
 Coeff-Com: -0.180D-03 0.220D-03 0.138D-02-0.155D-02-0.360D-02 0.435D-02
 Coeff-Com:  0.191D-01 0.217D-01-0.745D-01-0.214D+00 0.404D+00 0.844D+00
 Coeff:      0.126D-05-0.169D-05-0.806D-06-0.878D-05-0.308D-04-0.741D-04
 Coeff:     -0.180D-03 0.220D-03 0.138D-02-0.155D-02-0.360D-02 0.435D-02
 Coeff:      0.191D-01 0.217D-01-0.745D-01-0.214D+00 0.404D+00 0.844D+00
 Gap=     0.228 Goal=   None    Shift=    0.000
 RMSDP=1.67D-07 MaxDP=1.96D-05 DE=-1.52D-10 OVMax= 3.14D-06

 Cycle  19  Pass 1  IDiag  1:
 RMSU=  1.82D-08    CP:  3.28D-01  3.00D+00  1.38D+00  7.02D-01  1.07D+00
                    CP:  1.16D+00  1.84D+00  2.52D+00  3.00D+00  2.25D+00
                    CP:  1.44D+00  1.68D+00  1.90D+00  1.64D+00  1.74D+00
                    CP:  2.99D+00  2.21D+00  1.43D+00
 E= -3010.55621236749     Delta-E=       -0.000000000021 Rises=F Damp=F
 DIIS: error= 3.08D-08 at cycle  19 NSaved=  19.
 NSaved=19 IEnMin=19 EnMin= -3010.55621236749     IErMin=19 ErrMin= 3.08D-08
 ErrMax= 3.08D-08  0.00D+00 EMaxC= 1.00D-01 BMatC= 3.14D-13 BMatP= 1.24D-12
 IDIUse=1 WtCom= 1.00D+00 WtEn= 0.00D+00
 Coeff-Com: -0.782D-07 0.131D-06 0.188D-06 0.306D-06 0.463D-05 0.521D-05
 Coeff-Com: -0.452D-04-0.118D-04 0.284D-03 0.758D-05-0.735D-03-0.224D-02
 Coeff-Com: -0.159D-02 0.182D-01 0.294D-01-0.444D-01-0.222D+00 0.255D+00
 Coeff-Com:  0.968D+00
 Coeff:     -0.782D-07 0.131D-06 0.188D-06 0.306D-06 0.463D-05 0.521D-05
 Coeff:     -0.452D-04-0.118D-04 0.284D-03 0.758D-05-0.735D-03-0.224D-02
 Coeff:     -0.159D-02 0.182D-01 0.294D-01-0.444D-01-0.222D+00 0.255D+00
 Coeff:      0.968D+00
 Gap=     0.228 Goal=   None    Shift=    0.000
 RMSDP=1.00D-07 MaxDP=6.84D-06 DE=-2.09D-11 OVMax= 2.14D-06

 Cycle  20  Pass 1  IDiag  1:
 RMSU=  3.39D-08    CP:  3.28D-01  3.00D+00  1.38D+00  7.02D-01  1.07D+00
                    CP:  1.16D+00  1.84D+00  2.52D+00  3.00D+00  2.25D+00
                    CP:  1.44D+00  1.68D+00  1.91D+00  1.63D+00  1.73D+00
                    CP:  3.00D+00  2.40D+00  1.74D+00  1.24D+00
 E= -3010.55621236747     Delta-E=        0.000000000014 Rises=F Damp=F
 DIIS: error= 1.16D-08 at cycle  20 NSaved=  20.
 NSaved=20 IEnMin=19 EnMin= -3010.55621236749     IErMin=20 ErrMin= 1.16D-08
 ErrMax= 1.16D-08  0.00D+00 EMaxC= 1.00D-01 BMatC= 2.91D-14 BMatP= 3.14D-13
 IDIUse=1 WtCom= 1.00D+00 WtEn= 0.00D+00
 Coeff-Com: -0.784D-07 0.108D-06 0.160D-06 0.124D-05 0.592D-05 0.127D-04
 Coeff-Com:  0.194D-04-0.346D-04-0.160D-03 0.251D-03 0.449D-03-0.110D-02
 Coeff-Com: -0.333D-02 0.177D-02 0.192D-01 0.206D-01-0.114D+00-0.563D-01
 Coeff-Com:  0.236D+00 0.896D+00
 Coeff:     -0.784D-07 0.108D-06 0.160D-06 0.124D-05 0.592D-05 0.127D-04
 Coeff:      0.194D-04-0.346D-04-0.160D-03 0.251D-03 0.449D-03-0.110D-02
 Coeff:     -0.333D-02 0.177D-02 0.192D-01 0.206D-01-0.114D+00-0.563D-01
 Coeff:      0.236D+00 0.896D+00
 Gap=     0.228 Goal=   None    Shift=    0.000
 RMSDP=2.73D-08 MaxDP=3.11D-06 DE= 1.41D-11 OVMax= 3.16D-07

 Cycle  21  Pass 1  IDiag  1:
 Restarting incremental Fock formation.
 E= -3010.55621236747     Delta-E=        0.000000000003 Rises=F Damp=F
 DIIS: error= 6.83D-09 at cycle  21 NSaved=  20.
 NSaved=20 IEnMin=18 EnMin= -3010.55621236749     IErMin=20 ErrMin= 6.83D-09
 ErrMax= 6.83D-09  0.00D+00 EMaxC= 1.00D-01 BMatC= 5.71D-15 BMatP= 2.91D-14
 IDIUse=1 WtCom= 1.00D+00 WtEn= 0.00D+00
 Large coefficients: NSaved= 20 BigCof=    0.00 CofMax=   10.00 Det=-1.52D-14
 Inversion failed.  Reducing to 19 matrices.
 Coeff-Com:  0.517D-07 0.377D-06 0.137D-05 0.360D-05 0.129D-04-0.825D-05
 Coeff-Com: -0.881D-04 0.784D-04 0.225D-03-0.975D-04-0.106D-02-0.163D-02
 Coeff-Com:  0.315D-02 0.133D-01-0.118D-01-0.535D-01-0.532D-01 0.297D+00
 Coeff-Com:  0.807D+00
 Coeff:      0.517D-07 0.377D-06 0.137D-05 0.360D-05 0.129D-04-0.825D-05
 Coeff:     -0.881D-04 0.784D-04 0.225D-03-0.975D-04-0.106D-02-0.163D-02
 Coeff:      0.315D-02 0.133D-01-0.118D-01-0.535D-01-0.532D-01 0.297D+00
 Coeff:      0.807D+00
 Gap=     0.228 Goal=   None    Shift=    0.000
 RMSDP=4.60D-09 MaxDP=2.71D-07 DE= 3.18D-12 OVMax= 9.27D-08

 SCF Done:  E(RwB97XD) =  -3010.55621237     A.U. after   21 cycles
            NFock= 21  Conv=0.46D-08     -V/T= 2.0016
 KE= 3.005804176315D+03 PE=-8.695822020039D+03 EE= 1.909332971326D+03
 Leave Link  502 at Thu May  2 14:21:05 2024, MaxMem=   134217728 cpu:            1304.8 elap:            1305.1
 (Enter /software/gaussian/g16-c01/sse4/g16/l601.exe)
 Copying SCF densities to generalized density rwf, IOpCl= 0 IROHF=0.

 **********************************************************************

            Population analysis using the SCF Density.

 **********************************************************************

 Alpha  occ. eigenvalues -- -483.27787 -62.82739 -56.62500 -56.61847 -56.61822
 Alpha  occ. eigenvalues --  -19.45737 -19.45730 -14.85092 -10.57921 -10.56064
 Alpha  occ. eigenvalues --  -10.55915 -10.55332 -10.52150 -10.51581  -8.98494
 Alpha  occ. eigenvalues --   -6.81348  -6.79225  -6.79148  -2.91208  -2.90665
 Alpha  occ. eigenvalues --   -2.90604  -2.88908  -2.88906  -1.49392  -1.32372
 Alpha  occ. eigenvalues --   -1.20952  -1.11577  -1.10614  -1.02393  -0.98580
 Alpha  occ. eigenvalues --   -0.93867  -0.89327  -0.84128  -0.80026  -0.79324
 Alpha  occ. eigenvalues --   -0.79031  -0.76760  -0.75454  -0.74301  -0.70139
 Alpha  occ. eigenvalues --   -0.67209  -0.66279  -0.61160  -0.58020  -0.56857
 Alpha  occ. eigenvalues --   -0.56095  -0.55401  -0.51957  -0.51118
 Alpha virt. eigenvalues --   -0.28341  -0.19607  -0.14210  -0.12877  -0.11375
 Alpha virt. eigenvalues --   -0.09497  -0.09289  -0.06392  -0.05319  -0.04477
 Alpha virt. eigenvalues --   -0.02495  -0.01230   0.00234   0.00617   0.01389
 Alpha virt. eigenvalues --    0.02501   0.02700   0.03802   0.04766   0.06138
 Alpha virt. eigenvalues --    0.06488   0.06694   0.07538   0.07606   0.08204
 Alpha virt. eigenvalues --    0.08774   0.09369   0.09932   0.10396   0.11285
 Alpha virt. eigenvalues --    0.11896   0.12848   0.13363   0.13493   0.14223
 Alpha virt. eigenvalues --    0.15182   0.16014   0.16384   0.16617   0.18009
 Alpha virt. eigenvalues --    0.18578   0.18836   0.19367   0.19388   0.20579
 Alpha virt. eigenvalues --    0.21904   0.22547   0.23039   0.23477   0.25383
 Alpha virt. eigenvalues --    0.26310   0.26658   0.29788   0.31504   0.33380
 Alpha virt. eigenvalues --    0.34184   0.35274   0.36419   0.37400   0.38975
 Alpha virt. eigenvalues --    0.39868   0.40412   0.41489   0.41987   0.43685
 Alpha virt. eigenvalues --    0.45089   0.45594   0.47169   0.48252   0.49058
 Alpha virt. eigenvalues --    0.50177   0.51735   0.52821   0.54251   0.54919
 Alpha virt. eigenvalues --    0.56263   0.57623   0.59248   0.59614   0.61487
 Alpha virt. eigenvalues --    0.62755   0.63894   0.66755   0.69502   0.70560
 Alpha virt. eigenvalues --    0.72525   0.72951   0.73995   0.75304   0.76120
 Alpha virt. eigenvalues --    0.76720   0.78371   0.80726   0.86190   0.87068
 Alpha virt. eigenvalues --    0.88363   0.89670   0.92537   0.95891   0.99710
 Alpha virt. eigenvalues --    1.01270   1.04030   1.05099   1.06996   1.08033
 Alpha virt. eigenvalues --    1.09935   1.13162   1.14092   1.14953   1.19034
 Alpha virt. eigenvalues --    1.21650   1.23596   1.29324   1.34780   1.37540
 Alpha virt. eigenvalues --    1.38204   1.40286   1.45000   1.56392   1.57852
 Alpha virt. eigenvalues --    1.58332   1.60827   1.62494   1.65155   1.67341
 Alpha virt. eigenvalues --    1.69169   1.72930   1.74736   1.76555   1.80857
 Alpha virt. eigenvalues --    1.85215   1.86614   1.88544   1.98348   1.99238
 Alpha virt. eigenvalues --    1.99719   2.04151   2.05127   2.08745   2.11024
 Alpha virt. eigenvalues --    2.14925   2.16384   2.23507   2.24648   2.28576
 Alpha virt. eigenvalues --    2.34782   2.40840   2.42458   2.45409   2.54622
 Alpha virt. eigenvalues --    2.59230   2.64400   2.67315   2.70030   2.72250
 Alpha virt. eigenvalues --    2.74519   2.77031   2.78521   2.81291   2.83589
 Alpha virt. eigenvalues --    2.94782   2.99227   3.02465   3.07255   3.10386
 Alpha virt. eigenvalues --    3.16144   3.17630   3.18761   3.23202   3.27149
 Alpha virt. eigenvalues --    3.28956   3.38840   3.47985   3.51256   3.55417
 Alpha virt. eigenvalues --    3.58719   3.69455   3.74808   3.85080   3.88831
 Alpha virt. eigenvalues --    4.13883   4.14810   4.22957   4.27237   4.45233
 Alpha virt. eigenvalues --    4.47366   4.56107   4.60702   4.94049   4.96800
 Alpha virt. eigenvalues --    5.05752   5.10147   5.62546   6.15621   6.71832
 Alpha virt. eigenvalues --    7.52926   7.55157   7.65121  23.23687  23.62709
 Alpha virt. eigenvalues --   23.73855  23.79653  23.97067  24.03510  35.32074
 Alpha virt. eigenvalues --   47.97665  49.85721  49.94383 289.85235 289.87568
 Alpha virt. eigenvalues --  290.001451020.98744
          Condensed to atoms (all electrons):
               1          2          3          4          5          6
     1  C    7.893732  -1.371213   0.298000   0.104614   0.294200   0.055605
     2  C   -1.371213  21.086747  -2.569722   0.457508   0.003776   0.200344
     3  C    0.298000  -2.569722  24.161889  -1.512062  -0.003728   0.107080
     4  C    0.104614   0.457508  -1.512062   6.506546   0.030508  -0.012781
     5  H    0.294200   0.003776  -0.003728   0.030508   0.333527  -0.001725
     6  H    0.055605   0.200344   0.107080  -0.012781  -0.001725   0.314031
     7  H    0.017520  -0.026322   0.010812   0.318499  -0.002425   0.000005
     8  N   -0.123782  -0.752195  -2.913611   0.027695   0.000109  -0.033038
     9  O    0.043751   0.747377   0.562120  -0.018509  -0.000028  -0.002645
    10  O    0.228715  -0.252247  -0.348153  -0.009123  -0.000012   0.021455
    11  C    0.919147  -0.191666   2.943904  -0.418102  -0.033346   0.008668
    12  H   -0.020696   0.031363  -0.004354   0.029978   0.000087  -0.000026
    13  C   -2.176925 -11.309823 -14.518661   0.883387   0.034045  -0.005903
    14  H    0.015908   0.039971   0.138986  -0.015311  -0.000079   0.000157
    15  Br  -0.008966  -0.342496  -0.331918  -0.030507   0.000861  -0.000656
               7          8          9         10         11         12
     1  C    0.017520  -0.123782   0.043751   0.228715   0.919147  -0.020696
     2  C   -0.026322  -0.752195   0.747377  -0.252247  -0.191666   0.031363
     3  C    0.010812  -2.913611   0.562120  -0.348153   2.943904  -0.004354
     4  C    0.318499   0.027695  -0.018509  -0.009123  -0.418102   0.029978
     5  H   -0.002425   0.000109  -0.000028  -0.000012  -0.033346   0.000087
     6  H    0.000005  -0.033038  -0.002645   0.021455   0.008668  -0.000026
     7  H    0.342016   0.000225  -0.000030   0.000014   0.005837  -0.002153
     8  N    0.000225   8.076122  -0.187751   0.262471  -0.348688   0.000791
     9  O   -0.000030  -0.187751   8.071910  -0.028764   0.277203   0.000206
    10  O    0.000014   0.262471  -0.028764   7.810805  -0.029335  -0.000055
    11  C    0.005837  -0.348688   0.277203  -0.029335   8.699308   0.284528
    12  H   -0.002153   0.000791   0.000206  -0.000055   0.284528   0.334887
    13  C    0.008239   3.117579  -1.503762   0.262159  -5.919788  -0.003419
    14  H   -0.000039  -0.061626   0.026392  -0.001742   0.085645  -0.008320
    15  Br   0.000108   0.224808  -0.076515   0.012776  -0.028759   0.005458
              13         14         15
     1  C   -2.176925   0.015908  -0.008966
     2  C  -11.309823   0.039971  -0.342496
     3  C  -14.518661   0.138986  -0.331918
     4  C    0.883387  -0.015311  -0.030507
     5  H    0.034045  -0.000079   0.000861
     6  H   -0.005903   0.000157  -0.000656
     7  H    0.008239  -0.000039   0.000108
     8  N    3.117579  -0.061626   0.224808
     9  O   -1.503762   0.026392  -0.076515
    10  O    0.262159  -0.001742   0.012776
    11  C   -5.919788   0.085645  -0.028759
    12  H   -0.003419  -0.008320   0.005458
    13  C   36.754144   0.052057   0.773136
    14  H    0.052057   0.446645  -0.057874
    15  Br   0.773136  -0.057874  34.458878
 Mulliken charges:
               1
     1  C   -0.169608
     2  C    0.248598
     3  C   -0.020581
     4  C   -0.342340
     5  H    0.344230
     6  H    0.349429
     7  H    0.327694
     8  N   -0.289108
     9  O    0.089047
    10  O    0.071036
    11  C   -0.254556
    12  H    0.351726
    13  C   -0.446464
    14  H    0.339231
    15  Br   0.401667
 Sum of Mulliken charges =   1.00000
 Mulliken charges with hydrogens summed into heavy atoms:
               1
     1  C    0.174622
     2  C    0.598026
     3  C   -0.020581
     4  C   -0.014646
     8  N   -0.289108
     9  O    0.089047
    10  O    0.071036
    11  C    0.097170
    13  C   -0.107233
    15  Br   0.401667
 Electronic spatial extent (au):  <R**2>=           3941.5840
 Charge=              1.0000 electrons
 Dipole moment (field-independent basis, Debye):
    X=              3.1398    Y=             -1.8413    Z=             -4.8193  Tot=              6.0394
 Quadrupole moment (field-independent basis, Debye-Ang):
   XX=            -67.8927   YY=            -49.7275   ZZ=            -57.4290
   XY=             -4.8845   XZ=            -10.9371   YZ=              6.4069
 Traceless Quadrupole moment (field-independent basis, Debye-Ang):
   XX=             -9.5430   YY=              8.6222   ZZ=              0.9207
   XY=             -4.8845   XZ=            -10.9371   YZ=              6.4069
 Octapole moment (field-independent basis, Debye-Ang**2):
  XXX=           -516.6808  YYY=             85.2063  ZZZ=             62.4917  XYY=           -132.2886
  XXY=             20.1976  XXZ=             -0.6255  XZZ=           -121.5789  YZZ=              6.4105
  YYZ=             12.3934  XYZ=             16.9279
 Hexadecapole moment (field-independent basis, Debye-Ang**3):
 XXXX=          -3481.5636 YYYY=           -687.0382 ZZZZ=           -348.9448 XXXY=            170.7816
 XXXZ=             93.1202 YYYX=            169.7797 YYYZ=           -147.0801 ZZZX=            124.1994
 ZZZY=           -112.3211 XXYY=           -614.4398 XXZZ=           -499.8138 YYZZ=           -147.2783
 XXYZ=            -18.2270 YYXZ=             20.6950 ZZXY=              5.2114
 N-N= 7.701286600307D+02 E-N=-8.695822020245D+03  KE= 3.005804176315D+03
 No NMR shielding tensors so no spin-rotation constants.
 Leave Link  601 at Thu May  2 14:21:13 2024, MaxMem=   134217728 cpu:               7.5 elap:               7.5
 (Enter /software/gaussian/g16-c01/sse4/g16/l9999.exe)
 Unable to Open any file for archive entry.
 1\1\GINC-BHX0019\SP\RwB97XD\6-311+G(d)\C6H5Br1N1O2(1+)\BWEIGHT\02-May-
 2024\0\\#P wB97XD/6-311+G* NoSymm #P Field=Z+223\\TitleMe\\1,1\C,0,0.5
 193,1.233,-0.0319\C,0,1.9445,1.2692,-0.0367\C,0,2.6204,0.0928,-0.025\C
 ,0,-0.196,0.0301,0.001\H,0,-0.0207,2.1742,-0.0434\H,0,2.4828,2.2089,-0
 .0361\H,0,-1.2777,0.0399,0.0117\N,0,4.0921,0.0959,0.0366\O,0,4.6393,-1
 .0217,0.1446\O,0,4.6649,1.1984,-0.0233\C,0,0.4943,-1.1671,0.021\H,0,-0
 .0325,-2.1149,0.0545\C,0,1.9629,-1.2165,-0.0211\H,0,2.4436,-1.9631,0.6
 151\Br,0,2.173,-1.9491,-1.9062\\Version=ES64L-G16RevC.01\HF=-3010.5562
 124\RMSD=4.599e-09\Dipole=-3.0939133,0.5036889,-0.6468447\Quadrupole=-
 7.0949534,6.410402,0.6845514,-3.6314845,-8.1314744,4.7633672\PG=C01 [X
 (C6H5Br1N1O2)]\\@
 The archive entry for this job was punched.


 ADAM SMITH SAID, "THE REAL PRICE OF ANYTHING IS THE TOIL AND TROUBLE
 OF ACQUIRING IT."  BUT IN ALL UNDERTAKINGS WITH NATURE WE SHOULD FIRST
 READ CAREFULLY THE SMALL PRINT IN THE CONTRACT. THIS MIGHT DISCLOSE
 THAT THE REAL PRICE IS TO BE PAID BY THOSE WHO INHERIT THE DEPLETION
 AND DESPOILATION THAT FOLLOWS.
                               -- E. R. HARRISON IN "COSMOLOGY" (1980)
 Job cpu time:       0 days  0 hours 22 minutes 56.1 seconds.
 Elapsed time:       0 days  0 hours 22 minutes 56.4 seconds.
 File lengths (MBytes):  RWF=     40 Int=      0 D2E=      0 Chk=     32 Scr=      1
 Normal termination of Gaussian 16 at Thu May  2 14:21:14 2024.
